Protein in water
98266
    1DT5    H5T    1   2.040   3.310   4.597 -0.3385  0.2646  0.4125
    1DT5    O5'    2   2.113   3.364   4.566 -0.3284  0.1328  0.2072
    1DT5    C5'    3   2.125   3.480   4.652 -0.0613  0.8158 -0.4240
    1DT5   H5'1    4   2.028   3.511   4.690  0.2741  0.1677  1.0288
    1DT5   H5'2    5   2.150   3.573   4.599 -1.6117  0.7987 -1.2353
    1DT5    C4'    6   2.215   3.452   4.766 -0.4947  0.4374  0.2970
    1DT5    H4'    7   2.241   3.535   4.831  0.6878 -0.4591  1.0260
    1DT5    O4'    8   2.157   3.344   4.841 -0.0401  0.5278 -0.1783
    1DT5    C1'    9   2.254   3.254   4.892 -0.1953  0.3173  0.6583
    1DT5    H1'   10   2.309   3.285   4.981  3.3549 -0.7926 -0.9504
    1DT5     N1   11   2.188   3.130   4.932 -0.1659  0.3452 -0.3493
    1DT5     C6   12   2.169   3.023   4.850  0.2600  0.6037  0.0601
    1DT5     H6   13   2.194   3.030   4.745 -2.9456  0.3322 -0.8291
    1DT5     C5   14   2.104   2.910   4.892 -0.1098  0.1526  1.3358
    1DT5     C7   15   2.061   2.803   4.791  0.4443  0.4743  0.0829
    1DT5    H71   16   2.105   2.814   4.691  2.1100  1.5501  0.8825
    1DT5    H72   17   2.086   2.707   4.835 -0.8299  0.2650  0.3925
    1DT5    H73   18   1.953   2.803   4.777  0.5742 -1.6448 -1.5297
    1DT5     C4   19   2.067   2.896   5.034 -0.0745 -0.0500  0.3356
    1DT5     O4   20   2.019   2.797   5.083  0.4069  0.1097 -0.4429
    1DT5     N3   21   2.098   3.005   5.113  0.5272 -0.3258  0.3982
    1DT5     H3   22   2.082   2.986   5.211 -1.1956 -2.9851 -0.2656
    1DT5     C2   23   2.159   3.121   5.074  0.2219 -0.1141 -0.0633
    1DT5     O2   24   2.184   3.208   5.158  0.5592  0.4572 -0.0488
    1DT5    C3'   25   2.358   3.396   4.732 -0.3604 -0.1240  0.8481
    1DT5    H3'   26   2.373   3.394   4.624  2.0738 -1.5279  1.1268
    1DT5    C2'   27   2.355   3.250   4.782  0.8715  0.1185 -0.7756
    1DT5   H2'1   28   2.319   3.188   4.699  0.9362 -1.0131  0.0061
    1DT5   H2'2   29   2.447   3.211   4.824 -0.4274  0.0160  2.2252
    1DT5    O3'   30   2.453   3.483   4.794 -0.1893 -0.1281  0.1240
    2DT       P   31   2.605   3.450   4.802 -0.3842  0.6706  0.1850
    2DT     O1P   32   2.670   3.577   4.851  0.8709  0.2883  0.1994
    2DT     O2P   33   2.653   3.385   4.678 -0.2573 -0.7394 -0.0195
    2DT     O5'   34   2.627   3.348   4.919 -0.2268 -0.2732  0.5116
    2DT     C5'   35   2.569   3.367   5.053  0.2295 -0.6586  0.4204
    2DT    H5'1   36   2.466   3.401   5.039  0.1082 -0.8757  0.7734
    2DT    H5'2   37   2.626   3.444   5.105 -0.2881  1.2771 -1.7136
    2DT     C4'   38   2.562   3.238   5.140 -0.1110  0.1175  0.2103
    2DT     H4'   39   2.530   3.257   5.242  0.1886 -1.1402  0.5515
    2DT     O4'   40   2.478   3.147   5.078  0.0384  0.5030  0.1568
    2DT     C1'   41   2.516   3.015   5.122  0.6105  0.0559 -0.0064
    2DT     H1'   42   2.486   3.007   5.227  1.2033 -0.0924  0.1587
    2DT      N1   43   2.469   2.905   5.044  0.0807 -0.0091 -0.2863
    2DT      C6   44   2.494   2.891   4.905 -0.1557 -0.5128 -0.1304
    2DT      H6   45   2.549   2.963   4.846 -2.5751  0.7833 -0.9283
    2DT      C5   46   2.448   2.779   4.837  0.0369  0.7284 -0.1100
    2DT      C7   47   2.490   2.751   4.688 -0.2144  0.0162  0.2393
    2DT     H71   48   2.528   2.651   4.670 -2.6216 -0.6559 -1.6040
    2DT     H72   49   2.405   2.763   4.622  2.3407 -0.3578 -3.4063
    2DT     H73   50   2.566   2.824   4.660  0.4781 -0.2094  1.4351
    2DT      C4   51   2.361   2.682   4.901  0.0355 -0.0616  0.4795
    2DT      O4   52   2.318   2.577   4.855  0.2675  0.1255 -0.3892
    2DT      N3   53   2.330   2.711   5.031  0.9364 -0.7674  0.1614
    2DT      H3   54   2.283   2.637   5.080  1.2546 -0.1097  1.5279
    2DT      C2   55   2.384   2.815   5.112  0.7120  0.5791  0.5292
    2DT      O2   56   2.339   2.827   5.225  0.0522  0.3516 -0.1232
    2DT     C3'   57   2.696   3.168   5.160  0.8345 -0.7328 -0.2760
    2DT     H3'   58   2.772   3.222   5.103 -0.8758  2.9987  0.6932
    2DT     C2'   59   2.666   3.022   5.120 -0.4168 -0.3561  0.0708
    2DT    H2'1   60   2.706   3.006   5.020 -0.2974 -0.3797  0.1224
    2DT    H2'2   61   2.705   2.955   5.197  1.1766  0.4743  0.0286
    2DT     O3'   62   2.728   3.197   5.288  0.5603 -0.1075 -0.0542
    3DT       P   63   2.853   3.135   5.358  0.8277  0.0868 -0.2964
    3DT     O1P   64   2.904   3.234   5.450 -0.3117 -0.1916 -0.2471
    3DT     O2P   65   2.939   3.070   5.258 -0.4451  0.3524 -0.2578
    3DT     O5'   66   2.775   3.025   5.437  0.3649 -0.4744  0.6691
    3DT     C5'   67   2.690   3.053   5.540  0.2726 -0.5180  0.4551
    3DT    H5'1   68   2.620   3.125   5.496  0.6983 -0.6495 -0.4581
    3DT    H5'2   69   2.739   3.105   5.623 -0.8691 -0.3241  1.0333
    3DT     C4'   70   2.607   2.937   5.585  0.2953 -0.1516 -0.2331
    3DT     H4'   71   2.527   2.974   5.650  0.8365 -1.3489  1.1882
    3DT     O4'   72   2.546   2.869   5.477  0.0142 -0.5850  0.2875
    3DT     C1'   73   2.536   2.733   5.510 -0.7036 -0.4864  0.2060
    3DT     H1'   74   2.451   2.711   5.575 -0.7937  0.6415  0.4940
    3DT      N1   75   2.520   2.635   5.403 -0.5500  0.6488 -0.4222
    3DT      C6   76   2.623   2.632   5.309 -0.6400  0.7276 -0.7515
    3DT      H6   77   2.711   2.693   5.321  0.1446 -0.5418  0.2311
    3DT      C5   78   2.609   2.560   5.195  0.0095  0.6098  0.0598
    3DT      C7   79   2.717   2.549   5.087  0.1861  0.2900 -0.4690
    3DT     H71   80   2.800   2.609   5.125 -0.6172  1.4542 -0.5193
    3DT     H72   81   2.747   2.444   5.079  0.0129  0.2977 -1.3210
    3DT     H73   82   2.677   2.582   4.991 -1.8522 -2.0598 -0.5209
    3DT      C4   83   2.498   2.462   5.186 -0.2943  0.1614 -0.3047
    3DT      O4   84   2.471   2.400   5.090 -0.1523 -0.3311 -0.1580
    3DT      N3   85   2.416   2.454   5.300  1.1012  0.6175 -0.1861
    3DT      H3   86   2.332   2.400   5.288  2.6437 -1.7385 -1.1946
    3DT      C2   87   2.424   2.529   5.410  0.3038 -0.1465  0.2273
    3DT      O2   88   2.348   2.505   5.508 -0.0227 -1.1114  0.7158
    3DT     C3'   89   2.667   2.827   5.675  0.0620 -0.7519 -0.2044
    3DT     H3'   90   2.771   2.848   5.703  0.4841 -1.3120 -1.2784
    3DT     C2'   91   2.668   2.713   5.583 -0.3394  0.0566 -0.1677
    3DT    H2'1   92   2.754   2.736   5.520 -1.5373  1.6893 -1.2765
    3DT    H2'2   93   2.676   2.618   5.636  3.2842  1.0000  1.3046
    3DT     O3'   94   2.578   2.800   5.779 -0.1436 -0.0255 -0.4476
    4DT       P   95   2.606   2.859   5.927 -0.0303  0.0684  0.0937
    4DT     O1P   96   2.756   2.865   5.947  0.5948  0.3342 -0.2613
    4DT     O2P   97   2.523   2.766   6.011 -0.4982 -0.3761 -0.3968
    4DT     O5'   98   2.540   3.010   5.938  0.1584 -0.1844 -0.3561
    4DT     C5'   99   2.622   3.132   5.920  0.9113 -0.9033  0.6632
    4DT    H5'1  100   2.704   3.099   5.856  2.4624 -1.2570  2.7507
    4DT    H5'2  101   2.676   3.147   6.013  0.9621 -1.4868  0.7283
    4DT     C4'  102   2.565   3.268   5.859  0.6022  0.4951 -0.4218
    4DT     H4'  103   2.643   3.342   5.844 -0.0233  1.1655 -0.4508
    4DT     O4'  104   2.517   3.227   5.729 -0.2078  0.7506 -0.4864
    4DT     C1'  105   2.380   3.267   5.721  0.6074 -0.2946  0.0809
    4DT     H1'  106   2.381   3.370   5.686  1.7378 -0.4317 -0.3463
    4DT      N1  107   2.309   3.174   5.628 -0.0310 -0.0298 -0.4846
    4DT      C6  108   2.284   3.043   5.672 -0.1691  0.2651 -0.1585
    4DT      H6  109   2.331   3.010   5.764  1.6419 -1.6658 -1.6764
    4DT      C5  110   2.203   2.964   5.600  0.1702  0.1036  0.2489
    4DT      C7  111   2.185   2.819   5.634 -0.0502 -0.5194  1.1275
    4DT     H71  112   2.244   2.789   5.721  1.6933 -0.7198 -0.0795
    4DT     H72  113   2.083   2.796   5.663 -0.1183  0.2501  1.5395
    4DT     H73  114   2.211   2.765   5.543 -1.4024  0.3452  0.1867
    4DT      C4  115   2.159   3.010   5.467  0.3105  0.1531 -0.3072
    4DT      O4  116   2.087   2.948   5.388  0.0899  0.7711 -0.0731
    4DT      N3  117   2.203   3.140   5.425 -0.3296  0.4515  0.4409
    4DT      H3  118   2.184   3.170   5.330 -0.1848 -1.3543 -0.2047
    4DT      C2  119   2.270   3.221   5.504  0.1048  0.3295  0.3908
    4DT      O2  120   2.286   3.330   5.456  0.0018 -0.0396  0.8846
    4DT     C3'  121   2.445   3.331   5.935  0.0041  0.6273 -0.0325
    4DT     H3'  122   2.449   3.308   6.042 -0.0809 -2.4003 -0.5962
    4DT     C2'  123   2.323   3.281   5.860  0.1631 -0.0902  0.1707
    4DT    H2'1  124   2.289   3.187   5.904  0.1100  0.0998  0.5360
    4DT    H2'2  125   2.241   3.351   5.876 -0.5889 -0.8420 -0.2914
    4DT     O3'  126   2.444   3.470   5.919 -0.8849  0.3946 -0.5337
    5DT       P  127   2.354   3.574   5.992  0.2174  0.2376  0.4794
    5DT     O1P  128   2.438   3.695   6.003 -0.1735  0.0314 -0.0497
    5DT     O2P  129   2.286   3.520   6.109  0.0742  1.3984 -0.0815
    5DT     O5'  130   2.233   3.610   5.897  0.3943 -0.2113 -0.1774
    5DT     C5'  131   2.263   3.649   5.760 -0.5999  0.0630 -0.7729
    5DT    H5'1  132   2.357   3.602   5.730  1.1746  1.5032  2.1706
    5DT    H5'2  133   2.270   3.758   5.760  0.1942  0.0867  2.0880
    5DT     C4'  134   2.160   3.615   5.653 -0.4461 -0.8597  0.1395
    5DT     H4'  135   2.201   3.644   5.556  0.6433  2.3275  1.4152
    5DT     O4'  136   2.139   3.485   5.659 -0.1617  0.3187  0.6206
    5DT     C1'  137   2.013   3.473   5.601 -0.2346  0.1883  0.2537
    5DT     H1'  138   2.024   3.501   5.496 -0.8455 -0.8992 -0.1107
    5DT      N1  139   1.968   3.332   5.626  0.4786  0.4076 -0.0980
    5DT      C6  140   1.976   3.280   5.752 -0.0799  0.3841 -0.7503
    5DT      H6  141   2.011   3.345   5.830 -1.9288  2.5921 -1.6116
    5DT      C5  142   1.946   3.150   5.773 -0.1467 -0.5634 -1.1095
    5DT      C7  143   1.972   3.084   5.907  0.4919 -0.3839  0.0709
    5DT     H71  144   2.009   3.159   5.977  0.0620  1.0795 -1.2108
    5DT     H72  145   1.888   3.024   5.943  2.0715 -2.2020  0.8724
    5DT     H73  146   2.046   3.007   5.888  0.4779  0.1261 -2.2816
    5DT      C4  147   1.887   3.075   5.667  0.6575 -0.1916 -0.3040
    5DT      O4  148   1.845   2.961   5.679 -0.2459  0.1702  0.1126
    5DT      N3  149   1.873   3.135   5.546  0.1377 -0.5691  0.2133
    5DT      H3  150   1.827   3.085   5.471 -0.9645  1.4352 -0.5189
    5DT      C2  151   1.920   3.258   5.520 -0.7824  0.1147 -0.0655
    5DT      O2  152   1.909   3.302   5.405  0.2008 -0.2714  0.1113
    5DT     C3'  153   2.032   3.691   5.685  0.1083 -0.1466  0.1845
    5DT     H3'  154   2.038   3.747   5.778  1.6732  0.4327 -0.2243
    5DT     C2'  155   1.928   3.575   5.678  0.7708 -0.5479  0.3703
    5DT    H2'1  156   1.908   3.544   5.781  0.1005 -1.6229 -0.0709
    5DT    H2'2  157   1.831   3.601   5.637  1.7487  3.8457  0.2932
    5DT     O3'  158   2.035   3.783   5.575 -0.1166 -0.8921 -0.1352
    6DT       P  159   1.913   3.890   5.550  0.0137 -0.4984 -0.2176
    6DT     O1P  160   1.964   3.978   5.441 -0.7618  0.0445 -0.6727
    6DT     O2P  161   1.878   3.944   5.684  0.3586 -0.9947 -0.1159
    6DT     O5'  162   1.790   3.805   5.490 -0.9146  0.3596 -0.1840
    6DT     C5'  163   1.804   3.744   5.367 -0.5661 -0.0842  0.0709
    6DT    H5'1  164   1.904   3.703   5.353 -0.9748 -0.2739 -3.0979
    6DT    H5'2  165   1.793   3.820   5.289 -1.1590 -0.7328 -0.5006
    6DT     C4'  166   1.696   3.635   5.342  0.4025  0.6893 -0.3375
    6DT     H4'  167   1.698   3.598   5.239 -0.4191  0.7325 -0.3775
    6DT     O4'  168   1.711   3.524   5.428  0.7474  0.1620 -0.4569
    6DT     C1'  169   1.578   3.494   5.469  0.5274  0.4475 -0.3187
    6DT     H1'  170   1.537   3.438   5.384 -0.3715 -0.3175  0.5887
    6DT      N1  171   1.583   3.398   5.587  0.0026  0.1070 -0.0882
    6DT      C6  172   1.605   3.440   5.716 -0.0508 -0.3929 -0.3017
    6DT      H6  173   1.628   3.542   5.741 -2.0916 -0.2791  1.4341
    6DT      C5  174   1.597   3.356   5.822 -0.2758  0.5025 -0.8452
    6DT      C7  175   1.622   3.416   5.957 -0.4846  0.1247 -0.1917
    6DT     H71  176   1.533   3.449   6.009  0.7639  0.3641  1.8943
    6DT     H72  177   1.651   3.339   6.028  0.5356  2.1208  1.6800
    6DT     H73  178   1.708   3.484   5.962  0.4297 -0.7395 -2.6590
    6DT      C4  179   1.576   3.212   5.802  1.1739  0.5456  0.0781
    6DT      O4  180   1.580   3.116   5.885 -0.0430  0.1524  0.5432
    6DT      N3  181   1.559   3.173   5.671  0.0234 -0.2468 -0.0649
    6DT      H3  182   1.535   3.079   5.644 -0.6988  0.5783 -2.5065
    6DT      C2  183   1.568   3.262   5.564 -0.0533  0.0436  0.1983
    6DT      O2  184   1.560   3.208   5.459 -0.1304  0.3255 -0.3063
    6DT     C3'  185   1.552   3.686   5.367 -0.6831 -0.2366  0.5162
    6DT     H3'  186   1.550   3.795   5.371 -1.1620 -0.1420 -1.2696
    6DT     C2'  187   1.507   3.626   5.496 -1.1643  0.2183  0.4215
    6DT    H2'1  188   1.556   3.679   5.577  0.7175 -0.0043 -0.5296
    6DT    H2'2  189   1.399   3.612   5.508 -1.3521  0.6371 -0.5986
    6DT     O3'  190   1.462   3.635   5.269 -0.5185  0.3033  0.5436
    7DT       P  191   1.337   3.728   5.217 -0.3772 -0.3444  0.2058
    7DT     O1P  192   1.300   3.824   5.327 -0.3505 -0.1805  0.3118
    7DT     O2P  193   1.233   3.641   5.171 -0.2891 -0.1081  0.1242
    7DT     O5'  194   1.379   3.811   5.093 -0.1630  0.3609  0.1938
    7DT     C5'  195   1.450   3.932   5.102  0.5176 -0.2561 -0.0080
    7DT    H5'1  196   1.486   3.952   5.203 -1.2084  1.2488  0.3632
    7DT    H5'2  197   1.382   4.007   5.062  1.3231 -0.8831 -2.7928
    7DT     C4'  198   1.566   3.937   5.010  0.2416 -0.1499 -0.3822
    7DT     H4'  199   1.616   4.034   5.015 -1.9718  0.9882  1.0600
    7DT     O4'  200   1.646   3.825   5.057 -0.9011  0.2425  0.4556
    7DT     C1'  201   1.707   3.767   4.946 -0.3842 -0.5973 -0.0193
    7DT     H1'  202   1.798   3.820   4.918 -0.4692 -1.3747 -1.9077
    7DT      N1  203   1.748   3.628   4.988 -0.1387 -0.0823  0.0100
    7DT      C6  204   1.654   3.536   5.025  0.7646  0.0214 -0.0310
    7DT      H6  205   1.553   3.573   5.036  1.2912  2.3851 -2.2329
    7DT      C5  206   1.686   3.410   5.051 -0.2682 -0.8240 -0.4930
    7DT      C7  207   1.578   3.312   5.087 -0.0410  0.1382 -0.1820
    7DT     H71  208   1.564   3.235   5.011 -2.4850 -2.4079  2.6006
    7DT     H72  209   1.597   3.261   5.181  0.3628 -2.5441 -1.6289
    7DT     H73  210   1.482   3.362   5.100 -0.3354 -0.2100 -0.9352
    7DT      C4  211   1.815   3.359   5.007  0.2030  0.5838  0.0880
    7DT      O4  212   1.846   3.238   5.019  0.3088 -0.4005  0.5530
    7DT      N3  213   1.909   3.452   4.968  0.1038  0.2212  0.2599
    7DT      H3  214   2.007   3.429   4.965 -0.0713 -0.4235 -1.6769
    7DT      C2  215   1.879   3.584   4.955  0.8280 -0.5485  0.8097
    7DT      O2  216   1.968   3.660   4.912  0.6079  0.1922  0.2043
    7DT     C3'  217   1.543   3.911   4.865 -0.1869  0.2514  0.3099
    7DT     H3'  218   1.437   3.926   4.845  0.0521 -0.9918 -2.4212
    7DT     C2'  219   1.599   3.772   4.843  0.7215 -0.4191 -0.5331
    7DT    H2'1  220   1.523   3.699   4.870  1.2790 -1.2214 -1.1003
    7DT    H2'2  221   1.638   3.753   4.743  0.6930 -0.7917 -0.4750
    7DT     O3'  222   1.633   3.991   4.784 -0.1326  0.2144 -0.1094
    8DT       P  223   1.616   4.014   4.622 -0.1699  0.0179 -0.2092
    8DT     O1P  224   1.693   4.133   4.589  0.8905 -0.7531  0.0020
    8DT     O2P  225   1.472   4.022   4.586  0.0641  0.1641  0.2333
    8DT     O5'  226   1.688   3.897   4.553  0.1681  0.3852  0.3827
    8DT     C5'  227   1.837   3.905   4.537  1.1865  0.4466 -0.3405
    8DT    H5'1  228   1.886   3.939   4.628  0.8470 -1.3297  0.5414
    8DT    H5'2  229   1.868   3.965   4.451  1.3360 -0.8117 -1.1880
    8DT     C4'  230   1.883   3.764   4.519 -0.2870  0.4930  0.1671
    8DT     H4'  231   1.991   3.772   4.532 -0.3022  1.9347 -0.4416
    8DT     O4'  232   1.825   3.667   4.611  0.1831  0.3992 -0.5764
    8DT     C1'  233   1.793   3.547   4.546  0.2646 -0.1926 -0.1890
    8DT     H1'  234   1.882   3.486   4.531  2.0796  2.4702 -0.8808
    8DT      N1  235   1.698   3.470   4.631  0.6512 -0.7916 -0.2743
    8DT      C6  236   1.566   3.513   4.636 -0.4424  0.5561 -1.0004
    8DT      H6  237   1.539   3.611   4.600  0.9038  1.9095  1.4215
    8DT      C5  238   1.464   3.429   4.683 -0.0646 -0.9764 -0.0723
    8DT      C7  239   1.318   3.473   4.673 -0.5755 -0.3980 -0.2202
    8DT     H71  240   1.253   3.387   4.654 -0.3654 -0.3791 -1.0423
    8DT     H72  241   1.289   3.507   4.773  0.1762 -3.8292  1.3194
    8DT     H73  242   1.301   3.563   4.615 -0.0906  0.6273  1.1848
    8DT      C4  243   1.495   3.297   4.719  0.2466  0.3139 -0.1090
    8DT      O4  244   1.412   3.210   4.745 -0.3746 -0.0589 -0.5292
    8DT      N3  245   1.627   3.255   4.712 -0.3393  0.2995  0.5370
    8DT      H3  246   1.658   3.163   4.738 -0.8895  0.6649  2.7375
    8DT      C2  247   1.731   3.336   4.670  0.1315  0.7253  0.3033
    8DT      O2  248   1.848   3.295   4.654  0.7029 -0.0880  0.3280
    8DT     C3'  249   1.862   3.688   4.382 -0.1557 -0.2746  0.2898
    8DT     H3'  250   1.820   3.755   4.307  0.3233  1.4985  1.5256
    8DT     C2'  251   1.753   3.586   4.402  0.3068 -0.2156 -0.8575
    8DT    H2'1  252   1.654   3.630   4.399  1.1126  1.6710 -1.4248
    8DT    H2'2  253   1.747   3.501   4.334  0.7669 -0.4851 -0.5716
    8DT     O3'  254   1.981   3.630   4.336 -0.3621 -0.0264  0.1594
    9DT       P  255   2.023   3.583   4.195 -0.4846  0.7781  0.5066
    9DT     O1P  256   2.171   3.557   4.196  0.6990 -0.4571  0.0227
    9DT     O2P  257   1.969   3.676   4.092  0.6492 -0.1642  0.1233
    9DT     O5'  258   1.948   3.447   4.165 -0.7752  0.3043 -0.0151
    9DT     C5'  259   2.003   3.326   4.225 -0.4023  0.6850 -0.4031
    9DT    H5'1  260   2.032   3.346   4.328 -0.9168 -0.4529 -0.0134
    9DT    H5'2  261   2.096   3.289   4.181  0.4633  2.4956 -0.1664
    9DT     C4'  262   1.895   3.219   4.213  0.8119 -0.0019 -0.5967
    9DT     H4'  263   1.929   3.124   4.256 -2.2551  0.2675  2.9551
    9DT     O4'  264   1.782   3.253   4.298 -0.0952  0.3741  0.3591
    9DT     C1'  265   1.674   3.202   4.226  0.2918  0.7002 -0.3609
    9DT     H1'  266   1.685   3.094   4.217 -1.0688  0.6239 -1.3457
    9DT      N1  267   1.548   3.235   4.292  0.7390  0.2631 -0.8139
    9DT      C6  268   1.469   3.339   4.261  0.5209  0.1565 -0.1176
    9DT      H6  269   1.502   3.416   4.193 -0.1412 -0.0346 -0.6760
    9DT      C5  270   1.348   3.364   4.325 -0.1085  0.1858 -0.0226
    9DT      C7  271   1.273   3.491   4.298 -0.0686  0.7204  0.2746
    9DT     H71  272   1.322   3.536   4.212 -0.2810 -3.0445 -2.0128
    9DT     H72  273   1.173   3.464   4.264 -0.8350  0.1464  2.7530
    9DT     H73  274   1.269   3.556   4.385 -1.2760  0.0583  0.7443
    9DT      C4  275   1.296   3.263   4.417 -1.0293  0.3961  0.1573
    9DT      O4  276   1.187   3.262   4.471  0.0690 -0.0979  0.2929
    9DT      N3  277   1.377   3.152   4.436 -0.2104  0.0182  0.7400
    9DT      H3  278   1.348   3.079   4.499 -1.0983 -1.8842 -1.6890
    9DT      C2  279   1.504   3.138   4.385  0.3675 -1.1725  0.3893
    9DT      O2  280   1.573   3.040   4.414 -0.5520  0.3879 -0.0067
    9DT     C3'  281   1.850   3.208   4.069 -0.2505 -0.4051 -0.6330
    9DT     H3'  282   1.916   3.257   3.997  1.9303 -1.5908  0.4474
    9DT     C2'  283   1.707   3.265   4.091  0.5232 -0.1654 -0.0866
    9DT    H2'1  284   1.710   3.374   4.094 -1.5342 -0.0985  0.9592
    9DT    H2'2  285   1.636   3.222   4.020  2.1053 -2.4689 -0.4210
    9DT     O3'  286   1.866   3.066   4.046 -1.2775 -0.6711  0.9372
   10DT       P  287   1.795   2.988   3.928 -0.2616 -0.1400 -0.3573
   10DT     O1P  288   1.885   2.879   3.892 -0.2339 -0.3634 -0.4327
   10DT     O2P  289   1.756   3.083   3.822 -0.3674 -0.1759  0.0925
   10DT     O5'  290   1.661   2.926   3.986  0.1152 -0.0376  0.1169
   10DT     C5'  291   1.662   2.834   4.102 -0.1701  0.0844 -0.3207
   10DT    H5'1  292   1.694   2.895   4.186 -1.6747 -1.4535  1.4628
   10DT    H5'2  293   1.729   2.750   4.087 -0.0862  0.0667  0.1394
   10DT     C4'  294   1.522   2.774   4.144 -0.5050 -0.7732  0.8830
   10DT     H4'  295   1.533   2.706   4.228  1.3935 -0.6832  0.7408
   10DT     O4'  296   1.449   2.890   4.172 -0.0153  0.4415 -0.3441
   10DT     C1'  297   1.332   2.880   4.105  0.5738 -0.7037 -0.2187
   10DT     H1'  298   1.274   2.803   4.156  0.3655 -0.4298 -0.0346
   10DT      N1  299   1.258   3.008   4.096  0.5542 -0.4706 -0.7975
   10DT      C6  300   1.303   3.111   4.013 -0.0924  0.0554 -0.7020
   10DT      H6  301   1.399   3.103   3.964  0.0297 -1.9191 -0.2308
   10DT      C5  302   1.226   3.224   4.002 -0.0486 -0.5091 -0.2683
   10DT      C7  303   1.277   3.333   3.907 -0.1310 -0.6803  0.0832
   10DT     H71  304   1.323   3.415   3.962 -4.3972  2.8346 -1.0252
   10DT     H72  305   1.348   3.292   3.836 -1.0852 -0.0236 -1.2917
   10DT     H73  306   1.198   3.381   3.849  0.2185 -0.1328  0.0639
   10DT      C4  307   1.097   3.237   4.072  0.0564 -0.4703  0.4696
   10DT      O4  308   1.016   3.330   4.062  0.0560 -0.1711  0.3669
   10DT      N3  309   1.060   3.134   4.151 -0.1646 -0.3786  0.0005
   10DT      H3  310   0.965   3.135   4.183 -1.5144 -2.8951 -3.2857
   10DT      C2  311   1.135   3.020   4.173 -0.1805  0.6217  0.0601
   10DT      O2  312   1.092   2.937   4.252 -0.6080  0.3319 -0.4161
   10DT     C3'  313   1.466   2.709   4.017  0.3563  0.5971  0.1068
   10DT     H3'  314   1.546   2.691   3.946  0.6403 -2.3634  1.0406
   10DT     C2'  315   1.369   2.825   3.969  0.4794  0.6062 -0.7428
   10DT    H2'1  316   1.424   2.899   3.911 -0.4632  1.0421 -1.1094
   10DT    H2'2  317   1.278   2.789   3.920  1.3315 -1.2363 -1.0464
   10DT     O3'  318   1.400   2.594   4.061 -0.3151  0.1677  0.1884
   11DT       P  319   1.314   2.497   3.975  0.2943 -0.1906 -0.0546
   11DT     O1P  320   1.301   2.371   4.050 -0.6756 -0.0270 -0.6782
   11DT     O2P  321   1.355   2.492   3.833  0.4430  0.1064 -0.0706
   11DT     O5'  322   1.163   2.558   3.978 -0.7663  1.2202 -0.2106
   11DT     C5'  323   1.064   2.537   4.078  0.5471 -0.1828 -0.7558
   11DT    H5'1  324   1.110   2.566   4.173 -1.4857 -1.0085  0.5567
   11DT    H5'2  325   1.043   2.430   4.086  3.1105 -0.9251 -2.5164
   11DT     C4'  326   0.932   2.616   4.068 -0.0564  0.5218  1.0971
   11DT     H4'  327   0.887   2.614   4.168  0.4177  3.4569  1.4521
   11DT     O4'  328   0.963   2.750   4.040  0.4605  0.7510  0.6440
   11DT     C1'  329   0.864   2.811   3.961  1.3672  0.4517 -0.6701
   11DT     H1'  330   0.771   2.832   4.015 -0.3450 -0.7850 -2.9672
   11DT      N1  331   0.919   2.933   3.894 -0.1621 -0.0548 -0.4424
   11DT      C6  332   1.026   2.924   3.812  0.0371 -0.3478  0.5575
   11DT      H6  333   1.083   2.833   3.800  2.6547  1.4512 -2.0877
   11DT      C5  334   1.071   3.031   3.741 -0.2503  0.0160  0.4576
   11DT      C7  335   1.194   3.020   3.652 -0.1326  0.3550  1.2256
   11DT     H71  336   1.193   3.094   3.572 -0.6196 -0.7275  0.1975
   11DT     H72  337   1.280   3.047   3.712  0.1256 -0.9622  1.4882
   11DT     H73  338   1.209   2.924   3.603 -0.6201  0.6886  0.3907
   11DT      C4  339   1.001   3.160   3.750  0.4548  0.1685  0.2753
   11DT      O4  340   1.023   3.267   3.693 -0.4976  0.5460 -0.5176
   11DT      N3  341   0.896   3.164   3.835  0.4303  0.1184  0.3780
   11DT      H3  342   0.838   3.246   3.842 -1.8092 -1.0151 -2.5665
   11DT      C2  343   0.860   3.055   3.913  0.1722  0.3228 -0.8307
   11DT      O2  344   0.761   3.065   3.990  0.2402  0.2387 -0.0986
   11DT     C3'  345   0.835   2.569   3.963 -0.4246 -0.7112  0.6162
   11DT     H3'  346   0.876   2.480   3.916  2.5151  0.8052  0.1058
   11DT     C2'  347   0.830   2.695   3.868  0.1308 -0.0333 -0.4420
   11DT    H2'1  348   0.897   2.686   3.783 -1.3018 -3.1799 -1.4045
   11DT    H2'2  349   0.728   2.710   3.833  0.2530  0.0463 -0.7653
   11DT     O3'  350   0.710   2.536   4.019 -0.1610 -0.1198  0.1999
   12DT       P  351   0.585   2.500   3.932 -0.2627 -0.1836  0.0329
   12DT     O1P  352   0.498   2.425   4.021 -0.2588  0.1383 -0.3754
   12DT     O2P  353   0.631   2.428   3.812 -0.2582 -0.4288 -0.2224
   12DT     O5'  354   0.517   2.635   3.886  0.1948  0.1510  0.1531
   12DT     C5'  355   0.436   2.707   3.977 -0.1824 -0.1440  0.5997
   12DT    H5'1  356   0.513   2.732   4.050 -0.3429 -1.8601  1.3940
   12DT    H5'2  357   0.363   2.642   4.025 -0.2552 -0.5860 -0.1016
   12DT     C4'  358   0.366   2.827   3.916 -0.9514  0.0493 -0.0211
   12DT     H4'  359   0.322   2.876   4.003  0.0135  1.9106 -0.5461
   12DT     O4'  360   0.459   2.922   3.876 -0.3291  0.4327  0.0717
   12DT     C1'  361   0.430   2.953   3.743  0.4085 -0.1784  1.0813
   12DT     H1'  362   0.363   3.039   3.740 -0.8842 -1.1573  0.4345
   12DT      N1  363   0.561   2.967   3.673 -0.0028 -0.2376  0.3804
   12DT      C6  364   0.633   2.866   3.626  0.0856 -0.3328  0.3969
   12DT      H6  365   0.608   2.763   3.642  0.5844 -0.7948 -1.5204
   12DT      C5  366   0.742   2.887   3.551  0.1419  0.0784 -0.0647
   12DT      C7  367   0.831   2.772   3.511 -0.2936 -0.3693  0.6316
   12DT     H71  368   0.925   2.775   3.567 -0.7698 -0.1931  1.4303
   12DT     H72  369   0.781   2.678   3.530  0.0898 -0.8875 -0.7692
   12DT     H73  370   0.841   2.780   3.403 -1.4920  2.4410  0.6421
   12DT      C4  371   0.781   3.025   3.508  0.1902 -0.5214  0.2747
   12DT      O4  372   0.870   3.054   3.431 -0.7252 -0.3090 -0.1646
   12DT      N3  373   0.705   3.130   3.567 -0.2987  0.0909 -0.6654
   12DT      H3  374   0.732   3.224   3.544 -1.0092 -0.2581 -3.2309
   12DT      C2  375   0.595   3.102   3.643  0.2118  0.8927  0.1619
   12DT      O2  376   0.523   3.202   3.658  0.3162 -0.0003 -0.1923
   12DT     C3'  377   0.259   2.807   3.801 -0.5650  0.7434 -0.1460
   12DT     H3'  378   0.232   2.702   3.787  1.5988  0.3823 -2.1784
   12DT     C2'  379   0.341   2.850   3.677 -0.3111  0.2013  0.0416
   12DT    H2'1  380   0.396   2.767   3.634 -0.8439 -0.0743 -0.1254
   12DT    H2'2  381   0.276   2.899   3.605  0.6954  1.8796  0.2407
   12DT     O3'  382   0.151   2.889   3.832 -0.5445  0.0272 -0.2927
   13DT       P  383   0.021   2.894   3.738 -0.2831  0.0953 -0.3143
   13DT     O1P  384  -0.106   2.936   3.810 -0.0216 -0.4024  0.1562
   13DT     O2P  385   0.018   2.772   3.658 -0.1129  0.0039  0.2713
   13DT     O5'  386   0.063   3.011   3.642  0.0025 -0.1611  0.0248
   13DT     C5'  387   0.077   3.145   3.686  0.0332  0.4184 -0.3008
   13DT    H5'1  388   0.153   3.149   3.764 -0.4211 -1.9198  0.3368
   13DT    H5'2  389  -0.019   3.172   3.731 -0.3194 -1.4199  0.1196
   13DT     C4'  390   0.119   3.245   3.578 -0.0969  0.0330 -0.3033
   13DT     H4'  391   0.101   3.346   3.617 -0.8821 -0.0348 -0.4686
   13DT     O4'  392   0.256   3.221   3.543  0.1886 -0.0053 -0.2135
   13DT     C1'  393   0.275   3.243   3.402 -0.9954 -0.3965  0.5223
   13DT     H1'  394   0.321   3.341   3.393  0.1207 -1.0276 -1.0294
   13DT      N1  395   0.367   3.146   3.343  0.0720 -0.9394  0.4377
   13DT      C6  396   0.346   3.015   3.358 -0.6127  0.7840 -0.0167
   13DT      H6  397   0.253   2.973   3.393 -0.4707 -0.6242 -1.2465
   13DT      C5  398   0.440   2.921   3.323  0.4168  0.3795  0.2400
   13DT      C7  399   0.420   2.773   3.344  0.0934 -0.2494 -0.3354
   13DT     H71  400   0.425   2.724   3.247  1.8755  0.6230 -0.7245
   13DT     H72  401   0.502   2.735   3.406  0.8946  2.9043  0.7743
   13DT     H73  402   0.320   2.756   3.384 -0.5814 -1.0115 -2.2586
   13DT      C4  403   0.563   2.964   3.264  0.2960 -0.5995 -0.0873
   13DT      O4  404   0.651   2.890   3.223 -0.2712  0.4156  0.6182
   13DT      N3  405   0.575   3.103   3.250  0.0516  0.3660 -0.6599
   13DT      H3  406   0.665   3.131   3.213 -0.0531  0.1671 -1.0660
   13DT      C2  407   0.483   3.198   3.283 -0.4856 -0.1505 -0.2562
   13DT      O2  408   0.510   3.316   3.265  0.3225 -0.1404 -0.1280
   13DT     C3'  409   0.045   3.238   3.445  1.0892  0.3237  0.6157
   13DT     H3'  410   0.002   3.139   3.433 -0.1392  0.9535 -0.5766
   13DT     C2'  411   0.143   3.259   3.327 -0.1361  0.1508 -0.4116
   13DT    H2'1  412   0.123   3.183   3.251  1.3268 -0.3464 -0.3207
   13DT    H2'2  413   0.122   3.354   3.276 -1.6182 -0.7937 -1.6660
   13DT     O3'  414  -0.063   3.334   3.441 -0.2797  0.0329  0.2938
   14DT       P  415  -0.178   3.351   3.558  0.5132 -0.1028 -0.3277
   14DT     O1P  416  -0.119   3.444   3.657  0.1377  0.3439  0.1654
   14DT     O2P  417  -0.226   3.219   3.601  0.1093 -0.0579  0.1761
   14DT     O5'  418  -0.298   3.420   3.495  0.4146  0.2547  0.5115
   14DT     C5'  419  -0.271   3.539   3.418  0.0586  0.5898 -0.0213
   14DT    H5'1  420  -0.233   3.514   3.320 -1.7287 -1.6434 -0.2371
   14DT    H5'2  421  -0.205   3.604   3.475  0.3388  0.9515 -0.7491
   14DT     C4'  422  -0.391   3.636   3.395 -0.4146  0.4553 -0.7466
   14DT     H4'  423  -0.353   3.716   3.332  0.1756  0.2345 -0.6814
   14DT     O4'  424  -0.489   3.567   3.326  0.1024 -0.1658  0.0104
   14DT     C1'  425  -0.611   3.622   3.369  0.6535 -0.7747  0.3778
   14DT     H1'  426  -0.623   3.724   3.333 -0.0861 -1.3675 -1.1015
   14DT      N1  427  -0.725   3.532   3.322 -0.4840 -0.4583 -0.8220
   14DT      C6  428  -0.749   3.409   3.387 -0.2668 -0.1090  0.8994
   14DT      H6  429  -0.677   3.377   3.460  2.3058  1.0692 -0.9531
   14DT      C5  430  -0.853   3.332   3.345  0.1193  0.3443  0.7731
   14DT      C7  431  -0.867   3.198   3.414  0.1590  0.0370  0.8590
   14DT     H71  432  -0.800   3.123   3.369  0.6128  1.9175 -1.8815
   14DT     H72  433  -0.832   3.199   3.517  0.7368 -1.4929  0.7080
   14DT     H73  434  -0.972   3.169   3.415  0.4905 -2.0276 -2.8516
   14DT      C4  435  -0.939   3.363   3.231  0.1183  0.9161  0.2647
   14DT      O4  436  -1.038   3.311   3.184  0.5368  0.3242  0.3212
   14DT      N3  437  -0.906   3.490   3.180  0.0257 -0.1574 -0.0961
   14DT      H3  438  -0.952   3.524   3.097 -0.8677  0.1013  0.4793
   14DT      C2  439  -0.814   3.582   3.223 -0.1805  0.2754  0.5260
   14DT      O2  440  -0.795   3.684   3.158 -0.1280 -0.0682 -0.4986
   14DT     C3'  441  -0.462   3.696   3.522 -0.0338  0.2884  0.4943
   14DT     H3'  442  -0.402   3.666   3.608 -0.3077 -2.4894 -0.1728
   14DT     C2'  443  -0.598   3.630   3.521 -0.3822  0.5506  0.0061
   14DT    H2'1  444  -0.605   3.536   3.575  0.3197  1.2034  1.2940
   14DT    H2'2  445  -0.682   3.679   3.571 -0.7715 -0.0632 -0.0339
   14DT     O3'  446  -0.467   3.841   3.512  0.4843  0.0975  0.1901
   15DT       P  447  -0.524   3.926   3.634 -0.2070 -0.0824 -0.4950
   15DT     O1P  448  -0.449   4.052   3.646 -0.6156  0.1523 -0.3204
   15DT     O2P  449  -0.548   3.844   3.754 -0.2966  0.4752  0.1001
   15DT     O5'  450  -0.676   3.955   3.575  0.1381 -0.4058  0.1516
   15DT     C5'  451  -0.694   4.015   3.451 -0.6690 -0.2087 -0.1613
   15DT    H5'1  452  -0.630   3.972   3.375 -0.4091  2.0615 -1.3219
   15DT    H5'2  453  -0.651   4.115   3.458  0.5993 -0.7850  0.5021
   15DT     C4'  454  -0.843   4.027   3.405 -0.1575  0.3289  0.2775
   15DT     H4'  455  -0.841   4.090   3.315  0.0681  0.5633  0.4441
   15DT     O4'  456  -0.885   3.900   3.370  0.5533 -0.6124  0.1513
   15DT     C1'  457  -1.013   3.884   3.423 -0.2157  0.0231 -0.3171
   15DT     H1'  458  -1.089   3.930   3.360 -0.9373  0.8887  1.1404
   15DT      N1  459  -1.046   3.738   3.437  0.0244 -0.0874  0.1125
   15DT      C6  460  -0.991   3.671   3.538 -0.3135  0.3819  0.4713
   15DT      H6  461  -0.915   3.714   3.602 -1.5452  1.9563  0.9466
   15DT      C5  462  -1.033   3.545   3.567 -0.3271  0.1612  0.3690
   15DT      C7  463  -0.981   3.466   3.683  0.3220  0.0376 -0.1663
   15DT     H71  464  -1.055   3.478   3.763  0.1791 -0.7509 -0.1652
   15DT     H72  465  -0.973   3.361   3.656  2.0079 -0.0478  0.5248
   15DT     H73  466  -0.886   3.504   3.720  0.2590  0.2831 -0.2570
   15DT      C4  467  -1.130   3.483   3.476 -0.0826 -0.4143  0.8047
   15DT      O4  468  -1.178   3.371   3.489 -0.6020  0.3646 -0.6047
   15DT      N3  469  -1.170   3.551   3.363 -0.9083  0.2101  0.1666
   15DT      H3  470  -1.225   3.503   3.294  0.6270 -3.4160  1.2430
   15DT      C2  471  -1.136   3.682   3.347  0.7030 -0.4987  0.5804
   15DT      O2  472  -1.183   3.744   3.249 -0.0162 -0.8048 -0.3318
   15DT     C3'  473  -0.935   4.092   3.509 -1.0247 -0.0382 -0.2319
   15DT     H3'  474  -0.874   4.126   3.592  1.6011 -1.5878 -1.4096
   15DT     C2'  475  -1.012   3.962   3.550 -0.4462 -0.1377  0.1396
   15DT    H2'1  476  -0.953   3.913   3.627  1.9715  0.1392 -1.4199
   15DT    H2'2  477  -1.112   3.982   3.588  0.1151 -1.2138  2.3122
   15DT     O3'  478  -1.027   4.187   3.455  0.0132 -0.1419 -0.3014
   16DT       P  479  -1.142   4.256   3.539  0.1587  0.3091  0.3957
   16DT     O1P  480  -1.170   4.381   3.467 -0.0360  0.5776 -0.4192
   16DT     O2P  481  -1.098   4.262   3.683 -0.1224 -0.2431 -0.1254
   16DT     O5'  482  -1.258   4.154   3.505  0.2352 -0.3048 -0.3214
   16DT     C5'  483  -1.321   4.150   3.376 -0.2764 -0.5994  0.3174
   16DT    H5'1  484  -1.256   4.113   3.296 -2.7280 -1.0895 -1.6021
   16DT    H5'2  485  -1.355   4.246   3.337  0.2160 -1.5883 -2.8674
   16DT     C4'  486  -1.434   4.047   3.363  0.2903  0.2395 -0.6418
   16DT     H4'  487  -1.459   4.046   3.257  1.1566 -0.7989 -0.8552
   16DT     O4'  488  -1.403   3.914   3.399 -0.1976  0.1859  0.3991
   16DT     C1'  489  -1.499   3.863   3.496 -0.3475 -0.3291 -0.4396
   16DT     H1'  490  -1.577   3.804   3.448  2.0493 -4.1967  0.0529
   16DT      N1  491  -1.426   3.763   3.578 -0.0348  0.4684 -0.2494
   16DT      C6  492  -1.357   3.800   3.686 -0.7307  0.1008  0.3354
   16DT      H6  493  -1.325   3.903   3.691  1.4226 -0.4950 -0.1787
   16DT      C5  494  -1.312   3.702   3.774  0.2710 -0.0057 -0.2892
   16DT      C7  495  -1.218   3.741   3.878  0.1743 -0.4428 -0.8858
   16DT     H71  496  -1.117   3.707   3.855  1.4453 -0.1011  3.3108
   16DT     H72  497  -1.203   3.849   3.880 -1.7120 -0.1237  2.4128
   16DT     H73  498  -1.253   3.709   3.976  1.0892  1.6709  0.2165
   16DT      C4  499  -1.349   3.562   3.750  0.4727 -0.2980  0.0992
   16DT      O4  500  -1.320   3.465   3.820 -0.4201 -0.0771 -0.1187
   16DT      N3  501  -1.423   3.538   3.638 -0.1878  0.0904 -0.4822
   16DT      H3  502  -1.455   3.445   3.612 -0.3677  0.0196 -0.0128
   16DT      C2  503  -1.456   3.631   3.544 -0.2159  1.0157 -0.5281
   16DT      O2  504  -1.500   3.592   3.436 -0.0796 -0.2662  0.3911
   16DT     C3'  505  -1.552   4.081   3.450  0.4153  0.2488 -0.0460
   16DT     H3'  506  -1.559   4.187   3.473 -1.8397  0.3628 -0.9576
   16DT     C2'  507  -1.549   3.986   3.569 -0.6650  1.5575  0.6782
   16DT    H2'1  508  -1.477   4.020   3.643  0.3899 -2.3100  1.6488
   16DT    H2'2  509  -1.650   3.972   3.607 -0.0373 -0.3639  1.7777
   16DT     O3'  510  -1.676   4.063   3.371  0.1279 -0.0548 -0.2274
   17DT       P  511  -1.830   4.079   3.427  0.0741  0.2551 -0.0747
   17DT     O1P  512  -1.915   4.092   3.307 -0.2131  0.0992 -0.0677
   17DT     O2P  513  -1.835   4.194   3.520 -0.4392  0.8968 -0.3265
   17DT     O5'  514  -1.866   3.946   3.504  0.0544  1.0264 -0.2203
   17DT     C5'  515  -1.865   3.827   3.429  0.4484  0.3308 -0.2061
   17DT    H5'1  516  -1.780   3.824   3.361  0.4140 -1.4749 -0.1935
   17DT    H5'2  517  -1.960   3.827   3.374 -0.3817  0.0913  1.1824
   17DT     C4'  518  -1.876   3.695   3.505  0.1799  0.2534 -0.3167
   17DT     H4'  519  -1.886   3.613   3.434  2.3576  1.7498 -2.5010
   17DT     O4'  520  -1.758   3.673   3.584  0.0145  0.7326  0.0632
   17DT     C1'  521  -1.798   3.583   3.690 -0.0064  0.5512  0.9227
   17DT     H1'  522  -1.790   3.479   3.658 -3.7467  0.8724 -1.5998
   17DT      N1  523  -1.717   3.621   3.806 -0.4104  0.4811 -0.0044
   17DT      C6  524  -1.707   3.744   3.858  0.1197 -0.7288 -0.0312
   17DT      H6  525  -1.780   3.812   3.816 -1.4118 -2.1006  0.3218
   17DT      C5  526  -1.626   3.786   3.954 -0.0424 -0.4625 -0.6865
   17DT      C7  527  -1.626   3.931   3.989  0.3889  0.8205 -0.2774
   17DT     H71  528  -1.659   3.995   3.907 -0.4858 -0.2007 -0.7465
   17DT     H72  529  -1.689   3.944   4.077 -0.1463  0.8627 -0.6596
   17DT     H73  530  -1.522   3.954   4.013  1.0186 -1.7249 -0.3368
   17DT      C4  531  -1.537   3.687   4.018  0.6544  0.2979 -0.0851
   17DT      O4  532  -1.480   3.699   4.126  0.2847  0.3619 -0.4627
   17DT      N3  533  -1.551   3.557   3.963  0.2493 -0.2040  0.0280
   17DT      H3  534  -1.485   3.489   3.997  0.7007 -0.6910 -1.7106
   17DT      C2  535  -1.637   3.521   3.861  0.1915  0.2393  0.0666
   17DT      O2  536  -1.636   3.401   3.829  0.3761 -0.1835  0.0734
   17DT     C3'  537  -1.996   3.679   3.600  0.1716 -0.9118 -0.2479
   17DT     H3'  538  -2.039   3.774   3.633 -0.2446 -1.6473  1.4356
   17DT     C2'  539  -1.940   3.610   3.720  0.4283  0.5636 -0.9883
   17DT    H2'1  540  -1.938   3.675   3.807 -0.7046  1.1278 -1.3582
   17DT    H2'2  541  -1.990   3.515   3.738  1.3638 -0.0018 -1.3200
   17DT     O3'  542  -2.100   3.613   3.523  0.0662  0.0494  0.0347
   18DT       P  543  -2.219   3.542   3.593  0.2552  0.4944  0.5929
   18DT     O1P  544  -2.332   3.539   3.502 -0.0754  0.4847 -0.6709
   18DT     O2P  545  -2.222   3.601   3.732 -0.1203 -0.2076 -0.2519
   18DT     O5'  546  -2.154   3.393   3.601 -0.1155 -0.6121  0.3115
   18DT     C5'  547  -2.137   3.314   3.480  0.1740 -0.3396  0.1081
   18DT    H5'1  548  -2.077   3.383   3.420  2.1185 -1.0053  1.2009
   18DT    H5'2  549  -2.233   3.291   3.434  0.1637  0.2833 -0.2012
   18DT     C4'  550  -2.065   3.176   3.501  0.1219  0.0858 -0.2823
   18DT     H4'  551  -2.025   3.139   3.406  2.4148 -0.4099  0.8091
   18DT     O4'  552  -1.950   3.197   3.591 -0.0864  0.1383 -0.2143
   18DT     C1'  553  -1.960   3.115   3.699  0.4813  0.8253 -1.1372
   18DT     H1'  554  -1.913   3.022   3.668  1.6213  1.3534 -1.0414
   18DT      N1  555  -1.902   3.183   3.820  0.4558  0.4739 -0.0586
   18DT      C6  556  -1.968   3.285   3.877 -0.0054 -0.5197 -0.7344
   18DT      H6  557  -2.060   3.319   3.832 -0.1896 -0.9145 -0.6584
   18DT      C5  558  -1.920   3.342   3.993 -0.1442 -0.4128  0.2542
   18DT      C7  559  -1.995   3.458   4.063  0.3464  0.2198  0.2241
   18DT     H71  560  -1.944   3.552   4.042  1.0717 -0.2053  0.0616
   18DT     H72  561  -2.094   3.469   4.019  1.1772  2.5458 -1.2278
   18DT     H73  562  -2.010   3.430   4.168  0.1052  0.5534  0.2803
   18DT      C4  563  -1.797   3.298   4.060 -0.0276  0.4584 -0.0912
   18DT      O4  564  -1.738   3.338   4.160 -0.5711 -0.3134 -0.0098
   18DT      N3  565  -1.738   3.189   4.002 -0.1007  0.2396 -0.6827
   18DT      H3  566  -1.660   3.137   4.040  1.0781  0.4179 -2.7475
   18DT      C2  567  -1.790   3.127   3.886  0.0299 -0.1136  0.5048
   18DT      O2  568  -1.728   3.033   3.835  0.3074  0.7758 -0.0387
   18DT     C3'  569  -2.156   3.074   3.574 -0.0606 -0.0696  0.2455
   18DT     H3'  570  -2.259   3.108   3.566 -0.2327 -0.4747  0.7343
   18DT     C2'  571  -2.114   3.081   3.717 -0.1560  0.5031 -0.4747
   18DT    H2'1  572  -2.174   3.148   3.780 -3.7596 -1.6482 -1.3285
   18DT    H2'2  573  -2.134   2.982   3.758 -0.4085  0.5165 -0.5654
   18DT     O3'  574  -2.133   2.954   3.516  0.0904  0.0138  0.2109
   19DT       P  575  -2.221   2.892   3.397  0.1785  0.0081  0.5791
   19DT     O1P  576  -2.359   2.880   3.446  0.0648 -0.1124  0.1240
   19DT     O2P  577  -2.156   2.768   3.342 -0.8923 -0.0026 -0.5400
   19DT     O5'  578  -2.224   3.000   3.282  0.0090 -0.2551  0.1173
   19DT     C5'  579  -2.153   2.988   3.155  0.2815  0.1915 -0.1929
   19DT    H5'1  580  -2.216   2.922   3.096 -1.7421  0.2157  1.8129
   19DT    H5'2  581  -2.061   2.933   3.174  0.4050 -0.4405 -2.3869
   19DT     C4'  582  -2.105   3.118   3.089  0.0155  0.1137 -0.1738
   19DT     H4'  583  -2.200   3.160   3.055 -0.4349 -0.3314  0.5161
   19DT     O4'  584  -2.041   3.209   3.174  0.1808  0.0466  0.0427
   19DT     C1'  585  -1.906   3.226   3.128 -0.2024  0.1274  0.6063
   19DT     H1'  586  -1.898   3.310   3.059  2.0629 -0.2072  0.3871
   19DT      N1  587  -1.815   3.247   3.240  0.2414  0.3359 -0.0011
   19DT      C6  588  -1.774   3.136   3.314  0.0839  0.4311  1.2610
   19DT      H6  589  -1.827   3.047   3.283  1.3944 -0.0861  0.4371
   19DT      C5  590  -1.683   3.147   3.411  0.0360 -0.5366 -0.0147
   19DT      C7  591  -1.659   3.029   3.494 -0.3829 -0.1029  0.0503
   19DT     H71  592  -1.687   3.059   3.595  0.2758 -1.4418  0.6453
   19DT     H72  593  -1.712   2.939   3.463  1.9089 -1.8114  0.8004
   19DT     H73  594  -1.552   3.010   3.484 -0.2603  1.3387 -2.2053
   19DT      C4  595  -1.622   3.276   3.446  0.2522  0.8847  1.0336
   19DT      O4  596  -1.525   3.297   3.519  0.0151 -0.4975  0.4948
   19DT      N3  597  -1.668   3.377   3.369 -0.0022  0.5919  0.5160
   19DT      H3  598  -1.633   3.470   3.387 -0.5570  0.8334  0.3581
   19DT      C2  599  -1.760   3.374   3.268  0.5328  0.3447 -0.0320
   19DT      O2  600  -1.798   3.473   3.213  0.4489  0.0258 -0.1716
   19DT     C3'  601  -2.006   3.096   2.970  0.9389 -0.2937 -0.6823
   19DT     H3'  602  -2.022   2.996   2.932 -2.8313 -0.3851  0.7174
   19DT     C2'  603  -1.871   3.111   3.029 -0.4445  0.1311  0.5266
   19DT    H2'1  604  -1.836   3.018   3.074 -0.1382 -1.0990 -2.0578
   19DT    H2'2  605  -1.807   3.146   2.948 -1.4830  1.1040  0.0861
   19DT     O3'  606  -2.031   3.201   2.882  0.6229  0.0052  0.1461
   20DT3      P  607  -1.994   3.203   2.736  0.8367 -0.1727 -0.4118
   20DT3    O1P  608  -2.093   3.285   2.666  0.3379 -0.2075 -0.6893
   20DT3    O2P  609  -1.967   3.067   2.694  0.6110 -0.1170  0.5512
   20DT3    O5'  610  -1.854   3.286   2.732  0.3399  0.0621 -0.5259
   20DT3    C5'  611  -1.834   3.413   2.794  0.7627 -0.3992  0.2162
   20DT3   H5'1  612  -1.902   3.435   2.876  1.7838  0.0915  0.9496
   20DT3   H5'2  613  -1.843   3.490   2.717  0.2116 -1.7032 -1.0735
   20DT3    C4'  614  -1.688   3.436   2.846  0.8109 -0.1290  0.2528
   20DT3    H4'  615  -1.681   3.541   2.874 -2.8501  0.7554 -1.4323
   20DT3    O4'  616  -1.659   3.356   2.950 -0.7085  0.1279 -0.3773
   20DT3    C1'  617  -1.515   3.363   2.975  0.3653 -0.3796 -0.2200
   20DT3    H1'  618  -1.495   3.459   3.023 -2.4164  0.1792 -0.0341
   20DT3     N1  619  -1.468   3.261   3.066 -0.1931  0.1598 -0.5867
   20DT3     C6  620  -1.509   3.126   3.063  0.0775  0.0862 -0.0831
   20DT3     H6  621  -1.578   3.089   2.988 -0.5525  1.1283 -0.0243
   20DT3     C5  622  -1.460   3.035   3.154 -0.2273  0.6539  0.2789
   20DT3     C7  623  -1.523   2.895   3.157 -0.2653 -0.2625 -0.0513
   20DT3    H71  624  -1.618   2.900   3.104  0.0135 -1.1064 -0.6483
   20DT3    H72  625  -1.451   2.825   3.113  2.6104  2.7359 -0.4960
   20DT3    H73  626  -1.523   2.865   3.262  0.0049  0.6252  0.2119
   20DT3     C4  627  -1.372   3.072   3.258  0.0259 -0.1483  0.0189
   20DT3     O4  628  -1.322   3.001   3.347  0.0740  0.5036 -0.3784
   20DT3     N3  629  -1.338   3.208   3.259 -0.2546 -0.0654  0.0177
   20DT3     H3  630  -1.277   3.235   3.334  1.2820 -0.9687 -0.8525
   20DT3     C2  631  -1.375   3.300   3.165 -0.6564  0.5572  0.0716
   20DT3     O2  632  -1.326   3.413   3.163 -0.3894 -0.3748 -0.9138
   20DT3    C3'  633  -1.578   3.388   2.750 -0.5650  0.1539 -0.0499
   20DT3    H3'  634  -1.606   3.295   2.700 -1.3642  1.3125 -1.8752
   20DT3    C2'  635  -1.459   3.359   2.840 -0.2745  0.5870 -0.6956
   20DT3   H2'1  636  -1.419   3.259   2.826 -0.6816  0.4614 -0.9669
   20DT3   H2'2  637  -1.383   3.435   2.824 -0.8391  1.0270 -1.3564
   20DT3    O3'  638  -1.555   3.479   2.653  0.0317  0.0923 -0.0353
   20DT3    H3T  639  -1.548   3.563   2.700 -0.6803  0.2242 -0.1569
   21SOL     OW  640   6.600   1.216   3.244 -0.3511 -0.4142  0.3585
   21SOL    HW1  641   6.653   1.193   3.320  1.1767 -0.9900 -0.8179
   21SOL    HW2  642   6.663   1.224   3.172 -1.5698  1.4459 -0.5944
   22SOL     OW  643   2.929   3.904   6.899 -0.6807 -0.0671 -0.1558
   22SOL    HW1  644   2.883   3.841   6.844 -1.0289 -0.2074  0.2955
   22SOL    HW2  645   2.890   3.989   6.876 -1.3731 -0.2210  0.4377
   23SOL     OW  646   8.662   3.133   4.674  0.7156 -0.0395 -0.3788
   23SOL    HW1  647   8.610   3.210   4.697  0.3613 -0.2565 -0.4332
   23SOL    HW2  648   8.598   3.072   4.637  0.6254 -1.1147  1.4213
   24SOL     OW  649   2.391   4.844   6.412 -0.5022 -0.3941 -0.0142
   24SOL    HW1  650   2.356   4.932   6.428  3.0783  1.1520  0.3074
   24SOL    HW2  651   2.399   4.838   6.316 -2.0381 -0.9907 -0.1284
   25SOL     OW  652   7.399   0.543   0.090  0.1135 -0.4736  0.3327
   25SOL    HW1  653   7.455   0.525   0.014  0.4868 -0.0554  0.5097
   25SOL    HW2  654   7.369   0.633   0.078  0.3997 -0.3084  0.8244
   26SOL     OW  655   9.424   1.684   8.796 -0.5223 -0.1134  0.0956
   26SOL    HW1  656   9.514   1.704   8.823  0.0142 -1.4900 -0.5895
   26SOL    HW2  657   9.373   1.759   8.826  0.6066  0.0223  1.7907
   27SOL     OW  658   9.228   4.415   8.309 -0.4499 -0.1911  0.1092
   27SOL    HW1  659   9.249   4.361   8.385 -0.2303 -1.8504 -1.0691
   27SOL    HW2  660   9.189   4.354   8.246  1.5179  0.6022 -2.0324
   28SOL     OW  661   1.739   9.677   8.684 -0.2923 -0.2244 -0.3895
   28SOL    HW1  662   1.692   9.759   8.702 -2.3547 -1.4310  0.0874
   28SOL    HW2  663   1.733   9.666   8.589 -0.9300 -0.3225 -0.3433
   29SOL     OW  664   6.263   5.523   9.820  0.2471 -0.3067 -0.1451
   29SOL    HW1  665   6.338   5.497   9.767 -0.6193 -1.7559 -0.6939
   29SOL    HW2  666   6.287   5.500   9.909  0.5141 -0.6199 -0.2991
   30SOL     OW  667   2.801   9.881   4.748 -0.1537 -0.0293 -0.7634
   30SOL    HW1  668   2.709   9.907   4.737  0.1719  1.2766 -0.4824
   30SOL    HW2  669   2.833   9.934   4.820  0.2709 -1.9639  0.5567
   31SOL     OW  670   2.027   4.165   2.710  0.7352 -0.3205 -0.2078
   31SOL    HW1  671   2.007   4.246   2.664  1.0235 -0.2515 -0.2139
   31SOL    HW2  672   2.073   4.193   2.789  0.6916 -0.4680 -0.1293
   32SOL     OW  673   0.195   9.824   0.805 -0.0268  0.2696  0.4801
   32SOL    HW1  674   0.219   9.771   0.881 -1.0534 -0.4926  0.2986
   32SOL    HW2  675   0.212   9.914   0.832  2.1404 -0.1477  0.6540
   33SOL     OW  676   3.901   3.057   0.142 -0.4837 -0.1517 -0.7485
   33SOL    HW1  677   3.930   3.035   0.054 -1.4358 -1.9889 -0.6652
   33SOL    HW2  678   3.956   3.130   0.169  0.5066 -0.2188 -2.4747
   34SOL     OW  679   0.785   8.701   0.303 -0.0692 -0.0070 -0.5097
   34SOL    HW1  680   0.802   8.660   0.388 -1.3810 -0.8691 -0.6403
   34SOL    HW2  681   0.839   8.652   0.241 -0.3576 -0.4471 -0.4149
   35SOL     OW  682   3.305   3.383   9.463  0.1970  0.0395  0.1744
   35SOL    HW1  683   3.244   3.457   9.468  0.7273  0.5017 -0.0338
   35SOL    HW2  684   3.309   3.362   9.370  0.3553  0.0079  0.1884
   36SOL     OW  685   2.458   6.252   3.054  0.0354  0.0223 -0.4005
   36SOL    HW1  686   2.474   6.212   2.969  1.0609 -1.3333  0.3864
   36SOL    HW2  687   2.455   6.179   3.115 -3.9382  0.6414  0.3784
   37SOL     OW  688   9.152   6.322   2.888  0.0135  0.4836 -0.1562
   37SOL    HW1  689   9.108   6.332   2.972 -0.7066  1.3921 -0.6286
   37SOL    HW2  690   9.081   6.316   2.824  0.5544 -0.0322 -0.7306
   38SOL     OW  691   0.613   3.696   3.455  0.3883 -0.1958 -0.3458
   38SOL    HW1  692   0.582   3.619   3.503 -0.4716  0.1556 -0.3313
   38SOL    HW2  693   0.697   3.717   3.497 -0.4248  0.2130  1.1504
   39SOL     OW  694   9.256   1.754   9.816  0.3737  0.0372 -0.0103
   39SOL    HW1  695   9.261   1.849   9.805  0.6098 -0.1998 -2.7206
   39SOL    HW2  696   9.165   1.737   9.840  0.1053  0.8939 -0.3829
   40SOL     OW  697   0.610   1.405   3.100 -0.0102 -0.5542  0.1333
   40SOL    HW1  698   0.670   1.460   3.050  0.5281 -0.5422  0.7766
   40SOL    HW2  699   0.664   1.368   3.170 -0.5342 -1.3091  0.1565
   41SOL     OW  700   8.766   3.253   8.035 -0.4373 -0.3339  0.0240
   41SOL    HW1  701   8.686   3.236   7.985 -1.4846  0.8983  1.2172
   41SOL    HW2  702   8.800   3.166   8.056 -2.5042 -0.9315  1.0865
   42SOL     OW  703   7.338   3.175   2.845 -0.0076  0.2619 -0.3449
   42SOL    HW1  704   7.354   3.196   2.753 -0.6250  0.4551 -0.4172
   42SOL    HW2  705   7.421   3.142   2.878  0.1040 -0.2185 -1.0888
   43SOL     OW  706   9.195   7.407   5.405 -0.4538 -0.3169 -0.1340
   43SOL    HW1  707   9.279   7.364   5.423 -0.3958 -1.3308 -2.3841
   43SOL    HW2  708   9.219   7.498   5.386  0.2124 -0.6420 -0.9588
   44SOL     OW  709   8.532   0.737   9.788 -0.1259  0.0384  0.4299
   44SOL    HW1  710   8.603   0.746   9.724  1.5241 -0.0904  2.1390
   44SOL    HW2  711   8.560   0.664   9.844  0.0765  2.0120  3.1264
   45SOL     OW  712   3.195   4.681   5.980  0.6978  0.1879 -0.3678
   45SOL    HW1  713   3.190   4.690   6.075  0.4826 -1.3362 -0.2033
   45SOL    HW2  714   3.105   4.692   5.950  0.9333  1.8312 -0.5403
   46SOL     OW  715   1.848   1.287   8.222  0.1748 -0.5317 -0.5143
   46SOL    HW1  716   1.804   1.320   8.144  0.2265  0.4009 -0.1750
   46SOL    HW2  717   1.822   1.349   8.291 -0.3765 -1.6909  0.3525
   47SOL     OW  718   9.511   1.521   1.965 -0.4091 -0.2556 -0.4087
   47SOL    HW1  719   9.542   1.533   1.876 -1.2893  0.0913 -0.6762
   47SOL    HW2  720   9.435   1.579   1.972  0.5497  0.9155  1.0374
   48SOL     OW  721   5.233   7.491   6.663  0.5253 -0.1780  0.1201
   48SOL    HW1  722   5.240   7.405   6.622 -1.5934 -0.3718  0.0152
   48SOL    HW2  723   5.319   7.532   6.650  1.6365 -2.3237  0.3469
   49SOL     OW  724   8.407   2.648   2.590 -0.6682  0.1956  0.0075
   49SOL    HW1  725   8.487   2.636   2.540 -0.9647  0.6510 -0.5833
   49SOL    HW2  726   8.412   2.582   2.660  0.8620  1.1016  0.7976
   50SOL     OW  727   1.609   6.468   0.950 -0.0620  0.1415  0.8499
   50SOL    HW1  728   1.544   6.417   0.900  1.0236 -0.9701  0.5163
   50SOL    HW2  729   1.558   6.510   1.020 -1.6848  1.8803 -1.2100
   51SOL     OW  730   5.947   1.790   7.560 -0.2939 -0.3130 -0.0039
   51SOL    HW1  731   5.903   1.706   7.546 -0.1878 -0.6681  1.6224
   51SOL    HW2  732   5.877   1.855   7.556 -0.5591 -0.6023 -0.0542
   52SOL     OW  733   6.550   7.314   9.349 -0.4960  0.6303  0.4466
   52SOL    HW1  734   6.553   7.234   9.296 -0.3381 -0.4658  2.0400
   52SOL    HW2  735   6.576   7.384   9.289 -1.8287 -0.3160 -1.3144
   53SOL     OW  736   4.937   4.766   9.257 -0.0411  0.5080 -0.2964
   53SOL    HW1  737   4.941   4.710   9.179 -1.4005 -1.1606  0.7650
   53SOL    HW2  738   4.989   4.843   9.234  0.4744 -0.4175 -2.4500
   54SOL     OW  739   4.479   6.353   7.166 -0.1814 -0.2050  0.2747
   54SOL    HW1  740   4.448   6.371   7.255 -0.0925 -1.1955  0.5153
   54SOL    HW2  741   4.431   6.415   7.111  0.9558  1.5529  1.1681
   55SOL     OW  742   1.397   6.588   5.207 -0.1146  0.2726  0.0871
   55SOL    HW1  743   1.302   6.582   5.195 -0.6889  0.9810  3.4833
   55SOL    HW2  744   1.432   6.514   5.156 -2.6583 -1.3654  0.5514
   56SOL     OW  745   0.375   2.385   3.284  0.3846 -0.2606 -0.5209
   56SOL    HW1  746   0.279   2.386   3.286  0.3726 -0.3473 -0.9438
   56SOL    HW2  747   0.401   2.408   3.373 -0.0302  2.0178 -0.9275
   57SOL     OW  748   2.293   3.531   7.379  0.1869 -0.1967  0.1764
   57SOL    HW1  749   2.360   3.580   7.332 -0.1440 -0.8506 -1.0167
   57SOL    HW2  750   2.329   3.519   7.467  1.2729  0.1639 -0.2066
   58SOL     OW  751   2.492   1.902   5.181 -0.1333 -0.5461  0.7370
   58SOL    HW1  752   2.529   1.908   5.269 -0.1470 -0.1201  0.7177
   58SOL    HW2  753   2.478   1.993   5.155 -1.5404 -0.6901  0.8940
   59SOL     OW  754   3.137   2.059   7.657 -0.6134 -0.5995  0.1369
   59SOL    HW1  755   3.187   2.139   7.642 -2.0898  0.1298 -1.2437
   59SOL    HW2  756   3.177   1.994   7.599 -0.6595 -0.2960 -0.2375
   60SOL     OW  757   3.465   4.958   4.262  0.2194 -0.1729 -0.2180
   60SOL    HW1  758   3.518   5.018   4.209  0.8647 -1.3003 -0.8974
   60SOL    HW2  759   3.500   4.871   4.242 -0.9371 -0.8202  0.4457
   61SOL     OW  760   2.656   5.466   4.371  0.4647  0.0463 -0.9806
   61SOL    HW1  761   2.730   5.503   4.418  0.4323 -2.5159  1.3473
   61SOL    HW2  762   2.579   5.499   4.418  0.2531  0.2987 -1.4955
   62SOL     OW  763   7.136   7.669   4.184  0.4325 -0.1626 -0.0169
   62SOL    HW1  764   7.162   7.586   4.224 -1.1500 -0.7289 -0.0626
   62SOL    HW2  765   7.207   7.692   4.125  0.9304 -1.4542  0.0552
   63SOL     OW  766   3.969   4.572   1.162  0.6193 -0.0131 -0.4998
   63SOL    HW1  767   3.981   4.573   1.257 -1.7260 -0.7101 -0.1444
   63SOL    HW2  768   3.958   4.480   1.140 -0.7270  0.2822 -1.1573
   64SOL     OW  769   6.254   0.929   9.107  0.0074 -0.3050 -0.1923
   64SOL    HW1  770   6.211   0.999   9.155 -0.6196 -1.0948  0.4049
   64SOL    HW2  771   6.247   0.852   9.163  1.5155 -0.6426 -0.4207
   65SOL     OW  772   2.434   7.215   6.768  0.0905  0.0907 -0.4080
   65SOL    HW1  773   2.433   7.179   6.679  1.2949 -0.3583 -0.2656
   65SOL    HW2  774   2.526   7.210   6.794 -0.5891 -2.3341  1.8950
   66SOL     OW  775   7.243   9.702   6.611  0.2485  0.2358  0.2668
   66SOL    HW1  776   7.243   9.616   6.569  0.9785  0.4113 -0.1242
   66SOL    HW2  777   7.223   9.763   6.540  0.9299  0.4843  0.2764
   67SOL     OW  778   5.301   3.343   0.887  0.2218 -0.3083  0.0938
   67SOL    HW1  779   5.264   3.264   0.849  1.1877 -0.8497  0.2439
   67SOL    HW2  780   5.396   3.335   0.873  0.7537 -0.9679  3.3082
   68SOL     OW  781   0.467   2.635   6.295  0.5441  0.0381 -0.4307
   68SOL    HW1  782   0.532   2.705   6.288 -0.1290  0.4921 -4.1933
   68SOL    HW2  783   0.515   2.562   6.333  2.3923  1.2616 -0.2590
   69SOL     OW  784   5.203   6.610   9.767  0.2173 -0.4973  0.3126
   69SOL    HW1  785   5.142   6.615   9.840  0.7217 -1.8705  0.8498
   69SOL    HW2  786   5.234   6.519   9.767 -0.7954 -0.9395 -2.4437
   70SOL     OW  787   9.787   3.641  -0.014  0.3114  0.3910 -0.1586
   70SOL    HW1  788   9.784   3.726   0.031  0.9006 -0.5199  1.7112
   70SOL    HW2  789   9.738   3.582   0.044 -1.9556 -0.1597 -2.4616
   71SOL     OW  790   1.891   7.875   4.264  0.4194 -0.4035  0.1954
   71SOL    HW1  791   1.942   7.866   4.183  0.4670  2.6418 -0.2039
   71SOL    HW2  792   1.802   7.849   4.239  1.2814 -4.3565  0.5392
   72SOL     OW  793   3.387   4.307   0.939 -0.5165  0.3685  0.3463
   72SOL    HW1  794   3.343   4.253   0.873 -2.1980  2.7791 -0.6578
   72SOL    HW2  795   3.317   4.331   1.000  0.5666  0.0095  1.7752
   73SOL     OW  796   1.058   2.155   3.359  0.0228  0.3842 -0.5680
   73SOL    HW1  797   1.031   2.154   3.451  2.8404  0.4105  0.3557
   73SOL    HW2  798   1.104   2.238   3.349  1.7724 -0.6260 -1.3274
   74SOL     OW  799   8.663   4.639   4.778 -0.0833  0.3691  0.5742
   74SOL    HW1  800   8.626   4.666   4.862  0.7398  0.7739  0.8242
   74SOL    HW2  801   8.636   4.708   4.717  0.5533  0.8669  0.8378
   75SOL     OW  802   5.066   0.272   3.155  0.0423 -0.0783 -0.2949
   75SOL    HW1  803   5.092   0.358   3.188  0.5689 -0.2113 -0.3512
   75SOL    HW2  804   5.132   0.252   3.089  0.1447 -0.7003 -0.0049
   76SOL     OW  805   7.231   3.346   8.901 -0.1525  0.2438  0.0600
   76SOL    HW1  806   7.149   3.385   8.871  0.2091  0.8300 -0.1721
   76SOL    HW2  807   7.216   3.325   8.993 -0.7598 -0.1948 -0.1337
   77SOL     OW  808   8.350   2.629   5.883 -0.9176  0.2699  0.0970
   77SOL    HW1  809   8.408   2.675   5.823 -0.7052 -1.3673 -1.0243
   77SOL    HW2  810   8.395   2.635   5.968 -0.2354  0.9465 -0.2974
   78SOL     OW  811   9.920   5.103   7.034 -0.4949 -0.4594 -0.7420
   78SOL    HW1  812   9.865   5.143   6.966 -1.8301 -0.2428  0.4268
   78SOL    HW2  813   9.874   5.022   7.057  0.5678 -1.1202 -0.9096
   79SOL     OW  814   6.014   8.869   8.494  0.3926 -0.1176  0.3249
   79SOL    HW1  815   6.054   8.949   8.459 -0.4170  0.2905  0.2877
   79SOL    HW2  816   6.047   8.799   8.439 -0.6046  0.4722 -1.1031
   80SOL     OW  817   2.441   3.042   6.195  0.3485 -0.1583  0.4919
   80SOL    HW1  818   2.481   3.016   6.112  1.5113 -0.9050  1.2530
   80SOL    HW2  819   2.348   3.025   6.183  0.5639 -0.7043 -0.4978
   81SOL     OW  820   6.682   4.380   0.808  0.3144  0.2184  0.2085
   81SOL    HW1  821   6.702   4.301   0.758  1.5827 -0.4435  1.7287
   81SOL    HW2  822   6.764   4.428   0.811 -0.3686  1.4912 -0.4283
   82SOL     OW  823   8.542   7.393   6.689 -0.3097  0.2526  0.1864
   82SOL    HW1  824   8.595   7.352   6.758 -1.0031  1.6172  1.6046
   82SOL    HW2  825   8.524   7.481   6.722 -1.3335  0.6840 -1.4139
   83SOL     OW  826   0.653   8.518   9.062  0.1898 -0.2635  0.2842
   83SOL    HW1  827   0.672   8.593   9.005 -0.4448 -0.4056 -0.1217
   83SOL    HW2  828   0.565   8.534   9.094 -0.8672 -1.9001 -1.5697
   84SOL     OW  829   6.821   1.463   5.480 -0.0514  0.6118 -0.0119
   84SOL    HW1  830   6.830   1.447   5.386  1.3326  1.6474 -0.0776
   84SOL    HW2  831   6.889   1.410   5.520  0.6921  1.7092  0.2215
   85SOL     OW  832   3.840   0.622   0.275 -0.0122  0.2776 -0.5200
   85SOL    HW1  833   3.907   0.663   0.329  1.6897  0.3398 -2.5512
   85SOL    HW2  834   3.791   0.566   0.335  2.6744 -0.7640  0.8677
   86SOL     OW  835   5.462   5.420   5.734 -0.1923  0.4103  0.5951
   86SOL    HW1  836   5.527   5.469   5.785 -1.7921  2.5480  0.7649
   86SOL    HW2  837   5.398   5.391   5.800  0.4619 -1.5344  0.4164
   87SOL     OW  838   5.708   6.636   0.924  0.3552  0.7094 -0.8054
   87SOL    HW1  839   5.742   6.709   0.975  0.4135 -0.3912  0.8232
   87SOL    HW2  840   5.618   6.660   0.903 -0.1942  0.5943  1.1712
   88SOL     OW  841   8.480   5.725   1.097  0.1889  0.0970 -0.3957
   88SOL    HW1  842   8.427   5.787   1.046 -0.9480 -0.9611 -0.5309
   88SOL    HW2  843   8.560   5.713   1.044  0.2140  1.0679 -0.5962
   89SOL     OW  844   6.449   1.967   6.017  0.3211  0.5622 -0.0433
   89SOL    HW1  845   6.413   1.908   5.950  0.8386  0.6720 -0.4223
   89SOL    HW2  846   6.381   2.034   6.028  0.1878  0.4866 -0.3816
   90SOL     OW  847   7.878   7.219   7.468 -0.2275 -0.4197  0.2036
   90SOL    HW1  848   7.915   7.306   7.458 -0.1218 -0.3427  1.1693
   90SOL    HW2  849   7.806   7.216   7.404 -1.3477  1.0146  1.3149
   91SOL     OW  850   5.683   6.882   3.275 -0.2110 -0.0729  0.1288
   91SOL    HW1  851   5.623   6.808   3.287 -0.5811  0.4067  1.3786
   91SOL    HW2  852   5.677   6.931   3.357  0.9108  0.7065 -0.2375
   92SOL     OW  853   2.814   5.849   3.125 -0.1075  0.3681 -0.0779
   92SOL    HW1  854   2.885   5.827   3.185 -0.8224 -0.5087  0.4614
   92SOL    HW2  855   2.749   5.893   3.179  0.2835  1.8002 -0.6994
   93SOL     OW  856   8.660   0.102   9.581 -0.2249 -0.4052 -0.2040
   93SOL    HW1  857   8.594   0.116   9.513 -0.7862  0.1809  0.4531
   93SOL    HW2  858   8.620   0.041   9.643 -0.1249 -0.1131  0.1558
   94SOL     OW  859   4.365   2.081   0.079  0.3444  0.2040 -0.1397
   94SOL    HW1  860   4.375   2.068   0.173 -1.9902  1.2763  0.3272
   94SOL    HW2  861   4.271   2.093   0.067  0.6804  0.8655 -2.5159
   95SOL     OW  862   3.330   5.604   0.708  0.3779  0.8294  0.2110
   95SOL    HW1  863   3.305   5.688   0.670  1.2312  1.1446  0.3196
   95SOL    HW2  864   3.422   5.615   0.730  0.5507 -0.2125  0.0291
   96SOL     OW  865   1.093   2.987   6.224  0.2881 -0.5858 -0.6836
   96SOL    HW1  866   1.052   3.066   6.260  1.6625  0.0705 -0.4834
   96SOL    HW2  867   1.143   3.019   6.149 -0.4047 -1.5330 -1.5724
   97SOL     OW  868   0.892   2.069   0.500  0.0799  0.7132  0.3611
   97SOL    HW1  869   0.954   2.130   0.460 -0.1726  1.5999  1.2844
   97SOL    HW2  870   0.938   2.034   0.576 -0.1844  0.5843  0.4646
   98SOL     OW  871   0.580   3.949   1.624 -0.2099 -0.0772  0.1304
   98SOL    HW1  872   0.629   3.868   1.637 -0.0933 -0.2275 -1.0617
   98SOL    HW2  873   0.575   3.958   1.528 -0.4799  1.1631  0.2461
   99SOL     OW  874   6.691   1.826   6.446 -0.1508 -0.7540 -0.3527
   99SOL    HW1  875   6.691   1.795   6.356 -1.3907 -2.0081  0.0432
   99SOL    HW2  876   6.770   1.787   6.485  0.0277 -0.7595 -0.7183
  100SOL     OW  877   1.288   5.663   8.367  0.9522  0.3323  0.2978
  100SOL    HW1  878   1.274   5.617   8.450  0.3534 -0.8316 -0.4256
  100SOL    HW2  879   1.378   5.694   8.372  1.3621 -0.8763  0.8464
  101SOL     OW  880   6.327   6.052   3.127 -0.2449 -0.2291  0.5892
  101SOL    HW1  881   6.422   6.037   3.128 -0.5077 -2.3814 -0.8770
  101SOL    HW2  882   6.316   6.128   3.070  0.5714 -0.2884  0.3429
  102SOL     OW  883   9.831   9.130   5.999  0.2374 -0.2408 -0.3417
  102SOL    HW1  884   9.896   9.148   5.931  0.4135 -1.0476 -0.3936
  102SOL    HW2  885   9.848   9.196   6.067 -0.0264  0.6523 -1.1262
  103SOL     OW  886   0.344   9.908   4.058  0.4653 -0.2819 -0.1041
  103SOL    HW1  887   0.372   9.822   4.025 -1.0102 -0.4280 -1.0694
  103SOL    HW2  888   0.365   9.969   3.988  2.4474  0.3632  0.9805
  104SOL     OW  889   4.626   1.383   8.379  0.0857 -0.2906 -0.1265
  104SOL    HW1  890   4.594   1.470   8.357  2.3688  0.3398 -1.1622
  104SOL    HW2  891   4.588   1.326   8.313  1.4069  0.5198 -1.6458
  105SOL     OW  892   0.209   6.294   4.511 -0.4243 -0.0920 -0.3182
  105SOL    HW1  893   0.291   6.257   4.477 -0.5362 -1.7075  1.0509
  105SOL    HW2  894   0.235   6.378   4.548  0.9436 -1.1455  1.2803
  106SOL     OW  895   4.610   0.932   4.198 -0.0547 -0.2158  0.1762
  106SOL    HW1  896   4.626   1.019   4.236 -0.3890 -0.8030  1.7462
  106SOL    HW2  897   4.540   0.946   4.135  0.0640  0.6957  0.2295
  107SOL     OW  898   4.358   4.818   9.550 -0.6471 -0.4505  0.1515
  107SOL    HW1  899   4.422   4.819   9.479 -1.8026 -0.6881 -0.9427
  107SOL    HW2  900   4.399   4.767   9.619  0.6933  0.1649 -0.1637
  108SOL     OW  901   6.122   9.092   8.374 -0.0995 -0.3807 -0.2830
  108SOL    HW1  902   6.213   9.105   8.346 -0.2676 -0.8189 -1.0603
  108SOL    HW2  903   6.109   9.156   8.444  1.0699 -0.8946  0.4331
  109SOL     OW  904   0.189   2.842   5.556  0.4292 -0.3114 -0.2711
  109SOL    HW1  905   0.139   2.765   5.583  1.9339 -0.6769  1.6491
  109SOL    HW2  906   0.277   2.808   5.538  0.6835  0.7207 -1.0493
  110SOL     OW  907   5.652   8.124   2.457 -0.0359  0.0531 -0.0877
  110SOL    HW1  908   5.724   8.136   2.518 -1.3986 -1.6495  1.9760
  110SOL    HW2  909   5.577   8.166   2.499 -0.7674 -0.1731 -1.1224
  111SOL     OW  910   9.603   2.363   0.452  0.0679 -0.1411 -0.2869
  111SOL    HW1  911   9.627   2.456   0.450  0.6921 -0.3031 -0.5779
  111SOL    HW2  912   9.587   2.341   0.361 -1.6508  0.0635 -0.0674
  112SOL     OW  913   7.903   5.761   9.199 -0.5047 -0.4257 -0.2521
  112SOL    HW1  914   7.973   5.710   9.239 -1.5273 -0.4048  1.6608
  112SOL    HW2  915   7.938   5.786   9.113  2.3070  0.6295  1.0908
  113SOL     OW  916   1.664   8.711   6.669 -0.3300 -0.5391 -0.6751
  113SOL    HW1  917   1.741   8.669   6.708 -0.7255 -0.6945 -0.0429
  113SOL    HW2  918   1.651   8.791   6.721 -1.7639 -1.5090  0.5339
  114SOL     OW  919   2.194   0.059   2.339  0.3498 -0.0361 -0.0789
  114SOL    HW1  920   2.220  -0.027   2.306 -0.9299  0.3174 -2.2179
  114SOL    HW2  921   2.274   0.112   2.335  1.0313 -0.9753  0.8015
  115SOL     OW  922   9.818   2.095   1.920 -0.2227  0.6490 -0.1123
  115SOL    HW1  923   9.835   2.159   1.988  1.2546  2.4080 -2.0052
  115SOL    HW2  924   9.875   2.121   1.847 -1.6430 -1.1622 -2.0103
  116SOL     OW  925   1.115   4.651   1.021 -0.3958  0.0311  0.2469
  116SOL    HW1  926   1.026   4.666   1.055  0.2120  2.0018  1.1064
  116SOL    HW2  927   1.169   4.714   1.068  1.2663 -0.2548 -1.1961
  117SOL     OW  928   6.670   8.292   2.066  0.1124 -0.6680  0.0609
  117SOL    HW1  929   6.738   8.341   2.020 -0.1974  1.2048  1.4645
  117SOL    HW2  930   6.719   8.230   2.121  0.7512  0.7598  1.1738
  118SOL     OW  931   9.922   0.209   1.431  0.2956  0.5715  0.4175
  118SOL    HW1  932   9.967   0.261   1.364  1.6757 -1.3908 -0.2960
  118SOL    HW2  933   9.987   0.144   1.458 -1.2556 -0.6520  1.4005
  119SOL     OW  934   3.318   3.984   7.190  0.3029  0.7469  0.5067
  119SOL    HW1  935   3.272   3.964   7.109 -0.1052 -0.6415  1.0553
  119SOL    HW2  936   3.288   4.072   7.215 -0.1740  0.8472 -0.4133
  120SOL     OW  937   3.313   7.561   0.674 -0.1561  0.5480 -0.1219
  120SOL    HW1  938   3.266   7.630   0.720 -1.1924 -0.8278  0.9816
  120SOL    HW2  939   3.310   7.486   0.734  0.9323 -0.4595 -1.2674
  121SOL     OW  940   3.021   9.390   5.206  0.6000 -0.7594 -0.7978
  121SOL    HW1  941   3.070   9.449   5.150 -0.0611  0.1994 -0.3933
  121SOL    HW2  942   3.085   9.358   5.270  0.8520 -0.0560 -0.6909
  122SOL     OW  943   1.997   0.757   9.905 -0.2053 -0.9545 -0.3500
  122SOL    HW1  944   2.040   0.829   9.859  0.5709 -0.4605  1.1149
  122SOL    HW2  945   2.058   0.683   9.897  0.2794 -0.6560  0.5074
  123SOL     OW  946   3.277   3.903   5.612  0.1863 -0.2231 -0.2257
  123SOL    HW1  947   3.354   3.848   5.625 -0.1260 -0.3555  1.2647
  123SOL    HW2  948   3.212   3.845   5.573  0.0075 -0.8245  0.9158
  124SOL     OW  949   3.518   4.244   3.091 -0.0504  0.1810 -0.0304
  124SOL    HW1  950   3.603   4.259   3.133  0.0606 -1.6855  0.4961
  124SOL    HW2  951   3.518   4.151   3.069 -2.2589 -0.0430  0.6962
  125SOL     OW  952   0.752   8.389   5.808  0.2231 -0.4270 -0.1395
  125SOL    HW1  953   0.795   8.390   5.893 -0.4624  1.1977  0.2226
  125SOL    HW2  954   0.667   8.349   5.824 -1.0840  2.4315  0.6192
  126SOL     OW  955   5.545   4.898   8.054  0.3854 -0.3065 -0.0863
  126SOL    HW1  956   5.575   4.816   8.015 -0.7797  0.1797 -2.1476
  126SOL    HW2  957   5.613   4.961   8.031  1.9427 -0.8735  2.6168
  127SOL     OW  958   3.852   8.907   1.201 -0.4468 -0.1748  0.1039
  127SOL    HW1  959   3.867   9.000   1.215 -1.8609  0.7304 -3.3531
  127SOL    HW2  960   3.760   8.893   1.226  0.1069 -1.0127  1.8366
  128SOL     OW  961   7.618   8.618   8.885 -0.1019 -0.4023  0.0054
  128SOL    HW1  962   7.531   8.637   8.851  0.5987 -1.0329 -2.3579
  128SOL    HW2  963   7.652   8.703   8.914 -2.0882 -0.3991  2.6904
  129SOL     OW  964   7.762   3.959   9.179 -0.7092 -0.2221  0.0229
  129SOL    HW1  965   7.743   3.997   9.094 -1.1570 -2.2890 -0.8462
  129SOL    HW2  966   7.724   4.021   9.242 -1.9023  0.4773 -1.3410
  130SOL     OW  967   2.265   0.808   2.144 -0.2703  0.0124 -0.4182
  130SOL    HW1  968   2.179   0.844   2.169  0.7643  1.5214  1.2142
  130SOL    HW2  969   2.281   0.738   2.208 -1.9701 -3.1975 -3.1718
  131SOL     OW  970   0.212   8.506   1.509  0.0924  0.1106 -0.0920
  131SOL    HW1  971   0.269   8.450   1.562 -0.1681 -0.3354 -0.2826
  131SOL    HW2  972   0.146   8.537   1.571 -0.9010 -1.3413 -0.3827
  132SOL     OW  973   6.677   7.922   3.881 -0.3037 -0.3789  0.3769
  132SOL    HW1  974   6.634   8.001   3.849 -1.6120 -1.3378 -0.3154
  132SOL    HW2  975   6.770   7.945   3.884 -0.6148  1.0482 -0.1900
  133SOL     OW  976   9.320   3.594   7.012 -0.2436 -0.0359  0.5891
  133SOL    HW1  977   9.315   3.673   7.065 -1.0588 -0.4521  1.1583
  133SOL    HW2  978   9.401   3.551   7.040 -0.4360 -0.0196  1.1771
  134SOL     OW  979   0.948   5.771   0.299  0.6966 -0.3363  0.2492
  134SOL    HW1  980   0.926   5.744   0.388 -2.3805 -0.4514 -0.4346
  134SOL    HW2  981   0.967   5.690   0.253  0.4655 -0.4591  0.3693
  135SOL     OW  982   9.789   4.888   7.108 -0.2413 -0.0695 -0.0367
  135SOL    HW1  983   9.816   4.898   7.199 -0.9414  1.5194  0.0115
  135SOL    HW2  984   9.811   4.797   7.087  1.4168 -0.0109  1.2158
  136SOL     OW  985   3.801   3.775   6.912 -0.1821 -0.0924 -0.5317
  136SOL    HW1  986   3.712   3.800   6.938 -0.5652 -1.3975 -0.4901
  136SOL    HW2  987   3.789   3.732   6.827  0.3308 -0.7469 -0.2793
  137SOL     OW  988   4.382   0.471   6.014  0.8060 -0.1204 -0.3931
  137SOL    HW1  989   4.452   0.429   5.964  1.6746  0.9661 -0.1275
  137SOL    HW2  990   4.379   0.423   6.097  1.1357 -0.2588 -0.4618
  138SOL     OW  991   4.322   3.686   6.083 -0.2605 -0.0154 -0.1317
  138SOL    HW1  992   4.331   3.736   6.002  0.7765 -0.6490 -0.4171
  138SOL    HW2  993   4.228   3.677   6.095 -0.4219 -0.7755 -1.8006
  139SOL     OW  994   4.935   6.821   2.341  0.2985  0.3329  0.1411
  139SOL    HW1  995   4.954   6.873   2.419 -0.7509 -0.7623  1.1740
  139SOL    HW2  996   4.874   6.753   2.372 -0.8196  0.3850 -1.8244
  140SOL     OW  997   0.451   8.134   3.843  0.2487 -0.3367  0.1065
  140SOL    HW1  998   0.481   8.092   3.924 -0.4871 -0.0780  0.5207
  140SOL    HW2  999   0.362   8.162   3.862  0.0840 -0.2239 -0.7842
  141SOL     OW 1000   9.439   8.337   6.956  0.4307 -0.0652 -0.3245
  141SOL    HW1 1001   9.533   8.322   6.946  0.8070  2.3845 -1.2953
  141SOL    HW2 1002   9.433   8.427   6.986 -1.6356 -0.0488 -0.6832
  142SOL     OW 1003   8.980   1.628   8.809 -0.0124  0.2532 -0.0398
  142SOL    HW1 1004   9.011   1.669   8.728  2.4788  0.1922  0.8048
  142SOL    HW2 1005   8.992   1.534   8.793  0.3860  0.2372  0.3371
  143SOL     OW 1006   8.852   8.404   0.646  0.2445  0.5018 -0.2770
  143SOL    HW1 1007   8.944   8.396   0.623  0.3935 -1.2527  0.8028
  143SOL    HW2 1008   8.821   8.478   0.593  2.2395  1.1199 -0.6659
  144SOL     OW 1009   2.229   4.896   8.592 -0.0986  0.0491 -1.0140
  144SOL    HW1 1010   2.220   4.867   8.501  0.4108  0.0802 -1.0774
  144SOL    HW2 1011   2.150   4.948   8.609  0.3692  1.0547 -1.8212
  145SOL     OW 1012   6.435   3.264   3.039  0.4414 -0.3721  0.2544
  145SOL    HW1 1013   6.417   3.247   3.132 -0.0897 -1.0168  0.0482
  145SOL    HW2 1014   6.523   3.231   3.025  1.1460  1.1529  0.8727
  146SOL     OW 1015   7.480   1.413   7.273  0.4791  0.8631 -0.4750
  146SOL    HW1 1016   7.572   1.406   7.246  1.4264  2.3611  1.9948
  146SOL    HW2 1017   7.446   1.487   7.222  0.7275  0.4995 -1.1806
  147SOL     OW 1018   0.472   8.022   2.883  0.3083 -0.2933  0.2925
  147SOL    HW1 1019   0.567   8.009   2.883  0.1173 -1.8925  0.4054
  147SOL    HW2 1020   0.446   8.004   2.974 -0.1959 -0.7369  0.0654
  148SOL     OW 1021   0.310   1.778   6.731 -0.5793  0.2329  0.0068
  148SOL    HW1 1022   0.404   1.798   6.730  0.2949 -3.2216 -0.2094
  148SOL    HW2 1023   0.271   1.852   6.777  2.6050  0.6466  2.4368
  149SOL     OW 1024   6.386   9.285   2.464  0.2258  0.0425  0.7516
  149SOL    HW1 1025   6.471   9.242   2.452  0.2411 -0.1432  1.4886
  149SOL    HW2 1026   6.371   9.282   2.558 -0.9923 -0.6832  0.5478
  150SOL     OW 1027   4.961   0.358   2.830  0.1301  0.5215 -0.1652
  150SOL    HW1 1028   4.961   0.322   2.919  1.8625  1.4690  0.2684
  150SOL    HW2 1029   4.888   0.419   2.829 -0.8188 -0.5849  0.1203
  151SOL     OW 1030   8.861   0.558   9.501 -0.1941  0.4177  0.1498
  151SOL    HW1 1031   8.791   0.498   9.528 -0.7910  1.6283  1.4042
  151SOL    HW2 1032   8.816   0.632   9.460  0.4784  0.4718 -0.5368
  152SOL     OW 1033   9.729   1.192   3.097  0.2387  0.4980  0.1254
  152SOL    HW1 1034   9.710   1.149   3.013 -0.6353  0.9705  0.0759
  152SOL    HW2 1035   9.679   1.143   3.161  1.4550 -0.3072  0.5044
  153SOL     OW 1036   8.804   6.657   3.597  0.0992 -0.1438  0.2800
  153SOL    HW1 1037   8.807   6.569   3.560 -0.7145 -0.9275  1.9434
  153SOL    HW2 1038   8.860   6.652   3.674 -0.3911  0.6334  0.6992
  154SOL     OW 1039   8.268   4.703   8.385  0.5069  0.2200 -0.6441
  154SOL    HW1 1040   8.274   4.798   8.379 -1.4730  0.3109 -1.6794
  154SOL    HW2 1041   8.306   4.671   8.304 -1.2794  0.2776 -1.5398
  155SOL     OW 1042   7.281   6.705   5.775 -0.0858  0.2619 -0.0006
  155SOL    HW1 1043   7.257   6.735   5.863 -0.3854  0.5576 -0.1823
  155SOL    HW2 1044   7.307   6.614   5.787 -2.4464 -0.4589  0.0057
  156SOL     OW 1045   1.042   2.814   2.157  0.3472  0.9082  0.2274
  156SOL    HW1 1046   0.965   2.760   2.137  0.1770  1.1299  0.2719
  156SOL    HW2 1047   1.051   2.872   2.081 -0.1260  1.5527  0.6472
  157SOL     OW 1048   7.388   0.956   8.602  0.0437  0.1349  0.6501
  157SOL    HW1 1049   7.349   0.989   8.683  0.8751  1.1457  0.6656
  157SOL    HW2 1050   7.467   0.909   8.631  0.6755  1.0146  0.4148
  158SOL     OW 1051   1.779   1.640   4.622  0.0687 -0.5833 -0.1112
  158SOL    HW1 1052   1.851   1.647   4.559 -0.8171  0.4905 -1.0487
  158SOL    HW2 1053   1.701   1.623   4.569 -0.5996 -0.2960  0.7400
  159SOL     OW 1054   2.611   7.961   2.287 -0.3883 -0.3461  0.3649
  159SOL    HW1 1055   2.622   8.007   2.204 -1.6370  0.4001  0.5861
  159SOL    HW2 1056   2.520   7.930   2.285 -0.3178 -0.6505  1.2998
  160SOL     OW 1057   8.403   8.507   6.321 -0.9347  0.1879  0.3690
  160SOL    HW1 1058   8.333   8.524   6.258 -1.7898  0.0484  1.2673
  160SOL    HW2 1059   8.405   8.585   6.376  1.1539  1.1954 -1.0159
  161SOL     OW 1060   6.310   9.123   8.065 -0.1228 -0.0374 -1.2562
  161SOL    HW1 1061   6.337   9.148   8.153  0.2483 -0.7140 -1.1666
  161SOL    HW2 1062   6.392   9.117   8.016 -0.1504 -1.3108 -1.1974
  162SOL     OW 1063   8.079   5.202   2.963 -0.6169  0.4671  0.1159
  162SOL    HW1 1064   8.086   5.296   2.947 -0.8827  0.3263 -0.8852
  162SOL    HW2 1065   8.126   5.188   3.045  1.2199  1.1570 -0.7689
  163SOL     OW 1066   9.394   4.265   1.504  0.2262 -0.3802  0.2888
  163SOL    HW1 1067   9.439   4.290   1.585 -0.4137 -1.1141  0.8891
  163SOL    HW2 1068   9.378   4.171   1.513  2.4325 -1.0524 -1.8566
  164SOL     OW 1069   7.299   6.859   1.527 -0.4288  0.5104 -0.1940
  164SOL    HW1 1070   7.362   6.789   1.545 -1.7440 -0.7451 -0.2865
  164SOL    HW2 1071   7.289   6.858   1.432 -2.7792 -1.4009 -0.0338
  165SOL     OW 1072   4.741   5.323   9.178 -0.6114 -0.5404 -0.5827
  165SOL    HW1 1073   4.776   5.379   9.248  0.8952  0.2855 -1.9576
  165SOL    HW2 1074   4.663   5.370   9.148 -0.1350  0.1444 -0.7871
  166SOL     OW 1075   2.341   2.103   0.868  0.2258 -0.4991  0.2318
  166SOL    HW1 1076   2.285   2.089   0.791  0.5901  1.0734 -0.3560
  166SOL    HW2 1077   2.281   2.135   0.935  0.3724  1.0962 -0.3696
  167SOL     OW 1078   7.335   6.296   8.790  0.1114  0.4079  0.0757
  167SOL    HW1 1079   7.260   6.350   8.765 -0.0561  0.6740  1.1011
  167SOL    HW2 1080   7.390   6.354   8.843 -0.5027 -0.6310  1.9372
  168SOL     OW 1081   3.871   9.495   5.983  0.0304  0.3574  0.4677
  168SOL    HW1 1082   3.870   9.423   6.046 -2.3087  0.5624  0.7589
  168SOL    HW2 1083   3.945   9.549   6.009  0.9987 -1.1957  1.0823
  169SOL     OW 1084   0.094   4.443   0.810 -0.2041  0.3007  0.6063
  169SOL    HW1 1085   0.008   4.470   0.778  0.7088 -0.9688 -3.6951
  169SOL    HW2 1086   0.105   4.354   0.776  3.1684  0.8189 -0.0776
  170SOL     OW 1087   4.551   2.198   3.016  0.0806 -0.0431  0.3493
  170SOL    HW1 1088   4.593   2.116   3.041  0.7843 -0.3667 -1.6868
  170SOL    HW2 1089   4.577   2.212   2.925 -0.5348  2.1313  0.4383
  171SOL     OW 1090   9.609   6.815   6.983  0.0315 -0.5555 -0.0504
  171SOL    HW1 1091   9.670   6.875   6.941 -0.0548 -1.6120 -1.8229
  171SOL    HW2 1092   9.633   6.816   7.075  0.1237  2.0302 -0.0405
  172SOL     OW 1093   3.559   1.363   8.555  0.3064 -0.2743  0.2729
  172SOL    HW1 1094   3.559   1.341   8.462 -0.6950 -0.4827  0.3032
  172SOL    HW2 1095   3.594   1.451   8.559  0.1907 -0.1950 -0.3320
  173SOL     OW 1096   6.943   5.203   5.809  0.1368 -0.9650 -0.3241
  173SOL    HW1 1097   6.853   5.206   5.842  0.6960 -0.7307  1.2479
  173SOL    HW2 1098   6.959   5.292   5.777 -0.1464 -0.9684 -0.4833
  174SOL     OW 1099   1.363   8.950   5.821  0.7534  0.0879  0.8677
  174SOL    HW1 1100   1.370   9.042   5.846  1.7485  0.1355  0.4586
  174SOL    HW2 1101   1.281   8.945   5.772  0.9326  0.8651  0.4628
  175SOL     OW 1102   3.990   7.253   7.047  0.2250 -0.8158  0.0460
  175SOL    HW1 1103   3.954   7.336   7.015 -0.9888 -0.9965  0.8554
  175SOL    HW2 1104   4.061   7.232   6.986  0.3609  0.6596 -0.3398
  176SOL     OW 1105   2.406   0.421   6.600  0.2065  0.6161 -0.6947
  176SOL    HW1 1106   2.387   0.416   6.693  0.6624 -0.6918 -0.6572
  176SOL    HW2 1107   2.336   0.476   6.564 -0.3415  0.5984  0.3107
  177SOL     OW 1108   8.447   2.104   6.689 -0.1040  0.2716 -0.0672
  177SOL    HW1 1109   8.528   2.134   6.648 -0.8939  0.3012 -1.6495
  177SOL    HW2 1110   8.452   2.009   6.687 -0.0882  0.2738 -0.1322
  178SOL     OW 1111   3.490   3.552   1.149 -0.0225 -0.2060 -0.2767
  178SOL    HW1 1112   3.432   3.626   1.170  0.1626 -0.3280  0.7250
  178SOL    HW2 1113   3.504   3.509   1.233 -1.0167 -2.0414 -1.0106
  179SOL     OW 1114   8.852   2.609   8.711 -0.3697  0.4383 -0.4241
  179SOL    HW1 1115   8.894   2.694   8.710  0.7052 -0.0746 -2.1162
  179SOL    HW2 1116   8.811   2.604   8.798  0.0292  2.4088 -0.0764
  180SOL     OW 1117   0.295   7.250   4.714 -0.5684  0.2185 -0.4697
  180SOL    HW1 1118   0.351   7.193   4.662 -1.2076 -0.4632 -0.4261
  180SOL    HW2 1119   0.345   7.267   4.793 -0.6646 -0.9014 -0.1465
  181SOL     OW 1120   4.221   0.448   4.210  0.4092 -1.0425  0.6328
  181SOL    HW1 1121   4.141   0.462   4.260 -0.5117  1.2047 -1.2575
  181SOL    HW2 1122   4.192   0.443   4.119  2.3972 -0.1823 -0.1129
  182SOL     OW 1123   3.407   2.495   4.276  0.0676  0.4790  0.0311
  182SOL    HW1 1124   3.339   2.448   4.229 -0.8014 -0.2231  1.8650
  182SOL    HW2 1125   3.427   2.440   4.351  1.4488  1.4835  0.4426
  183SOL     OW 1126   3.365   0.041   9.065 -0.3149 -1.1575  0.2163
  183SOL    HW1 1127   3.359   0.002   9.152  0.8075  0.5990  1.1436
  183SOL    HW2 1128   3.284   0.091   9.054  0.8142  1.1816  1.6600
  184SOL     OW 1129   6.804   3.207   3.031  0.9984  0.3232 -0.1529
  184SOL    HW1 1130   6.755   3.154   2.969  1.3200 -1.4882  1.0813
  184SOL    HW2 1131   6.889   3.164   3.038  1.1977  0.8774  1.0622
  185SOL     OW 1132   1.329   2.822   1.329  0.2062 -0.6209  0.3589
  185SOL    HW1 1133   1.409   2.835   1.380 -0.4430 -0.2733  1.3375
  185SOL    HW2 1134   1.301   2.911   1.306 -0.2445 -0.6931  0.6052
  186SOL     OW 1135   9.661   3.499   9.154  0.0916 -0.1215 -0.0363
  186SOL    HW1 1136   9.632   3.449   9.078 -1.2271 -0.3529  0.5937
  186SOL    HW2 1137   9.601   3.574   9.158  1.8726  1.4232 -0.8229
  187SOL     OW 1138   9.200   7.781   1.937  0.2920  0.3514  0.2632
  187SOL    HW1 1139   9.274   7.767   1.996 -0.5263 -0.6060  1.1062
  187SOL    HW2 1140   9.179   7.874   1.946  2.3812  1.0400 -1.2322
  188SOL     OW 1141   9.695   9.480   7.090  0.2803 -0.0747  0.8361
  188SOL    HW1 1142   9.695   9.573   7.067  1.2191  0.2294  1.9801
  188SOL    HW2 1143   9.689   9.478   7.185 -0.7742 -1.2313  0.7747
  189SOL     OW 1144   0.620   8.053   6.944 -0.0416  0.2396 -0.7046
  189SOL    HW1 1145   0.545   8.035   6.886 -1.7019  0.0858  1.3495
  189SOL    HW2 1146   0.581   8.096   7.020  2.1341  0.9882  0.0550
  190SOL     OW 1147   8.164   9.388   8.936  1.1058 -0.0316  0.2682
  190SOL    HW1 1148   8.097   9.346   8.990  0.8286 -1.3301 -1.0452
  190SOL    HW2 1149   8.246   9.352   8.969  0.7983 -3.2998 -2.0828
  191SOL     OW 1150   6.734   9.251   3.497  0.1899 -0.1303 -0.3702
  191SOL    HW1 1151   6.739   9.159   3.470  0.8246 -0.0486 -0.5477
  191SOL    HW2 1152   6.701   9.248   3.586  0.5668 -0.5603 -0.2410
  192SOL     OW 1153   6.410   4.936   0.559 -0.0610 -0.3742  0.3144
  192SOL    HW1 1154   6.420   4.856   0.610  1.4857  0.2094  0.9820
  192SOL    HW2 1155   6.396   4.906   0.469 -0.9871 -1.3931  0.7739
  193SOL     OW 1156   9.537   2.917   5.709  0.4779  0.3343  0.3716
  193SOL    HW1 1157   9.509   2.885   5.623 -1.7211  0.0479  1.1287
  193SOL    HW2 1158   9.626   2.949   5.695  0.8913 -1.4620 -1.5625
  194SOL     OW 1159   9.642   1.237   9.882 -0.3071 -0.4642 -0.3376
  194SOL    HW1 1160   9.652   1.199   9.794 -0.7507 -1.1957 -0.0887
  194SOL    HW2 1161   9.548   1.231   9.899 -0.2849  0.1168  0.0006
  195SOL     OW 1162   1.711   1.709   6.530  0.0180 -0.2440  0.1221
  195SOL    HW1 1163   1.686   1.746   6.615  0.2718  1.5977 -0.5525
  195SOL    HW2 1164   1.637   1.655   6.504 -1.3225  1.4821  0.2207
  196SOL     OW 1165   1.151   0.654   5.055 -0.8827  0.6296  0.0252
  196SOL    HW1 1166   1.063   0.652   5.017  0.3695  0.0956 -3.1652
  196SOL    HW2 1167   1.180   0.744   5.044 -0.3531  0.3760 -0.8298
  197SOL     OW 1168   5.098   4.098   2.856 -0.2939  0.2819  0.4446
  197SOL    HW1 1169   5.101   4.191   2.836  0.9590  0.2777  0.5395
  197SOL    HW2 1170   5.183   4.065   2.829 -0.0598 -0.5093  2.0147
  198SOL     OW 1171   3.201   2.574   0.307 -0.0170 -1.0091  0.6066
  198SOL    HW1 1172   3.241   2.660   0.296 -2.4238  0.4438  2.2842
  198SOL    HW2 1173   3.271   2.512   0.286  1.8650  1.3235 -0.4422
  199SOL     OW 1174   4.674   2.826   9.835 -0.7817 -0.6146 -0.0506
  199SOL    HW1 1175   4.731   2.749   9.834  1.0050  0.5882 -2.2389
  199SOL    HW2 1176   4.707   2.880   9.906  1.4737  0.3973 -1.7313
  200SOL     OW 1177   1.966   8.494   7.511  0.0684  0.4081  0.1734
  200SOL    HW1 1178   2.033   8.524   7.572  0.2320 -0.8929  0.6521
  200SOL    HW2 1179   2.004   8.417   7.469  0.4902  1.9663 -2.5540
  201SOL     OW 1180   3.116   3.680   3.617 -0.0748  0.2422 -0.2571
  201SOL    HW1 1181   3.063   3.607   3.588 -0.1598 -0.3230  1.2213
  201SOL    HW2 1182   3.152   3.652   3.701 -1.0136  2.3107  0.9168
  202SOL     OW 1183   7.033   1.753   3.602  0.8574  0.1148 -0.0289
  202SOL    HW1 1184   7.014   1.812   3.675  0.5627 -1.8886  1.5778
  202SOL    HW2 1185   6.956   1.759   3.545  0.1337  0.0771  0.9392
  203SOL     OW 1186   7.548   9.623   4.828  0.5584 -0.0970 -0.1035
  203SOL    HW1 1187   7.630   9.658   4.794  0.0116 -1.2309 -2.8493
  203SOL    HW2 1188   7.481   9.681   4.791 -0.0468 -1.2175 -0.8297
  204SOL     OW 1189   1.631   5.018   1.607  0.2203  0.2783  0.9661
  204SOL    HW1 1190   1.664   4.963   1.536 -2.2882  0.2403 -0.3090
  204SOL    HW2 1191   1.613   4.957   1.678 -1.1225 -0.4026  0.0941
  205SOL     OW 1192   3.841   1.147   9.835  0.0104  0.4537 -0.4580
  205SOL    HW1 1193   3.758   1.192   9.818  0.5043  0.7767 -2.3000
  205SOL    HW2 1194   3.831   1.109   9.922 -0.6359  3.7436  1.0783
  206SOL     OW 1195   5.140   2.603   6.224 -0.4283  0.7673 -0.8496
  206SOL    HW1 1196   5.098   2.658   6.290 -0.5235  1.9022 -1.8217
  206SOL    HW2 1197   5.081   2.528   6.214  0.1332  0.0162  1.1122
  207SOL     OW 1198   7.827   3.066   5.969 -0.3424 -0.1634  0.1226
  207SOL    HW1 1199   7.750   3.100   6.015 -1.1812 -0.3940 -1.0460
  207SOL    HW2 1200   7.794   2.992   5.918  0.7717 -0.5958 -0.0022
  208SOL     OW 1201   9.854   1.295   3.395 -0.0678 -0.5833  0.1382
  208SOL    HW1 1202   9.847   1.351   3.318 -0.3801  1.2404  1.4017
  208SOL    HW2 1203   9.939   1.319   3.434 -0.0184 -1.2991  0.4809
  209SOL     OW 1204   7.179   9.660   6.896 -0.2227 -0.0200  0.3999
  209SOL    HW1 1205   7.219   9.728   6.950 -0.1162  0.8199 -0.6838
  209SOL    HW2 1206   7.193   9.690   6.806 -0.1581 -1.5030 -0.1080
  210SOL     OW 1207   9.279   6.761   6.587 -0.1739  0.1264 -0.2989
  210SOL    HW1 1208   9.243   6.822   6.522  0.3025  0.5715 -0.1510
  210SOL    HW2 1209   9.327   6.696   6.536 -2.8698 -1.7142 -0.6874
  211SOL     OW 1210   7.527   3.001   7.255  0.0537  0.3996 -0.3275
  211SOL    HW1 1211   7.479   3.075   7.217  0.8363  1.3537  0.4956
  211SOL    HW2 1212   7.463   2.930   7.257 -1.6227  1.8560  1.4856
  212SOL     OW 1213   0.994   1.773   8.985  0.0090  0.3048  0.0792
  212SOL    HW1 1214   0.924   1.744   9.043 -0.9236 -1.7011 -1.8812
  212SOL    HW2 1215   0.948   1.815   8.912  0.7789 -0.9626 -1.1908
  213SOL     OW 1216   1.611   2.729   1.901 -0.7423 -0.4808 -0.9273
  213SOL    HW1 1217   1.574   2.644   1.922 -2.2280  0.2287 -0.5178
  213SOL    HW2 1218   1.703   2.711   1.880 -0.8349 -2.0695 -0.1201
  214SOL     OW 1219   1.287   7.650   1.475 -0.0918 -0.0455 -0.2356
  214SOL    HW1 1220   1.344   7.723   1.501  0.0452 -0.4547  0.6331
  214SOL    HW2 1221   1.272   7.601   1.555 -2.0410  0.2842 -0.3430
  215SOL     OW 1222   2.445   8.086   9.923  0.2478 -0.5798 -0.0879
  215SOL    HW1 1223   2.369   8.029   9.933  0.5547 -0.8321  0.8561
  215SOL    HW2 1224   2.507   8.035   9.871  0.1258 -0.7034 -0.1128
  216SOL     OW 1225   1.236   4.934   1.349 -0.6998 -0.0553  0.6897
  216SOL    HW1 1226   1.265   5.022   1.327 -0.1803 -0.2722  0.4817
  216SOL    HW2 1227   1.160   4.947   1.405 -0.4081  0.5275  0.9602
  217SOL     OW 1228   3.188   2.048   9.057  0.2631 -0.0780  0.1540
  217SOL    HW1 1229   3.180   2.131   9.009  1.1122 -1.3150 -2.2753
  217SOL    HW2 1230   3.178   2.073   9.149  1.8459  2.9341 -0.3559
  218SOL     OW 1231   1.132   1.923   2.122  0.5591 -0.0894  0.2503
  218SOL    HW1 1232   1.044   1.950   2.099  1.0652 -0.3661 -2.3060
  218SOL    HW2 1233   1.137   1.934   2.217 -1.9280  0.7011  0.3468
  219SOL     OW 1234   6.798   4.056   2.604  0.3603 -0.8571 -0.1360
  219SOL    HW1 1235   6.763   4.140   2.575  5.0677  1.5082  0.1893
  219SOL    HW2 1236   6.758   4.042   2.690  0.1598  1.5677  0.2246
  220SOL     OW 1237   1.072   5.511   1.741 -0.7623 -0.1525  0.2749
  220SOL    HW1 1238   0.981   5.520   1.711 -0.8106 -0.4444  0.3348
  220SOL    HW2 1239   1.072   5.548   1.829 -0.8846 -0.4066  0.3830
  221SOL     OW 1240   4.483   6.076   4.886 -0.3366  0.6665 -0.6695
  221SOL    HW1 1241   4.527   6.089   4.970  1.0695 -1.6371 -0.9775
  221SOL    HW2 1242   4.512   6.150   4.832  0.8902  0.7306  0.0343
  222SOL     OW 1243   4.956   2.990   8.437  0.4619 -0.5071  0.8148
  222SOL    HW1 1244   5.039   2.958   8.472  0.5031 -1.3922 -0.0351
  222SOL    HW2 1245   4.897   2.915   8.442  0.4986 -0.7046 -1.0449
  223SOL     OW 1246   5.421   4.907   4.668 -0.4781 -0.0148 -0.4311
  223SOL    HW1 1247   5.336   4.931   4.704  0.0358 -0.4778  1.1760
  223SOL    HW2 1248   5.405   4.827   4.617 -1.2194  0.6659 -1.3037
  224SOL     OW 1249   1.366   3.549   3.596 -0.1954 -0.0897  0.2710
  224SOL    HW1 1250   1.386   3.643   3.599 -0.4040 -0.0060 -0.6471
  224SOL    HW2 1251   1.271   3.545   3.608 -0.0576 -0.2717  1.4306
  225SOL     OW 1252   6.828   8.188   3.786  0.2008 -0.2459 -0.2845
  225SOL    HW1 1253   6.846   8.270   3.740 -0.1204 -0.8881 -1.6054
  225SOL    HW2 1254   6.877   8.196   3.868  1.7715  0.4614 -1.2300
  226SOL     OW 1255   3.023   0.766   6.026  0.7840  0.6403 -0.6323
  226SOL    HW1 1256   3.032   0.671   6.030  0.1077  0.5559 -0.8390
  226SOL    HW2 1257   3.003   0.785   5.934 -0.3636  0.8374 -0.3678
  227SOL     OW 1258   4.073   5.719   8.668 -0.0977  0.1467  0.5177
  227SOL    HW1 1259   4.039   5.807   8.655 -0.7360 -0.0324  0.9681
  227SOL    HW2 1260   4.069   5.704   8.762  1.8943  0.3765  0.6950
  228SOL     OW 1261   7.517   1.003   1.230 -0.1485  0.6368 -0.4494
  228SOL    HW1 1262   7.547   1.085   1.267 -0.2109  0.9588 -1.0969
  228SOL    HW2 1263   7.513   1.019   1.136  0.5157 -0.3132 -0.6616
  229SOL     OW 1264   8.611   3.845   7.128 -0.1370  0.5189  0.3353
  229SOL    HW1 1265   8.697   3.807   7.114 -1.1270 -0.8059 -3.1089
  229SOL    HW2 1266   8.606   3.859   7.223  2.5907 -2.3511  1.0648
  230SOL     OW 1267   4.433   7.460   7.598  1.0722  0.0431 -0.4047
  230SOL    HW1 1268   4.420   7.365   7.598 -0.0221  0.1573  1.0913
  230SOL    HW2 1269   4.437   7.484   7.505  2.7476 -1.6076 -0.8131
  231SOL     OW 1270   5.557   6.928   6.202 -0.3674 -0.3892 -0.7318
  231SOL    HW1 1271   5.615   6.917   6.278 -1.9357 -0.2680  0.5465
  231SOL    HW2 1272   5.516   6.842   6.191 -0.0816 -0.4299 -1.5130
  232SOL     OW 1273   5.566   6.448   3.795 -0.3186 -0.3329  0.0486
  232SOL    HW1 1274   5.482   6.414   3.765 -0.8294 -0.1941  1.2976
  232SOL    HW2 1275   5.546   6.498   3.874  1.1027 -1.4272  1.1589
  233SOL     OW 1276   1.887   6.298   4.398 -0.4192 -0.1574  0.5085
  233SOL    HW1 1277   1.806   6.248   4.390  0.2764 -1.4337  1.2767
  233SOL    HW2 1278   1.863   6.373   4.453 -1.2621 -0.0825  0.0545
  234SOL     OW 1279   4.842   7.457   5.441 -0.0396 -0.4872  0.4395
  234SOL    HW1 1280   4.825   7.423   5.353 -0.5765 -2.7574  1.3432
  234SOL    HW2 1281   4.756   7.466   5.481  0.2607 -0.7441  1.1669
  235SOL     OW 1282   8.393   9.934   3.216  0.0347 -0.6723 -0.2844
  235SOL    HW1 1283   8.389  10.015   3.164  1.5569 -0.2738  0.1511
  235SOL    HW2 1284   8.459   9.881   3.171 -0.4817 -1.4022 -0.1887
  236SOL     OW 1285   4.731   1.103   7.153  0.3721 -0.0665 -0.0826
  236SOL    HW1 1286   4.787   1.026   7.156  1.1472  0.3778 -1.8407
  236SOL    HW2 1287   4.689   1.099   7.067 -0.2162  1.0312  0.1301
  237SOL     OW 1288   4.302   0.295   1.109 -0.0507  0.1288 -0.4432
  237SOL    HW1 1289   4.354   0.253   1.040 -0.2434  0.9249 -1.0838
  237SOL    HW2 1290   4.280   0.224   1.169  2.0606 -0.1902  0.0350
  238SOL     OW 1291   7.755   9.496   3.889  0.4861 -0.6604  0.4647
  238SOL    HW1 1292   7.792   9.468   3.805 -0.6507  1.0803 -0.6504
  238SOL    HW2 1293   7.808   9.572   3.914  1.1099 -1.4300  1.5948
  239SOL     OW 1294   7.564   2.535   6.646  0.2568 -0.5275 -0.7525
  239SOL    HW1 1295   7.483   2.511   6.601 -0.2261 -1.1827  0.4247
  239SOL    HW2 1296   7.555   2.629   6.663  0.9046 -0.0131 -2.8757
  240SOL     OW 1297   3.262   0.929   7.103  0.5240  0.2851  0.5308
  240SOL    HW1 1298   3.225   1.011   7.135 -0.0797  0.7411 -1.2390
  240SOL    HW2 1299   3.269   0.940   7.009 -3.1706 -2.9719 -0.4327
  241SOL     OW 1300   7.270   2.852   5.712 -0.1476  0.1123 -0.0803
  241SOL    HW1 1301   7.271   2.821   5.621 -2.1595  2.6422 -1.0611
  241SOL    HW2 1302   7.246   2.774   5.762 -0.0127 -1.1206 -1.8058
  242SOL     OW 1303   1.867   1.594   2.005  0.4943 -0.8602  0.1059
  242SOL    HW1 1304   1.929   1.523   1.988 -0.2040 -1.8125  1.3412
  242SOL    HW2 1305   1.783   1.561   1.974  0.5745  0.4581 -1.6376
  243SOL     OW 1306   8.748   1.785   4.491  0.2782  0.4450  0.2514
  243SOL    HW1 1307   8.810   1.808   4.422 -0.2830  1.3067  0.0252
  243SOL    HW2 1308   8.668   1.760   4.445  0.2667 -0.1053  0.5604
  244SOL     OW 1309   8.489   6.356   9.783 -0.0066  0.2657  0.2873
  244SOL    HW1 1310   8.402   6.373   9.745  0.0845 -1.8662 -1.0844
  244SOL    HW2 1311   8.545   6.423   9.745 -0.4996 -0.1357 -1.2327
  245SOL     OW 1312   7.795   5.822   2.678  0.8163  0.4700 -0.5225
  245SOL    HW1 1313   7.779   5.903   2.726 -2.4908 -0.6970  0.6405
  245SOL    HW2 1314   7.759   5.838   2.591 -0.4366  0.0912 -0.0908
  246SOL     OW 1315   0.825   8.362   5.535  0.4496  0.5301  0.1745
  246SOL    HW1 1316   0.916   8.345   5.559  0.8649  0.9506 -0.9905
  246SOL    HW2 1317   0.792   8.419   5.605  0.8527 -0.2080  0.9786
  247SOL     OW 1318   6.109   1.117   3.560 -0.4835  0.2194 -0.5017
  247SOL    HW1 1319   6.014   1.129   3.559 -0.6413 -0.8751  0.2455
  247SOL    HW2 1320   6.142   1.187   3.503 -1.6874  0.9886 -0.2913
  248SOL     OW 1321   5.278   7.446   8.548  0.1939 -0.4862 -0.1790
  248SOL    HW1 1322   5.183   7.452   8.559 -0.1188 -2.3148 -1.4115
  248SOL    HW2 1323   5.308   7.396   8.623  0.3525  0.8779  0.7044
  249SOL     OW 1324   3.828   8.124   2.824 -0.1518 -0.0446  0.4784
  249SOL    HW1 1325   3.876   8.203   2.799 -1.1102  0.7632  1.1092
  249SOL    HW2 1326   3.749   8.125   2.771 -0.1404 -0.6310  0.4405
  250SOL     OW 1327   5.205   4.147   1.870  0.4397 -0.3046 -0.3590
  250SOL    HW1 1328   5.245   4.077   1.922 -1.2934  0.9641  2.9806
  250SOL    HW2 1329   5.277   4.185   1.821  2.6110 -0.7032  2.2887
  251SOL     OW 1330   3.167   7.362   0.262 -0.6108 -0.0978  0.4609
  251SOL    HW1 1331   3.185   7.322   0.176 -0.2025 -1.8391  1.3104
  251SOL    HW2 1332   3.233   7.432   0.270  1.5564 -2.0287  0.6792
  252SOL     OW 1333   6.530   1.305   5.410 -0.0247 -0.1011 -0.1493
  252SOL    HW1 1334   6.547   1.385   5.361  0.4958 -0.5795 -0.7635
  252SOL    HW2 1335   6.613   1.257   5.407 -0.5169 -0.9624 -0.3537
  253SOL     OW 1336   2.324   6.732   3.778  0.4038  0.2538  0.1139
  253SOL    HW1 1337   2.342   6.826   3.779  1.3435  0.1139 -1.2373
  253SOL    HW2 1338   2.230   6.726   3.762  0.3390  0.9648  0.2063
  254SOL     OW 1339   5.943   3.368   3.748 -0.3263  0.3034  0.2626
  254SOL    HW1 1340   5.882   3.298   3.769  0.5095 -0.4861  0.1006
  254SOL    HW2 1341   5.997   3.378   3.827 -0.0998  0.4034  0.0977
  255SOL     OW 1342   5.895   4.952   4.707  0.7682 -0.1513 -0.4761
  255SOL    HW1 1343   5.821   4.973   4.650  2.0289  0.4187 -2.0175
  255SOL    HW2 1344   5.881   5.005   4.785  0.2230  1.0049 -1.3181
  256SOL     OW 1345  -0.017   4.160   6.289  0.3506 -0.5309 -0.2178
  256SOL    HW1 1346   0.059   4.214   6.312 -0.5348  1.4481 -1.6307
  256SOL    HW2 1347  -0.034   4.108   6.368  0.7186  1.9513  1.6218
  257SOL     OW 1348   8.351   5.169   8.624 -0.3076  0.5052  0.4703
  257SOL    HW1 1349   8.357   5.221   8.704  0.6789  1.6442 -0.3085
  257SOL    HW2 1350   8.429   5.193   8.574  0.0794 -1.5772 -0.0301
  258SOL     OW 1351   1.333   3.596   6.937 -0.0401  0.2592  0.2775
  258SOL    HW1 1352   1.325   3.502   6.954  0.7079 -0.7596 -3.8183
  258SOL    HW2 1353   1.255   3.616   6.884  0.8317  1.4175 -0.6050
  259SOL     OW 1354   0.856   3.565   4.003 -0.4162 -0.2562 -0.4898
  259SOL    HW1 1355   0.799   3.570   4.080  0.4790  1.8812  0.1282
  259SOL    HW2 1356   0.917   3.493   4.022 -0.9286 -0.4999  0.2688
  260SOL     OW 1357   1.027   7.022   5.086  0.5563 -0.2112  0.4664
  260SOL    HW1 1358   0.949   7.053   5.132  0.0123 -0.9781  0.0752
  260SOL    HW2 1359   0.993   6.971   5.013  1.3265 -4.1820  2.6127
  261SOL     OW 1360   9.334   4.762   1.258 -0.5706 -0.0726 -0.0352
  261SOL    HW1 1361   9.315   4.846   1.216 -0.0451  0.0100 -0.1167
  261SOL    HW2 1362   9.418   4.735   1.220 -1.0949 -1.0114 -0.5927
  262SOL     OW 1363   7.965   8.583   7.793  0.8958  0.1356 -0.0650
  262SOL    HW1 1364   8.054   8.614   7.782  0.2163  3.0402  1.6293
  262SOL    HW2 1365   7.970   8.520   7.864  1.6576 -0.2421 -0.4407
  263SOL     OW 1366   0.043   1.019   7.051  0.7212 -0.5199  0.2019
  263SOL    HW1 1367   0.024   1.112   7.041 -0.9400 -0.8345  0.1445
  263SOL    HW2 1368   0.130   1.016   7.092 -0.2426  1.1271  2.5500
  264SOL     OW 1369   8.481   8.254   6.637 -0.0765 -0.3130  0.6454
  264SOL    HW1 1370   8.401   8.307   6.640  0.2537  0.1416  3.5972
  264SOL    HW2 1371   8.547   8.308   6.680  2.0945 -0.3934 -2.2879
  265SOL     OW 1372   8.918   1.705   5.706  0.5310  0.1927 -0.1892
  265SOL    HW1 1373   8.864   1.736   5.634 -0.9783 -0.7513  0.4896
  265SOL    HW2 1374   8.959   1.625   5.673  0.3270  0.0967 -0.2103
  266SOL     OW 1375   3.743   7.972   2.195 -0.0394 -0.0802 -0.0651
  266SOL    HW1 1376   3.765   7.880   2.211 -0.2173 -0.0924  0.1096
  266SOL    HW2 1377   3.702   7.973   2.109 -1.5973 -0.4146  0.6422
  267SOL     OW 1378   2.975   1.599   6.942  0.4423 -0.7824 -0.1645
  267SOL    HW1 1379   2.908   1.568   7.003  0.2987  0.3289  0.2691
  267SOL    HW2 1380   3.028   1.660   6.993  0.1188  0.4335 -1.2384
  268SOL     OW 1381   2.702   6.377   0.968  0.3514 -0.8087 -0.0895
  268SOL    HW1 1382   2.645   6.353   1.041  0.8332  0.4933  0.7509
  268SOL    HW2 1383   2.762   6.302   0.960 -0.6573 -1.6374 -0.1810
  269SOL     OW 1384   3.306   5.373   4.639  0.2744  0.1100 -0.2329
  269SOL    HW1 1385   3.360   5.439   4.682  0.7298 -0.1939 -0.3273
  269SOL    HW2 1386   3.282   5.312   4.709  0.0966  0.2170 -0.2002
  270SOL     OW 1387   2.396   7.576   5.076  0.5311 -0.4248 -0.6457
  270SOL    HW1 1388   2.439   7.516   5.016  2.0108 -0.7968  0.7468
  270SOL    HW2 1389   2.466   7.628   5.114 -0.6063  1.4771 -0.9947
  271SOL     OW 1390   8.576   0.093   2.834 -0.2048  0.0980  0.2660
  271SOL    HW1 1391   8.538   0.099   2.922 -0.3694  1.7968  0.1077
  271SOL    HW2 1392   8.578   0.183   2.803  0.4109 -0.4169 -1.2514
  272SOL     OW 1393   2.864   4.870   3.564  0.2817 -0.2864  0.7435
  272SOL    HW1 1394   2.877   4.958   3.601  1.6332  0.0896 -0.5410
  272SOL    HW2 1395   2.916   4.813   3.621  1.1482  0.0724  0.3308
  273SOL     OW 1396   5.879   9.288   3.438  0.0737  0.6748 -0.7689
  273SOL    HW1 1397   5.848   9.247   3.519  1.7606  0.1013 -0.3549
  273SOL    HW2 1398   5.860   9.381   3.450 -2.2537  0.2881 -0.9781
  274SOL     OW 1399   9.868   2.209   9.067 -0.0296 -0.0568 -0.2000
  274SOL    HW1 1400   9.888   2.211   8.973 -0.8514 -2.9344 -0.5054
  274SOL    HW2 1401   9.948   2.174   9.108 -0.1326 -0.0288  0.0277
  275SOL     OW 1402   3.076   2.189   1.724  0.9742 -0.4230  0.0059
  275SOL    HW1 1403   3.041   2.140   1.649 -0.6802 -1.1847  1.1907
  275SOL    HW2 1404   3.138   2.129   1.765 -0.7663 -1.4824  1.2336
  276SOL     OW 1405   5.369   4.359   9.218 -0.4945 -0.2619  0.0253
  276SOL    HW1 1406   5.388   4.415   9.293  0.1557 -0.2913 -0.1120
  276SOL    HW2 1407   5.451   4.311   9.202 -0.7458 -0.5401 -0.4595
  277SOL     OW 1408   8.021   3.974   5.808 -0.1307 -0.5521  0.2678
  277SOL    HW1 1409   8.087   3.992   5.875  0.8712 -2.4339 -0.1420
  277SOL    HW2 1410   8.004   3.880   5.816 -1.8459 -0.3513 -0.4995
  278SOL     OW 1411   1.652   8.617   3.092  0.1891 -0.4308 -0.8182
  278SOL    HW1 1412   1.692   8.548   3.145 -1.3649 -0.8118 -0.0681
  278SOL    HW2 1413   1.715   8.689   3.095 -0.0242 -0.2447  1.9937
  279SOL     OW 1414   7.538   3.719   2.328  0.5141 -0.3491 -0.0382
  279SOL    HW1 1415   7.624   3.676   2.334  0.1725 -1.0220  0.0779
  279SOL    HW2 1416   7.477   3.658   2.368 -0.2158 -0.4256 -1.2017
  280SOL     OW 1417   4.987   1.622   4.499  0.2086 -0.1900 -0.6263
  280SOL    HW1 1418   4.905   1.597   4.456  0.0767 -0.7109 -0.0853
  280SOL    HW2 1419   5.055   1.579   4.449  0.2516  1.0798 -1.7153
  281SOL     OW 1420   9.053   8.530   2.708  0.7362 -0.1087  0.2030
  281SOL    HW1 1421   8.976   8.523   2.765  1.0288  1.4276  0.8211
  281SOL    HW2 1422   9.110   8.458   2.736 -0.0674 -0.7002  0.3605
  282SOL     OW 1423   3.571   2.161   3.121  0.2287 -0.1998  0.3815
  282SOL    HW1 1424   3.622   2.089   3.159  0.2335 -0.6110 -0.3788
  282SOL    HW2 1425   3.487   2.156   3.166 -0.0365 -1.1722 -0.2008
  283SOL     OW 1426   3.885   2.422   0.822  0.3723 -0.1684  0.0905
  283SOL    HW1 1427   3.873   2.516   0.834  1.3838 -0.0957  0.6444
  283SOL    HW2 1428   3.796   2.387   0.814 -0.0087  1.1256 -2.5841
  284SOL     OW 1429   1.569   7.013   0.632  0.4403 -0.2446  0.2331
  284SOL    HW1 1430   1.527   6.995   0.548  0.7767  0.4203 -0.0853
  284SOL    HW2 1431   1.615   6.932   0.654  1.4506 -0.0128 -0.8813
  285SOL     OW 1432   3.361   9.978   7.432 -0.1256  0.0293  0.4799
  285SOL    HW1 1433   3.405   9.952   7.513 -1.8848 -1.0803  1.1364
  285SOL    HW2 1434   3.375   9.904   7.372  0.5317  0.5201  0.0146
  286SOL     OW 1435   3.369   4.713   8.921  0.5282  0.0987  0.0627
  286SOL    HW1 1436   3.421   4.722   9.001 -1.7527 -1.2673  1.8380
  286SOL    HW2 1437   3.392   4.627   8.887 -1.9625 -1.5641  2.1365
  287SOL     OW 1438   3.582   1.873   4.886  0.0646 -0.6247 -0.5755
  287SOL    HW1 1439   3.496   1.839   4.863 -0.4130 -0.6173  1.0336
  287SOL    HW2 1440   3.572   1.901   4.977  1.8030 -0.7366 -0.3245
  288SOL     OW 1441   9.294   7.040   3.708  0.3831  0.2831 -0.1664
  288SOL    HW1 1442   9.263   7.018   3.621 -0.4579 -1.8122  0.6138
  288SOL    HW2 1443   9.215   7.060   3.758  0.5545 -1.3005  0.8192
  289SOL     OW 1444   3.228   3.328   2.162 -0.3985 -0.3488 -0.3111
  289SOL    HW1 1445   3.233   3.254   2.222 -0.4994 -1.5893 -1.7915
  289SOL    HW2 1446   3.209   3.403   2.219 -1.2532 -1.5929  1.1176
  290SOL     OW 1447   5.088   8.852   9.283  0.4104 -0.4524 -0.5248
  290SOL    HW1 1448   5.082   8.907   9.362 -0.5925 -0.3041 -0.6968
  290SOL    HW2 1449   5.181   8.828   9.279  0.8721  1.1224 -0.3646
  291SOL     OW 1450   4.339   5.482   1.014 -0.0034  0.1953  0.0812
  291SOL    HW1 1451   4.346   5.389   0.992  1.0869  0.5894 -1.3437
  291SOL    HW2 1452   4.290   5.520   0.941 -2.2384  0.4509  1.6199
  292SOL     OW 1453   2.431   2.847   6.442 -0.1787  0.4970 -0.2961
  292SOL    HW1 1454   2.438   2.888   6.356 -1.2864 -1.5765 -1.4411
  292SOL    HW2 1455   2.338   2.850   6.463 -0.1667 -0.6292 -0.0216
  293SOL     OW 1456   4.609   4.022   8.075  0.3226 -0.2114 -0.3330
  293SOL    HW1 1457   4.650   4.011   7.990  0.9020 -0.3045 -0.0421
  293SOL    HW2 1458   4.658   4.093   8.117 -0.5324  0.4506 -0.4249
  294SOL     OW 1459   8.035   8.922   3.582  0.5914 -0.3592 -0.1637
  294SOL    HW1 1460   8.032   8.980   3.507  0.3577  0.1771  0.2518
  294SOL    HW2 1461   7.943   8.915   3.610  0.5707 -1.1757 -0.3920
  295SOL     OW 1462   6.482   9.613   1.762  0.0540 -0.0240 -0.2299
  295SOL    HW1 1463   6.419   9.547   1.732  1.6743 -1.5845 -0.3189
  295SOL    HW2 1464   6.544   9.565   1.815  1.0039  1.5466  0.1435
  296SOL     OW 1465   4.922   2.503   8.705 -0.1792  0.2121  0.1769
  296SOL    HW1 1466   4.835   2.483   8.670 -0.2859 -1.6565  1.3382
  296SOL    HW2 1467   4.971   2.421   8.698  1.5343  1.2303 -0.4787
  297SOL     OW 1468   9.550   4.929   8.976 -0.2061  0.5746 -0.0945
  297SOL    HW1 1469   9.641   4.917   8.949 -0.0446  1.7527 -0.1083
  297SOL    HW2 1470   9.553   4.929   9.071 -0.3959 -0.7787 -0.0727
  298SOL     OW 1471   7.192   0.757   8.651  0.0588 -0.1694  0.0589
  298SOL    HW1 1472   7.119   0.806   8.613 -1.1510 -1.5119  0.5390
  298SOL    HW2 1473   7.264   0.819   8.654 -1.3974  1.5786  0.6637
  299SOL     OW 1474   5.436   2.648   7.775 -0.8004 -0.3493 -0.5180
  299SOL    HW1 1475   5.391   2.732   7.788  0.7435  0.2848  1.3612
  299SOL    HW2 1476   5.377   2.597   7.720 -1.9832  1.8116 -1.3849
  300SOL     OW 1477   0.919   4.837   9.216  0.3045 -0.8865 -0.2394
  300SOL    HW1 1478   0.949   4.825   9.306 -1.1600 -0.6728  0.3127
  300SOL    HW2 1479   0.991   4.882   9.172 -0.6270  3.4325  2.0907
  301SOL     OW 1480   8.622   0.284   8.585 -0.0075 -0.3224  0.2890
  301SOL    HW1 1481   8.675   0.207   8.561  0.5904  0.3538 -0.6063
  301SOL    HW2 1482   8.677   0.333   8.646 -0.4661 -0.6875  1.0101
  302SOL     OW 1483   4.345   2.390   4.990 -0.0458  0.2811  0.1861
  302SOL    HW1 1484   4.298   2.390   4.906 -0.1978  2.7727  0.1903
  302SOL    HW2 1485   4.420   2.332   4.975  0.0215  0.7916 -1.7359
  303SOL     OW 1486   6.570   3.456   0.842 -0.4920 -0.3789 -0.2359
  303SOL    HW1 1487   6.499   3.506   0.801 -0.6389  0.0220  0.4959
  303SOL    HW2 1488   6.648   3.480   0.792 -0.5025  0.8445  0.3079
  304SOL     OW 1489   1.461   9.279   4.350  0.0813  0.1223 -0.0673
  304SOL    HW1 1490   1.454   9.254   4.442  0.9416 -2.1257 -0.5575
  304SOL    HW2 1491   1.460   9.375   4.351 -1.7587  0.1461  2.0897
  305SOL     OW 1492   0.527   2.496   8.215 -0.6966  0.5993 -0.2411
  305SOL    HW1 1493   0.446   2.472   8.260  0.4310  2.1226  2.9313
  305SOL    HW2 1494   0.529   2.592   8.219  1.4697  0.5944  0.3050
  306SOL     OW 1495   9.761   6.139   9.038  0.0271  0.5198 -0.4529
  306SOL    HW1 1496   9.720   6.115   8.954  1.2240  0.7020 -1.1171
  306SOL    HW2 1497   9.721   6.081   9.102 -0.2371 -0.2766 -1.3166
  307SOL     OW 1498   4.653   5.923   1.589 -0.4083 -0.4453  0.2936
  307SOL    HW1 1499   4.573   5.888   1.550 -0.0540 -1.1866  0.2077
  307SOL    HW2 1500   4.624   5.966   1.670 -0.8816 -0.7455  0.2865
  308SOL     OW 1501   5.891   3.940   3.301 -0.9928  0.2788  0.1134
  308SOL    HW1 1502   5.801   3.928   3.331 -1.6408  1.1545 -1.3842
  308SOL    HW2 1503   5.885   3.941   3.205  0.6964 -0.2132 -0.0424
  309SOL     OW 1504   5.147   0.083   7.639 -0.2959  0.3492  0.8693
  309SOL    HW1 1505   5.232   0.065   7.598 -0.2646  2.3580 -0.0827
  309SOL    HW2 1506   5.089   0.015   7.606  0.5226 -0.0125  0.1317
  310SOL     OW 1507   0.856   5.189   2.316  0.1932 -0.3944  0.3597
  310SOL    HW1 1508   0.762   5.175   2.307  0.1949 -0.0056 -0.3215
  310SOL    HW2 1509   0.893   5.166   2.231  0.7054 -0.4764  0.5998
  311SOL     OW 1510   0.659   7.006   9.342  0.3939 -0.2665  0.3486
  311SOL    HW1 1511   0.695   7.084   9.385  1.3214  0.4125 -1.5297
  311SOL    HW2 1512   0.580   7.037   9.297  0.1964 -0.6495  0.4245
  312SOL     OW 1513   3.984   4.296   5.763 -0.1065  0.3341 -0.5301
  312SOL    HW1 1514   4.007   4.388   5.754  0.0551  0.4484  0.8247
  312SOL    HW2 1515   4.030   4.267   5.842 -2.3254 -0.1849  0.6551
  313SOL     OW 1516   1.317   9.215   5.955  0.2575 -0.0510  0.1023
  313SOL    HW1 1517   1.348   9.290   5.905 -1.0033 -0.1888 -0.9424
  313SOL    HW2 1518   1.339   9.236   6.046  0.3342  1.3762 -0.2257
  314SOL     OW 1519   6.595   4.525   1.059 -0.6172 -0.6605  0.3978
  314SOL    HW1 1520   6.650   4.598   1.085 -1.7463  0.8396 -1.1201
  314SOL    HW2 1521   6.636   4.491   0.979 -1.3799 -0.0752 -0.2654
  315SOL     OW 1522   9.742   8.814   5.681 -0.5670 -0.4176 -0.0996
  315SOL    HW1 1523   9.762   8.817   5.774 -2.2974  1.3653  0.2835
  315SOL    HW2 1524   9.801   8.878   5.641 -0.4666 -0.4890 -0.0622
  316SOL     OW 1525   6.164   9.866   8.974  0.3337 -0.3636 -0.7175
  316SOL    HW1 1526   6.141   9.874   9.067 -0.3501 -0.6425 -0.8572
  316SOL    HW2 1527   6.112   9.934   8.931  1.6900  0.7072 -0.7427
  317SOL     OW 1528   9.330   2.310   6.486 -0.2121  0.0135 -0.8128
  317SOL    HW1 1529   9.336   2.214   6.489 -0.9073 -0.0538 -1.4822
  317SOL    HW2 1530   9.420   2.338   6.470 -0.0688 -0.5410 -1.0148
  318SOL     OW 1531   1.062   0.574   7.357  0.0138  0.3643 -0.1389
  318SOL    HW1 1532   1.126   0.607   7.421 -0.9022  0.1892  0.9087
  318SOL    HW2 1533   1.100   0.593   7.272  1.7873 -0.3885  0.4530
  319SOL     OW 1534   7.015   5.734   4.052  0.0658  0.1747 -0.3235
  319SOL    HW1 1535   7.041   5.773   3.969 -1.1728  1.5975 -0.0994
  319SOL    HW2 1536   6.919   5.738   4.051  0.0321  0.9025  1.4588
  320SOL     OW 1537   3.749   0.391   5.221  0.3134 -0.3302  0.4575
  320SOL    HW1 1538   3.763   0.331   5.294 -0.2670 -0.7663  0.2177
  320SOL    HW2 1539   3.728   0.334   5.147 -2.6998  0.2138  0.7620
  321SOL     OW 1540   9.716   4.723   7.857  0.2819 -0.1659  0.3436
  321SOL    HW1 1541   9.691   4.633   7.834 -1.0069  0.3910 -0.5415
  321SOL    HW2 1542   9.637   4.761   7.894 -0.7759  2.0151 -3.5946
  322SOL     OW 1543   3.068  -0.001   0.049  0.0079 -0.2925 -0.4613
  322SOL    HW1 1544   3.034   0.085   0.074  2.1435 -0.0518  2.0751
  322SOL    HW2 1545   2.995  -0.061   0.065 -0.2136  0.5284  2.1083
  323SOL     OW 1546   2.572   6.296   9.347 -0.6676 -0.0878 -0.2007
  323SOL    HW1 1547   2.537   6.237   9.281 -0.2736 -0.3577 -0.1727
  323SOL    HW2 1548   2.513   6.287   9.422 -1.0789  0.1720 -0.4888
  324SOL     OW 1549   4.060   4.720   7.403  0.1844  0.6145 -0.0618
  324SOL    HW1 1550   4.134   4.780   7.399  0.5532  0.1909  0.1800
  324SOL    HW2 1551   4.050   4.701   7.497  0.3188  0.0152 -0.1593
  325SOL     OW 1552   9.556   3.567   0.716  0.0905  0.4803 -0.0911
  325SOL    HW1 1553   9.624   3.555   0.782 -1.4125  0.2272  1.4725
  325SOL    HW2 1554   9.526   3.657   0.729 -2.3399 -0.4959  1.7610
  326SOL     OW 1555   8.838   0.156   0.803 -0.3907 -0.2372 -0.0365
  326SOL    HW1 1556   8.884   0.087   0.852  2.2866  1.8585  0.6566
  326SOL    HW2 1557   8.797   0.210   0.871 -2.0155 -0.7781 -0.5411
  327SOL     OW 1558   7.689   1.513   6.040  0.0668 -0.6439 -0.4925
  327SOL    HW1 1559   7.599   1.528   6.011 -0.5407  1.9897  2.2418
  327SOL    HW2 1560   7.740   1.577   5.991 -0.4518  1.4696  1.5523
  328SOL     OW 1561   0.532   6.129   2.372  0.2498 -0.2372  0.2115
  328SOL    HW1 1562   0.603   6.161   2.318 -0.2340 -1.9806 -1.6119
  328SOL    HW2 1563   0.455   6.176   2.341  0.6435  2.4403  2.9076
  329SOL     OW 1564   9.985   2.304   2.346 -0.0750 -0.0041  0.3958
  329SOL    HW1 1565   9.950   2.393   2.354  0.3814  0.1217  1.0441
  329SOL    HW2 1566   9.983   2.287   2.252 -2.0454 -0.0794  0.4014
  330SOL     OW 1567   7.864   2.958   1.155 -0.1073 -0.0572  0.5853
  330SOL    HW1 1568   7.768   2.953   1.159 -0.0723 -1.2529  0.4261
  330SOL    HW2 1569   7.893   2.934   1.243  0.0612 -1.5029  0.1728
  331SOL     OW 1570   5.452   8.814   2.979 -0.1592 -0.6149 -0.1052
  331SOL    HW1 1571   5.381   8.835   2.919 -1.7748 -1.0209  1.5781
  331SOL    HW2 1572   5.532   8.834   2.929 -1.4254  2.0168 -1.3154
  332SOL     OW 1573   8.368   0.809   6.351  0.1508  0.6232  0.1492
  332SOL    HW1 1574   8.294   0.792   6.410  0.8605 -0.2676  0.8141
  332SOL    HW2 1575   8.427   0.865   6.402  0.3291  0.6301 -0.0636
  333SOL     OW 1576   8.519   9.810   5.596  0.2126  0.2180 -0.6192
  333SOL    HW1 1577   8.503   9.822   5.690 -2.5465  0.4696 -1.0371
  333SOL    HW2 1578   8.438   9.773   5.563  1.0484  0.3563 -2.9596
  334SOL     OW 1579   8.126   7.327   1.885 -0.1404  0.3513 -0.0355
  334SOL    HW1 1580   8.033   7.349   1.885 -0.0513  0.9094 -1.5829
  334SOL    HW2 1581   8.140   7.283   1.801  1.1026  0.8865 -0.1390
  335SOL     OW 1582   0.893   9.126   5.953 -0.3723  0.2708 -0.2113
  335SOL    HW1 1583   0.867   9.048   5.904  0.3247  0.1432 -0.3905
  335SOL    HW2 1584   0.935   9.182   5.887  0.4340  0.1645  0.2046
  336SOL     OW 1585   6.825   7.088   5.463  0.5662 -0.2502 -0.1807
  336SOL    HW1 1586   6.828   7.069   5.369  0.2996 -1.7126  0.0838
  336SOL    HW2 1587   6.760   7.157   5.472 -0.8424 -1.4343 -0.8854
  337SOL     OW 1588   4.188   2.296   1.821  0.4245 -0.3915 -0.1147
  337SOL    HW1 1589   4.147   2.255   1.744  0.1181  0.5054 -0.4523
  337SOL    HW2 1590   4.114   2.332   1.870  0.5704 -1.4906  0.9346
  338SOL     OW 1591   3.512   6.763   3.348 -0.2412  0.6054 -0.4994
  338SOL    HW1 1592   3.558   6.846   3.365  2.9341 -1.2058  0.6169
  338SOL    HW2 1593   3.530   6.744   3.256  1.2979 -0.0512 -0.0896
  339SOL     OW 1594   0.461   7.249   6.709  0.2150  0.1469 -0.3220
  339SOL    HW1 1595   0.528   7.261   6.642 -1.2415 -0.9952 -2.0347
  339SOL    HW2 1596   0.381   7.282   6.669 -0.4192  0.8853  1.4575
  340SOL     OW 1597   2.180   1.038   7.345 -0.9633  0.0013  0.5153
  340SOL    HW1 1598   2.135   1.122   7.355 -2.0262 -0.5745  0.7111
  340SOL    HW2 1599   2.113   0.979   7.310  0.0723 -0.4956 -0.6800
  341SOL     OW 1600   6.001   4.997   5.091  0.3234 -0.3126  0.1602
  341SOL    HW1 1601   5.943   5.055   5.041  0.2301 -1.8235 -1.6147
  341SOL    HW2 1602   6.088   5.034   5.080 -0.0517  1.1018  1.5469
  342SOL     OW 1603   7.247   6.609   6.989 -0.3781  0.2009  0.4907
  342SOL    HW1 1604   7.312   6.676   7.007 -1.0798  1.9941 -2.8778
  342SOL    HW2 1605   7.290   6.549   6.929 -1.0346 -0.0698  0.2821
  343SOL     OW 1606   5.435   7.847   2.647 -0.2882  0.5036 -0.0398
  343SOL    HW1 1607   5.465   7.919   2.703 -0.7522  1.2427 -0.7097
  343SOL    HW2 1608   5.486   7.857   2.566 -0.0445 -0.1944  0.0216
  344SOL     OW 1609   2.440   9.625   8.739  0.0361  0.0177 -0.3098
  344SOL    HW1 1610   2.356   9.627   8.785  0.0744  4.4327  0.0037
  344SOL    HW2 1611   2.421   9.579   8.657 -2.3112 -0.2898  0.3173
  345SOL     OW 1612   6.339   7.749   8.875  0.1074 -0.0625 -0.0385
  345SOL    HW1 1613   6.294   7.752   8.790 -0.2475 -1.0858  0.1018
  345SOL    HW2 1614   6.340   7.840   8.905  0.2248  0.3135 -1.1300
  346SOL     OW 1615   7.921   5.820   4.776 -0.1545  0.1007  0.2761
  346SOL    HW1 1616   7.838   5.808   4.824 -0.2262 -1.0850 -0.0999
  346SOL    HW2 1617   7.895   5.825   4.684  0.0839  1.2026  0.2565
  347SOL     OW 1618   8.348   7.569   7.004 -0.1330  0.1302  0.5841
  347SOL    HW1 1619   8.316   7.650   7.043 -0.4250  0.4791 -0.3651
  347SOL    HW2 1620   8.318   7.500   7.064  0.3425  0.7239  1.5428
  348SOL     OW 1621   8.436   8.586   0.473  0.1459  0.7723  0.2817
  348SOL    HW1 1622   8.386   8.616   0.548  0.3166  0.2472  0.6104
  348SOL    HW2 1623   8.387   8.512   0.438  0.8880 -0.0124  0.8569
  349SOL     OW 1624   8.967   8.610   7.603  0.1383  0.0394 -0.1399
  349SOL    HW1 1625   9.008   8.657   7.676  1.8601  0.6464 -1.4278
  349SOL    HW2 1626   8.873   8.612   7.623  0.5200  0.6182  1.7890
  350SOL     OW 1627   9.714   4.690   5.695 -0.0389 -0.4676  0.2181
  350SOL    HW1 1628   9.635   4.741   5.708 -0.2542 -0.4900 -0.9221
  350SOL    HW2 1629   9.699   4.641   5.615  0.4697 -1.7505  0.8671
  351SOL     OW 1630   8.615   0.616   1.520 -0.2074 -0.0106 -0.1999
  351SOL    HW1 1631   8.609   0.593   1.427  0.9774 -0.9219 -0.0890
  351SOL    HW2 1632   8.667   0.696   1.522  1.2455 -0.9153 -0.2619
  352SOL     OW 1633   0.367   1.154   5.642 -0.5045 -0.6474 -0.0368
  352SOL    HW1 1634   0.401   1.077   5.687  0.8109 -1.3316 -2.0417
  352SOL    HW2 1635   0.402   1.147   5.553  0.5762  2.8393 -0.0427
  353SOL     OW 1636   0.039   1.580   2.566 -0.2884  0.1359  0.3473
  353SOL    HW1 1637   0.032   1.672   2.542 -0.7654  0.3825  1.3583
  353SOL    HW2 1638   0.052   1.582   2.661  1.7802 -0.7648  0.1384
  354SOL     OW 1639   4.287   6.323   7.828 -0.1519  0.0580 -0.0470
  354SOL    HW1 1640   4.317   6.406   7.864  0.6275 -0.6594  1.0023
  354SOL    HW2 1641   4.328   6.319   7.741 -0.0859  0.6997 -0.0522
  355SOL     OW 1642   0.523   4.139   6.345  0.2171 -0.0926 -0.0243
  355SOL    HW1 1643   0.430   4.118   6.359  0.6016 -1.8754 -0.0089
  355SOL    HW2 1644   0.526   4.235   6.352 -1.1813 -0.1428  2.6996
  356SOL     OW 1645   4.421   9.129   5.200 -0.2535  0.2996  0.1705
  356SOL    HW1 1646   4.507   9.120   5.158  0.4281 -0.6693  1.6586
  356SOL    HW2 1647   4.440   9.124   5.294 -1.7982  1.5187  0.6037
  357SOL     OW 1648   3.775   0.793   3.887  0.4637 -0.5564 -0.0135
  357SOL    HW1 1649   3.747   0.857   3.953  1.1535  1.1429 -1.3006
  357SOL    HW2 1650   3.831   0.732   3.935  2.1322  1.4681  0.7837
  358SOL     OW 1651   2.519   9.381   9.897 -0.1131 -0.4430  0.1162
  358SOL    HW1 1652   2.479   9.404   9.981  0.4387  0.0833  0.2420
  358SOL    HW2 1653   2.488   9.292   9.880 -2.7069  0.5027 -0.6253
  359SOL     OW 1654   3.719   1.783   5.797  0.3588  0.5549  0.2549
  359SOL    HW1 1655   3.714   1.821   5.709 -0.6541 -1.4378 -0.6108
  359SOL    HW2 1656   3.631   1.796   5.833  0.1504 -0.4577  0.1401
  360SOL     OW 1657   5.540   7.139   0.961  0.4410 -0.2665 -0.0005
  360SOL    HW1 1658   5.562   7.066   0.903 -0.7996 -0.1281 -0.6798
  360SOL    HW2 1659   5.459   7.112   1.004 -0.1649  0.7888 -0.4329
  361SOL     OW 1660   3.041   7.770   1.066 -0.6266  0.1072  0.1502
  361SOL    HW1 1661   2.984   7.786   0.991  1.3899  2.0959 -1.1020
  361SOL    HW2 1662   3.055   7.856   1.105  2.3349 -0.0193 -0.3305
  362SOL     OW 1663   0.228   4.426   1.103  0.1308 -0.0621 -0.1723
  362SOL    HW1 1664   0.246   4.505   1.053 -0.1514 -0.0794 -0.3032
  362SOL    HW2 1665   0.156   4.383   1.056  1.6024 -1.4432 -1.2547
  363SOL     OW 1666   5.746   1.487   6.849  0.0006  0.1281 -0.0175
  363SOL    HW1 1667   5.825   1.503   6.797  0.1075 -0.4278 -0.0368
  363SOL    HW2 1668   5.729   1.393   6.838  0.5184 -0.1825  1.6400
  364SOL     OW 1669   2.401   6.964   2.508  0.5135 -0.0537 -0.0832
  364SOL    HW1 1670   2.386   7.010   2.425  0.7689 -1.5735 -1.0224
  364SOL    HW2 1671   2.491   6.933   2.503 -0.1867 -2.2735 -0.4004
  365SOL     OW 1672   3.034   0.030   5.854  0.1651  0.6766 -0.4493
  365SOL    HW1 1673   2.997   0.113   5.825 -0.3059  0.9119  0.7774
  365SOL    HW2 1674   3.069  -0.010   5.774  0.8189  2.2549 -0.9948
  366SOL     OW 1675   9.461   1.347   5.019  0.1765  0.3214 -0.1649
  366SOL    HW1 1676   9.407   1.371   4.945  2.3592 -0.7620 -2.2429
  366SOL    HW2 1677   9.524   1.419   5.029  0.4617  0.0527  0.0319
  367SOL     OW 1678   5.985   0.149   1.920 -0.1651 -0.0145  0.3497
  367SOL    HW1 1679   6.055   0.085   1.914 -0.2664 -0.1925  1.0544
  367SOL    HW2 1680   5.913   0.103   1.964 -1.1586 -0.1981 -1.3602
  368SOL     OW 1681   1.226   6.863   8.810  0.2391 -0.2068 -0.5560
  368SOL    HW1 1682   1.139   6.892   8.838  1.0861  2.4617 -0.4221
  368SOL    HW2 1683   1.279   6.865   8.890  1.5044  2.8589 -1.2999
  369SOL     OW 1684   0.403   3.431   4.715 -0.3099  0.3787 -0.4304
  369SOL    HW1 1685   0.392   3.360   4.778 -0.5450  1.4018  0.7201
  369SOL    HW2 1686   0.358   3.401   4.636 -2.5378  0.2544  0.8266
  370SOL     OW 1687   5.947   9.690   5.073 -0.4327 -0.3730  0.2826
  370SOL    HW1 1688   5.908   9.661   4.991  1.1018 -0.2952 -0.5040
  370SOL    HW2 1689   6.026   9.636   5.083 -1.1833 -1.1866  2.3087
  371SOL     OW 1690   1.245   7.501   7.635 -0.3105  1.1456  0.4031
  371SOL    HW1 1691   1.214   7.518   7.724  0.7694  0.7301  0.8764
  371SOL    HW2 1692   1.331   7.460   7.647 -2.2583 -3.9855 -0.6267
  372SOL     OW 1693   0.075   9.476   1.430 -0.4526  0.0486 -1.0916
  372SOL    HW1 1694   0.094   9.455   1.339 -0.6509  0.5964 -1.2633
  372SOL    HW2 1695   0.157   9.510   1.466  0.5979 -3.2143 -0.1201
  373SOL     OW 1696   6.925   4.552   2.451 -0.8711  0.0132 -0.2335
  373SOL    HW1 1697   6.841   4.573   2.409 -0.4723  1.3789 -0.3858
  373SOL    HW2 1698   6.959   4.636   2.481 -1.0746 -0.8620  2.7822
  374SOL     OW 1699   3.060   6.759   4.827 -0.2802  0.5913  0.2345
  374SOL    HW1 1700   2.970   6.764   4.859 -0.1493  1.7792  0.4921
  374SOL    HW2 1701   3.114   6.771   4.905  0.0751  0.8552 -0.0472
  375SOL     OW 1702   7.350   2.357   2.857 -0.5423 -0.0592  0.2731
  375SOL    HW1 1703   7.262   2.346   2.893 -1.2333 -0.9760 -1.5383
  375SOL    HW2 1704   7.408   2.321   2.923 -1.7714 -2.1652  0.2923
  376SOL     OW 1705   5.820   2.275   5.976 -0.1347 -0.2498 -0.0146
  376SOL    HW1 1706   5.809   2.195   6.028 -0.1109 -0.4361 -0.2948
  376SOL    HW2 1707   5.731   2.307   5.964 -0.1202 -0.0547  0.3739
  377SOL     OW 1708   4.801   3.105   7.909  0.1322 -0.0315 -0.0206
  377SOL    HW1 1709   4.826   3.129   7.998 -1.3555  1.2868  0.0925
  377SOL    HW2 1710   4.706   3.119   7.906  0.1541  0.0433 -1.8259
  378SOL     OW 1711   8.951   0.073   6.979  0.1603 -0.3838  0.3956
  378SOL    HW1 1712   8.912   0.074   6.892  0.2382  0.7879  0.3646
  378SOL    HW2 1713   8.879   0.050   7.037 -0.3253  0.6389  0.2157
  379SOL     OW 1714   3.889   9.845   8.140 -0.2876  0.2063 -0.1435
  379SOL    HW1 1715   3.865   9.789   8.066  0.0627  0.8690 -0.7742
  379SOL    HW2 1716   3.820   9.830   8.205  1.1311 -2.9146  0.8157
  380SOL     OW 1717   9.859   6.362   8.806 -0.2392 -0.0199 -0.1214
  380SOL    HW1 1718   9.868   6.457   8.816  1.1503 -0.3281  2.6319
  380SOL    HW2 1719   9.948   6.331   8.791 -0.8240 -0.8620 -2.2816
  381SOL     OW 1720   4.593   3.616   2.460  0.1186  0.1976 -0.3623
  381SOL    HW1 1721   4.677   3.599   2.418 -0.6355  1.3720 -2.4938
  381SOL    HW2 1722   4.597   3.708   2.487  0.0607 -0.1617  0.9610
  382SOL     OW 1723   0.308   4.552   3.838 -0.3025  0.0504 -0.4436
  382SOL    HW1 1724   0.297   4.567   3.932 -0.0006  0.9048 -0.5386
  382SOL    HW2 1725   0.295   4.458   3.828 -1.3635  0.0946  0.3091
  383SOL     OW 1726   9.683   6.828   7.877  0.2981  0.3499 -0.2328
  383SOL    HW1 1727   9.687   6.734   7.895 -0.0475  0.3583 -0.1062
  383SOL    HW2 1728   9.628   6.835   7.799 -2.5535  0.6553  1.6271
  384SOL     OW 1729   9.940   9.022   5.679 -0.2884  0.2495  0.0351
  384SOL    HW1 1730  10.009   8.975   5.726 -0.5148  0.8429  0.9860
  384SOL    HW2 1731   9.929   9.104   5.728 -1.3090  0.3903 -0.4061
  385SOL     OW 1732   7.488   1.054   5.391  0.5728 -0.6886 -0.0768
  385SOL    HW1 1733   7.518   1.097   5.311  2.1763 -0.3926  0.6488
  385SOL    HW2 1734   7.566   1.013   5.427  0.0657 -0.1560  1.7465
  386SOL     OW 1735   7.057   0.887   5.250 -0.2463 -0.2077  0.6516
  386SOL    HW1 1736   7.081   0.973   5.285 -0.7936  0.3187 -0.2205
  386SOL    HW2 1737   7.021   0.839   5.325  0.1566  0.2881  1.1662
  387SOL     OW 1738   0.666   4.708   5.623  0.5313 -1.0258 -0.5858
  387SOL    HW1 1739   0.678   4.618   5.652 -2.1202 -1.4233 -0.4132
  387SOL    HW2 1740   0.623   4.752   5.696  2.3522  0.6045 -0.4217
  388SOL     OW 1741   0.311   0.404   2.560 -0.4181  0.2981 -0.7509
  388SOL    HW1 1742   0.246   0.397   2.491 -0.6914 -0.4110 -0.4234
  388SOL    HW2 1743   0.261   0.400   2.641 -0.0220  0.3027 -0.5024
  389SOL     OW 1744   9.093   1.173   9.867  0.2507 -0.2425  0.0081
  389SOL    HW1 1745   9.071   1.266   9.867  0.2889 -0.2225  0.8646
  389SOL    HW2 1746   9.009   1.129   9.880  0.3860 -0.2591  0.9393
  390SOL     OW 1747   8.545   9.023   2.419  0.5131  0.5520 -0.5721
  390SOL    HW1 1748   8.611   9.056   2.357 -0.9561  2.1579 -1.3828
  390SOL    HW2 1749   8.509   9.102   2.459 -0.1304 -0.3616  0.6951
  391SOL     OW 1750   9.603   2.465   6.375  0.0952 -0.2545  0.0124
  391SOL    HW1 1751   9.655   2.499   6.303  1.1359 -0.3909  0.6741
  391SOL    HW2 1752   9.552   2.540   6.406  1.2877  0.3673  0.5347
  392SOL     OW 1753   9.404   7.664   1.557  0.0635  0.1015 -0.1562
  392SOL    HW1 1754   9.335   7.614   1.599 -0.3769 -2.0404 -3.0901
  392SOL    HW2 1755   9.483   7.611   1.570  0.3867  0.6161 -0.0109
  393SOL     OW 1756   2.803   1.465   1.519 -0.4741 -0.4678 -0.4256
  393SOL    HW1 1757   2.733   1.441   1.458 -0.4169  0.4619 -0.8893
  393SOL    HW2 1758   2.757   1.494   1.598 -0.5704 -1.0185 -0.2755
  394SOL     OW 1759   5.711   0.098   6.856  0.2285  0.2646  0.6868
  394SOL    HW1 1760   5.752   0.184   6.868  0.2942  0.1280  1.4757
  394SOL    HW2 1761   5.677   0.075   6.943 -0.7143 -0.0384  0.2523
  395SOL     OW 1762   3.712   8.808   1.800  0.4033  0.2204  0.3166
  395SOL    HW1 1763   3.723   8.853   1.716  0.5407  0.3069  0.3796
  395SOL    HW2 1764   3.769   8.732   1.794  0.3026  0.1487  0.2757
  396SOL     OW 1765   0.531   0.074   3.870 -0.3577  0.0388  0.3828
  396SOL    HW1 1766   0.553  -0.007   3.915 -0.0070  0.0772  0.2847
  396SOL    HW2 1767   0.546   0.055   3.777  1.0231  0.6043  0.4579
  397SOL     OW 1768   6.749   4.725   1.569  0.1796  0.2954  0.2316
  397SOL    HW1 1769   6.771   4.632   1.578 -2.0213 -0.3120 -0.1298
  397SOL    HW2 1770   6.655   4.726   1.553  0.5424  2.4230 -2.6384
  398SOL     OW 1771   1.281   2.723   5.463 -0.4530 -0.4739  0.2198
  398SOL    HW1 1772   1.371   2.691   5.454 -0.0965  0.6345 -0.4491
  398SOL    HW2 1773   1.227   2.646   5.446  0.3636 -0.9396 -0.3803
  399SOL     OW 1774   2.932   7.040   6.013  0.2802  0.4397 -0.2076
  399SOL    HW1 1775   2.911   7.127   6.046 -0.0692 -0.0737  0.9847
  399SOL    HW2 1776   3.018   7.020   6.050 -0.6355 -0.6285  1.4791
  400SOL     OW 1777   6.504   0.151  -0.020 -0.1367 -0.4159 -0.0230
  400SOL    HW1 1778   6.431   0.110   0.026  0.6317 -1.8932 -0.0623
  400SOL    HW2 1779   6.553   0.196   0.048 -1.0808  0.6400 -0.0024
  401SOL     OW 1780   3.666   9.273   8.923 -0.5082 -0.3649 -1.1859
  401SOL    HW1 1781   3.728   9.321   8.868 -1.7447  3.3137  0.3064
  401SOL    HW2 1782   3.580   9.301   8.891 -1.2965  2.0994  2.4750
  402SOL     OW 1783   3.263   7.153  -0.005  0.1111  0.7301 -0.9876
  402SOL    HW1 1784   3.235   7.121   0.081 -0.2605  2.4128 -0.4444
  402SOL    HW2 1785   3.357   7.168   0.005  0.5541 -1.2899 -1.6374
  403SOL     OW 1786   8.199   4.984   0.450 -0.4774 -0.5283  0.0993
  403SOL    HW1 1787   8.109   5.008   0.472  0.7913  2.3986  2.9232
  403SOL    HW2 1788   8.213   4.900   0.495 -1.4993 -0.5540  0.4035
  404SOL     OW 1789   5.474   4.301   5.986  0.1633 -0.1173 -0.5686
  404SOL    HW1 1790   5.495   4.300   6.080  0.8870 -0.6462 -0.7319
  404SOL    HW2 1791   5.386   4.264   5.982  0.0947 -0.0250 -0.0897
  405SOL     OW 1792   4.784   1.183   1.317  0.3254 -0.1905  0.3151
  405SOL    HW1 1793   4.796   1.265   1.269  1.4751  0.0400  0.9584
  405SOL    HW2 1794   4.803   1.114   1.254  1.5577  0.1042  0.3385
  406SOL     OW 1795   1.381   9.168   9.146  0.5924 -0.0295  0.4254
  406SOL    HW1 1796   1.297   9.143   9.109  0.7779 -1.2764  0.8188
  406SOL    HW2 1797   1.422   9.222   9.078  0.6076 -1.6462 -0.9126
  407SOL     OW 1798   1.150   4.774   9.737 -0.5054  0.0807  0.0279
  407SOL    HW1 1799   1.184   4.786   9.648 -0.4470 -1.3638 -0.1779
  407SOL    HW2 1800   1.144   4.862   9.773 -0.4700  0.6863 -1.3868
  408SOL     OW 1801   5.119   4.299   5.825 -0.6130  0.0542  0.0941
  408SOL    HW1 1802   5.098   4.254   5.744  0.1144  0.8826 -0.5689
  408SOL    HW2 1803   5.176   4.238   5.873 -0.7374 -0.2780 -0.1805
  409SOL     OW 1804   0.103   6.845   1.243  0.1172 -0.0246 -0.4363
  409SOL    HW1 1805   0.114   6.750   1.249 -0.2811 -0.0928 -0.7130
  409SOL    HW2 1806   0.142   6.869   1.159  0.8384  0.1569 -0.0523
  410SOL     OW 1807   8.722   1.352   7.440 -0.8553 -0.7093  0.5452
  410SOL    HW1 1808   8.800   1.361   7.385  0.6580 -1.2027  2.5042
  410SOL    HW2 1809   8.733   1.268   7.483 -2.0294 -0.3938  1.5075
  411SOL     OW 1810   2.508   8.729   5.176 -0.3295 -0.1479 -0.3998
  411SOL    HW1 1811   2.520   8.682   5.094 -2.3797  2.1751 -2.2235
  411SOL    HW2 1812   2.548   8.815   5.160 -1.8918  0.8057  0.4533
  412SOL     OW 1813   2.853   9.351   1.447  0.2428 -1.0815 -0.4134
  412SOL    HW1 1814   2.861   9.257   1.436  1.0708 -0.8499 -1.9981
  412SOL    HW2 1815   2.821   9.384   1.363 -1.3242 -0.0618  0.5149
  413SOL     OW 1816   7.362   9.702   9.592  0.2830  0.3201 -0.2118
  413SOL    HW1 1817   7.312   9.782   9.607  3.4667  2.2724  0.9827
  413SOL    HW2 1818   7.413   9.720   9.514  2.7566  0.4887  1.3499
  414SOL     OW 1819   3.849   9.907   2.612 -0.2080  0.5916  0.3809
  414SOL    HW1 1820   3.897   9.976   2.566 -0.7547  1.1815  0.6612
  414SOL    HW2 1821   3.901   9.889   2.690  0.3656  0.0864 -0.1192
  415SOL     OW 1822   8.939   5.450   1.439  0.2510  1.2512  0.1163
  415SOL    HW1 1823   8.954   5.500   1.519 -0.1723 -1.0230  1.7105
  415SOL    HW2 1824   9.025   5.415   1.416 -0.0065  0.0673  0.9009
  416SOL     OW 1825   2.390   0.387   8.742 -0.0713 -0.0550 -0.2925
  416SOL    HW1 1826   2.484   0.383   8.726  0.0217 -0.5004  0.3342
  416SOL    HW2 1827   2.379   0.459   8.804 -0.1518  0.0434 -0.4217
  417SOL     OW 1828   9.817   1.514   1.228 -0.3820 -0.0258 -0.0122
  417SOL    HW1 1829   9.817   1.480   1.139  0.8175  0.8074 -0.3683
  417SOL    HW2 1830   9.909   1.508   1.256 -0.8472 -0.9277  1.4442
  418SOL     OW 1831   2.112   9.489   0.022 -0.2920  0.5942 -1.1713
  418SOL    HW1 1832   2.088   9.544  -0.052 -1.2662  1.6347 -0.1307
  418SOL    HW2 1833   2.188   9.534   0.061 -0.4809  0.6733 -0.8900
  419SOL     OW 1834   2.096   7.752   6.733  0.2221 -0.1459 -0.2009
  419SOL    HW1 1835   2.141   7.674   6.701 -1.1525 -0.8767 -0.4346
  419SOL    HW2 1836   2.129   7.823   6.678  1.1036 -0.6413 -0.3336
  420SOL     OW 1837   3.542   2.978   3.757  0.2685  0.4081  0.5879
  420SOL    HW1 1838   3.536   2.965   3.662 -0.6351 -2.0629  0.9019
  420SOL    HW2 1839   3.467   3.033   3.779  1.5653  2.6414 -0.3121
  421SOL     OW 1840   0.187   8.382   9.026  0.4521 -0.0283 -0.1221
  421SOL    HW1 1841   0.151   8.471   9.032  2.0047  0.6174  0.1257
  421SOL    HW2 1842   0.128   8.329   9.079  0.3563  1.1439  0.9961
  422SOL     OW 1843   9.492   7.178   7.248 -0.0201 -0.2349 -0.4791
  422SOL    HW1 1844   9.519   7.151   7.336  0.8347  2.2531  0.1067
  422SOL    HW2 1845   9.503   7.273   7.247 -0.4589 -0.1183 -3.1401
  423SOL     OW 1846   8.956   5.536   4.215 -0.0430 -0.2314 -0.2341
  423SOL    HW1 1847   8.896   5.462   4.216  0.2629 -0.4827  1.0840
  423SOL    HW2 1848   9.035   5.503   4.172 -0.8716  0.1559 -2.1526
  424SOL     OW 1849   4.057   7.046   8.863  0.5760  0.2425 -0.2545
  424SOL    HW1 1850   4.147   7.074   8.850  0.9232 -0.8089 -0.2168
  424SOL    HW2 1851   4.060   6.951   8.855 -0.3385  0.0974  0.9193
  425SOL     OW 1852   3.858   8.684   2.567  0.4340 -0.1808 -0.4203
  425SOL    HW1 1853   3.951   8.699   2.581  0.5699 -0.2384 -1.2277
  425SOL    HW2 1854   3.822   8.771   2.547  0.4399 -0.2654 -0.7987
  426SOL     OW 1855   2.976   5.617   4.991 -0.1094  0.0101  0.3819
  426SOL    HW1 1856   3.007   5.670   4.918 -1.0722  0.0570  0.0022
  426SOL    HW2 1857   2.907   5.669   5.032 -0.7095 -0.7205  0.3164
  427SOL     OW 1858   1.465   3.066   6.762  0.1843  0.4037 -0.3317
  427SOL    HW1 1859   1.538   3.021   6.805 -0.8584 -0.4029  0.6585
  427SOL    HW2 1860   1.494   3.157   6.755  2.3145 -0.3057 -2.3016
  428SOL     OW 1861   2.399   5.646   6.889 -0.0976  0.1682  0.2784
  428SOL    HW1 1862   2.310   5.680   6.881  0.1695  0.5166 -1.6844
  428SOL    HW2 1863   2.410   5.590   6.812  1.1276 -0.4849  0.9052
  429SOL     OW 1864   5.411   9.959   6.177 -0.4857 -0.0541 -0.9001
  429SOL    HW1 1865   5.347   9.980   6.245  0.9008  0.6030  0.2767
  429SOL    HW2 1866   5.367   9.979   6.095 -1.0893  2.4310 -0.0584
  430SOL     OW 1867   4.914   8.080   4.534  0.3356  0.1551 -0.0280
  430SOL    HW1 1868   4.859   8.068   4.457 -0.6286  1.0831  0.5053
  430SOL    HW2 1869   4.964   7.998   4.541  0.1789 -0.0703 -1.4205
  431SOL     OW 1870   5.772   4.029   1.945 -0.0257  0.5654  0.5520
  431SOL    HW1 1871   5.704   3.965   1.966  0.2256  0.9352  2.8448
  431SOL    HW2 1872   5.854   3.983   1.963  0.2242  0.9344  0.3641
  432SOL     OW 1873   6.944   1.110   6.567  0.3143  0.5076 -0.0805
  432SOL    HW1 1874   6.882   1.064   6.624 -0.0105  1.3582  0.2565
  432SOL    HW2 1875   6.910   1.096   6.479  0.5106 -0.3409 -0.0313
  433SOL     OW 1876   5.231   6.861   4.596  0.3720  0.2651 -0.1904
  433SOL    HW1 1877   5.186   6.944   4.612  0.8148  0.3885  0.4406
  433SOL    HW2 1878   5.242   6.822   4.683 -1.1106 -1.1499 -0.5793
  434SOL     OW 1879   7.635   4.257   6.272  0.5125 -0.0441  0.2168
  434SOL    HW1 1880   7.707   4.239   6.332 -0.7791 -0.8234  1.5884
  434SOL    HW2 1881   7.591   4.333   6.308  1.0609  0.9018 -1.0346
  435SOL     OW 1882   0.611   4.254   0.229  0.1214  0.3643  0.2296
  435SOL    HW1 1883   0.597   4.176   0.284  2.1103  0.9394  1.6822
  435SOL    HW2 1884   0.537   4.311   0.250 -1.4335 -1.1275 -0.9421
  436SOL     OW 1885   5.839   1.814   9.639 -0.5559  0.7504 -0.1753
  436SOL    HW1 1886   5.832   1.727   9.599 -0.3359  0.4185  0.4827
  436SOL    HW2 1887   5.753   1.829   9.678  0.3043 -0.5834  2.4614
  437SOL     OW 1888   8.797   9.230   4.917 -0.0341  0.5517  0.6326
  437SOL    HW1 1889   8.889   9.204   4.921 -0.0280 -0.0607 -1.7059
  437SOL    HW2 1890   8.771   9.208   4.827 -1.7464  3.0716  0.4362
  438SOL     OW 1891   6.914   9.710   9.056 -0.1679 -0.2346 -0.0386
  438SOL    HW1 1892   6.934   9.746   8.969 -1.6612  0.5586 -0.0770
  438SOL    HW2 1893   6.899   9.617   9.039  1.0693 -0.3951 -0.3667
  439SOL     OW 1894   9.116   8.100   5.986 -0.0495  0.3631 -0.6340
  439SOL    HW1 1895   9.205   8.119   6.015  0.9145 -0.2207 -3.0322
  439SOL    HW2 1896   9.062   8.166   6.032  1.6039  0.8970  0.6522
  440SOL     OW 1897   2.835   0.254   6.549  0.5825 -0.1876 -0.3113
  440SOL    HW1 1898   2.857   0.182   6.608  1.5712 -0.0456 -0.4967
  440SOL    HW2 1899   2.742   0.240   6.529  1.2175 -2.6950 -2.0695
  441SOL     OW 1900   8.518   2.964   2.025  0.1821  0.7790  0.2061
  441SOL    HW1 1901   8.547   3.050   2.055 -1.1438  1.2894  0.1061
  441SOL    HW2 1902   8.566   2.949   1.944  1.1369  0.9825  0.7258
  442SOL     OW 1903   1.946   0.678   2.317  0.1993 -0.0906 -0.4412
  442SOL    HW1 1904   1.992   0.607   2.361 -3.2167 -1.7347  0.7681
  442SOL    HW2 1905   1.881   0.708   2.380 -0.3504  2.2193 -1.9712
  443SOL     OW 1906   6.935   6.565   1.891 -0.1311 -0.0187 -0.0688
  443SOL    HW1 1907   6.942   6.650   1.934  0.1708  0.8700 -1.8192
  443SOL    HW2 1908   6.844   6.559   1.863  0.3245  0.6834 -1.7939
  444SOL     OW 1909   0.948   1.450   5.919 -0.1736 -0.0908  0.0744
  444SOL    HW1 1910   0.969   1.540   5.894  1.4820 -0.4518  0.0497
  444SOL    HW2 1911   1.031   1.403   5.911 -1.0560 -1.6769 -0.1279
  445SOL     OW 1912   5.674   7.496   2.831  0.2174 -0.3365  0.3131
  445SOL    HW1 1913   5.702   7.412   2.868  1.3771 -0.3252 -0.4962
  445SOL    HW2 1914   5.652   7.550   2.907 -1.3183 -1.6112  0.8266
  446SOL     OW 1915   2.613   9.022   1.242 -0.1848  0.1201 -0.7435
  446SOL    HW1 1916   2.582   8.954   1.182 -1.0091 -0.4115  0.2371
  446SOL    HW2 1917   2.542   9.087   1.243  0.0042  0.3272 -0.6458
  447SOL     OW 1918   6.250   1.208   0.883  0.3107  0.1941  1.1012
  447SOL    HW1 1919   6.330   1.156   0.872 -0.6367 -1.1521  0.2568
  447SOL    HW2 1920   6.206   1.167   0.958 -0.9734 -0.9975 -0.2427
  448SOL     OW 1921   7.937   8.695   8.887 -0.1156 -0.6695  0.0873
  448SOL    HW1 1922   7.887   8.638   8.828 -0.2079  0.0457 -0.5393
  448SOL    HW2 1923   7.870   8.749   8.930 -0.0027 -0.7819  0.4013
  449SOL     OW 1924   5.470   4.692   5.155 -0.0820  0.0179 -0.3530
  449SOL    HW1 1925   5.454   4.783   5.179  3.0610  1.4072 -2.7605
  449SOL    HW2 1926   5.502   4.651   5.235  0.5543  1.6508  0.2749
  450SOL     OW 1927   6.572   7.751   8.993  0.1645  0.1933 -0.6725
  450SOL    HW1 1928   6.551   7.792   9.077  0.0175  2.3047 -1.6797
  450SOL    HW2 1929   6.487   7.737   8.951  0.3152  2.4182 -1.8822
  451SOL     OW 1930   5.130   4.959   7.025  0.0112 -0.2703 -0.2617
  451SOL    HW1 1931   5.053   4.994   6.979  0.4545 -0.7624 -1.4000
  451SOL    HW2 1932   5.128   4.865   7.008  0.4231 -0.4065  0.3941
  452SOL     OW 1933   9.962   3.444   1.439  0.0588  0.0574 -0.2141
  452SOL    HW1 1934   9.867   3.440   1.430 -0.0345 -0.4417  0.8486
  452SOL    HW2 1935   9.977   3.462   1.532  0.9848  1.3141 -0.5638
  453SOL     OW 1936   7.875   9.896   0.688  0.5111 -0.2836  0.4694
  453SOL    HW1 1937   7.875   9.892   0.784 -1.3866 -2.5809  0.4620
  453SOL    HW2 1938   7.841   9.812   0.660  2.5772 -0.3359 -2.3435
  454SOL     OW 1939   4.805   8.716   3.749  0.0827  0.6176  0.3203
  454SOL    HW1 1940   4.844   8.655   3.687 -0.1309  0.8790 -0.0809
  454SOL    HW2 1941   4.716   8.729   3.718  0.0913  1.0513  0.4562
  455SOL     OW 1942   6.535   9.854   5.045 -0.2205 -0.1506  0.2662
  455SOL    HW1 1943   6.445   9.881   5.064 -0.9979 -0.9064 -2.0497
  455SOL    HW2 1944   6.588   9.928   5.074 -1.8744  1.8103 -1.3500
  456SOL     OW 1945   6.967   6.260   8.040 -0.0874 -0.0368  0.8828
  456SOL    HW1 1946   6.872   6.249   8.038  0.0571 -1.5867  0.6510
  456SOL    HW2 1947   6.986   6.316   7.965 -0.6726 -1.3334 -0.2800
  457SOL     OW 1948   2.837   0.938   1.700  0.0029 -0.0832 -0.8557
  457SOL    HW1 1949   2.921   0.950   1.655  0.2841 -1.4067 -0.7052
  457SOL    HW2 1950   2.832   0.845   1.719 -0.9232  0.1690  0.2911
  458SOL     OW 1951   2.440   1.244   3.233  0.1702 -0.6531  0.5579
  458SOL    HW1 1952   2.360   1.259   3.183  0.4165  0.5206  0.4796
  458SOL    HW2 1953   2.510   1.264   3.171  0.4810  0.6567  1.2833
  459SOL     OW 1954   9.653   4.277   9.699 -0.0204  0.4303 -0.3791
  459SOL    HW1 1955   9.661   4.221   9.776 -0.5451  1.5045  0.4825
  459SOL    HW2 1956   9.600   4.226   9.638 -2.3037  0.7888  1.2109
  460SOL     OW 1957   6.248   3.358   9.391  0.7664  1.1040  0.0697
  460SOL    HW1 1958   6.223   3.266   9.403  0.3034  1.2488  0.2345
  460SOL    HW2 1959   6.168   3.407   9.411  1.5375  1.6709  1.9806
  461SOL     OW 1960   2.675   7.747   4.859 -0.3000  0.1591 -0.0316
  461SOL    HW1 1961   2.765   7.729   4.833  0.5958  2.0669  1.4863
  461SOL    HW2 1962   2.630   7.767   4.777  0.3673 -1.7555 -0.9239
  462SOL     OW 1963   0.362   2.909   0.560 -0.1778  0.0030  0.0483
  462SOL    HW1 1964   0.283   2.854   0.564 -0.2194  0.1348  1.8201
  462SOL    HW2 1965   0.413   2.873   0.487 -1.1923 -1.0207 -0.1823
  463SOL     OW 1966   5.672   9.761   1.761  0.3907 -0.5239 -0.0266
  463SOL    HW1 1967   5.611   9.690   1.740  1.1943 -1.0309 -0.6975
  463SOL    HW2 1968   5.664   9.773   1.856 -0.8263 -0.5046 -0.1139
  464SOL     OW 1969   8.545   3.350   7.476 -0.1268 -0.2820  0.0975
  464SOL    HW1 1970   8.610   3.381   7.413  0.0780 -0.8932 -0.0017
  464SOL    HW2 1971   8.490   3.289   7.426  1.2743 -2.3651  0.9397
  465SOL     OW 1972   4.817   4.411   4.443 -0.6271 -0.0823  0.1879
  465SOL    HW1 1973   4.736   4.395   4.395 -1.3044  2.2998  0.3821
  465SOL    HW2 1974   4.885   4.370   4.389 -1.6851  0.1147 -1.3792
  466SOL     OW 1975   1.166   8.865   1.913  0.0050 -0.4356  0.0383
  466SOL    HW1 1976   1.108   8.799   1.875 -1.0911 -0.1287  1.1307
  466SOL    HW2 1977   1.250   8.850   1.870 -0.1145 -2.7743  0.4861
  467SOL     OW 1978   0.989   0.467   6.414 -0.7990  0.0665 -0.2627
  467SOL    HW1 1979   0.915   0.410   6.392 -0.2489 -0.6476 -0.3353
  467SOL    HW2 1980   1.018   0.436   6.500 -0.4857  0.2182 -0.3115
  468SOL     OW 1981   2.769   3.677   9.893  0.0520 -0.3194  0.0233
  468SOL    HW1 1982   2.710   3.675   9.969  1.9633 -0.2275  1.5703
  468SOL    HW2 1983   2.814   3.593   9.895 -0.6878 -0.8153 -1.7594
  469SOL     OW 1984   3.449   9.080   7.844 -0.1507  0.2337  0.0743
  469SOL    HW1 1985   3.530   9.079   7.895 -0.3176 -0.1969  0.3332
  469SOL    HW2 1986   3.462   9.013   7.777 -0.6831 -0.5533  0.7366
  470SOL     OW 1987   0.198   5.488   6.585 -0.1472  0.5062  0.7055
  470SOL    HW1 1988   0.259   5.550   6.545 -1.5668  1.3614 -0.1942
  470SOL    HW2 1989   0.118   5.494   6.533  0.0577 -3.1360 -0.3503
  471SOL     OW 1990   2.744   3.637   4.528 -0.0330  0.8736  0.4369
  471SOL    HW1 1991   2.746   3.591   4.612  1.5932 -0.5844 -0.3305
  471SOL    HW2 1992   2.737   3.567   4.463 -0.1311  1.9097 -0.6892
  472SOL     OW 1993   0.307   0.612   4.017 -0.1543 -0.0581 -0.3719
  472SOL    HW1 1994   0.234   0.557   3.988 -1.1344  0.6384  0.6997
  472SOL    HW2 1995   0.372   0.550   4.049 -1.8987 -0.6346  2.3368
  473SOL     OW 1996   1.671   4.752   2.901  0.3953 -0.2746 -0.2927
  473SOL    HW1 1997   1.655   4.754   2.807  0.8939 -1.0204 -0.3948
  473SOL    HW2 1998   1.732   4.680   2.914  3.0026  1.8508  0.1857
  474SOL     OW 1999   9.667   5.859   2.766  0.7338  0.0884 -0.2040
  474SOL    HW1 2000   9.638   5.811   2.844 -0.8313 -0.2174 -0.9488
  474SOL    HW2 2001   9.686   5.947   2.799 -2.3771  0.7228  0.1682
  475SOL     OW 2002   3.345   9.773   6.926 -0.2967 -0.0777 -0.2283
  475SOL    HW1 2003   3.415   9.714   6.897 -0.2665 -0.1066 -0.0973
  475SOL    HW2 2004   3.385   9.860   6.926 -0.0971 -0.1659  0.3846
  476SOL     OW 2005   4.453   8.389   5.000  0.8011 -0.3545 -0.5564
  476SOL    HW1 2006   4.422   8.480   5.004  0.1559 -0.5847 -0.2550
  476SOL    HW2 2007   4.529   8.388   5.058 -0.6022 -0.5429  1.4002
  477SOL     OW 2008   7.978   2.162   8.505 -0.1032 -0.1445  0.7455
  477SOL    HW1 2009   7.959   2.109   8.427 -0.1787 -0.0171  0.6771
  477SOL    HW2 2010   7.894   2.170   8.550 -0.1508  0.1702  0.5993
  478SOL     OW 2011   8.303   4.394   6.771  0.1416 -0.2883 -0.6938
  478SOL    HW1 2012   8.313   4.433   6.858  0.2824 -1.4867 -0.1439
  478SOL    HW2 2013   8.389   4.402   6.730  0.2036 -0.1394 -0.5320
  479SOL     OW 2014   6.339   9.104   7.025 -0.2701  0.1662 -0.1835
  479SOL    HW1 2015   6.394   9.079   6.951  1.3209  0.8378  0.7272
  479SOL    HW2 2016   6.304   9.022   7.059  2.4569 -0.6331  0.9187
  480SOL     OW 2017   6.040   3.353   8.068  0.1881 -0.2625  0.1059
  480SOL    HW1 2018   6.026   3.382   8.158  1.8306  0.1674  0.2472
  480SOL    HW2 2019   5.983   3.277   8.058 -0.5880  0.1408  1.2561
  481SOL     OW 2020   2.580   4.141   5.750  0.2496 -0.1475 -1.0161
  481SOL    HW1 2021   2.540   4.106   5.830 -0.1073 -2.0634 -1.9605
  481SOL    HW2 2022   2.645   4.075   5.725  1.7183  1.3640 -1.2797
  482SOL     OW 2023   5.136   5.317   2.005  0.6875 -0.1530 -0.0377
  482SOL    HW1 2024   5.083   5.326   2.083 -1.5221 -2.4307 -1.1248
  482SOL    HW2 2025   5.196   5.245   2.025  1.3538  0.4386  0.1408
  483SOL     OW 2026   4.159   5.544   1.491  0.2740 -0.6815  0.2384
  483SOL    HW1 2027   4.094   5.542   1.421 -0.0452 -1.5695  0.5388
  483SOL    HW2 2028   4.235   5.498   1.456  1.1040  1.1076 -0.4238
  484SOL     OW 2029   0.735   9.043   6.312 -0.2006  0.1253 -0.5179
  484SOL    HW1 2030   0.701   9.115   6.259  1.4735  1.0557 -0.3868
  484SOL    HW2 2031   0.826   9.033   6.285 -0.0963 -1.2593  0.2121
  485SOL     OW 2032   8.242   6.953   8.346  0.3231 -0.4071  0.3083
  485SOL    HW1 2033   8.325   6.943   8.300  0.7882  1.1070  0.7726
  485SOL    HW2 2034   8.244   6.885   8.414  0.7934 -0.9170 -0.1945
  486SOL     OW 2035   8.397   7.719   1.323 -0.4527 -0.4026 -0.0886
  486SOL    HW1 2036   8.390   7.811   1.346 -0.2814 -0.2519 -0.6250
  486SOL    HW2 2037   8.471   7.687   1.375  1.3270  0.4495 -1.9435
  487SOL     OW 2038   3.402   8.070   8.553 -0.4014 -0.6878  0.2191
  487SOL    HW1 2039   3.361   7.995   8.510 -3.5396  1.0933 -0.2368
  487SOL    HW2 2040   3.418   8.040   8.642 -0.7366 -2.1511 -0.1786
  488SOL     OW 2041   5.838   1.183   2.646 -0.3175  0.1378  0.2977
  488SOL    HW1 2042   5.803   1.258   2.597  0.6374 -0.2075 -0.9553
  488SOL    HW2 2043   5.788   1.183   2.728 -1.1275  1.4529 -0.1616
  489SOL     OW 2044   1.094   3.239   6.396 -0.3430 -0.3433  0.5702
  489SOL    HW1 2045   1.073   3.223   6.488 -0.3995  2.5204  1.1657
  489SOL    HW2 2046   1.141   3.323   6.397 -1.3759  0.3705 -2.1266
  490SOL     OW 2047   0.284   2.254   1.690 -0.1948 -0.1171 -0.1623
  490SOL    HW1 2048   0.289   2.160   1.671 -0.7023 -0.1750 -0.0299
  490SOL    HW2 2049   0.289   2.295   1.603  3.5264 -0.0552 -0.0724
  491SOL     OW 2050   1.883   4.595   1.820  0.8064 -0.2217 -0.3392
  491SOL    HW1 2051   1.959   4.550   1.784  0.9099  0.8322 -1.5156
  491SOL    HW2 2052   1.817   4.527   1.829  0.9610 -0.6411 -2.0309
  492SOL     OW 2053   1.804   7.665   4.613 -0.1857 -0.0518  0.3660
  492SOL    HW1 2054   1.723   7.663   4.665 -0.5800 -1.4701 -0.2625
  492SOL    HW2 2055   1.808   7.579   4.572  1.5861  0.0472  0.2679
  493SOL     OW 2056   4.574   1.854   2.561 -0.6845 -0.1408 -0.2289
  493SOL    HW1 2057   4.529   1.882   2.641 -3.1414 -1.1829 -1.1606
  493SOL    HW2 2058   4.559   1.759   2.557  0.2767 -0.2677 -1.4383
  494SOL     OW 2059   9.557   8.881   5.080  0.1380  0.1433 -0.4470
  494SOL    HW1 2060   9.531   8.887   4.988 -0.2136  0.8506 -0.3051
  494SOL    HW2 2061   9.642   8.924   5.083  2.4895 -3.8414 -1.2914
  495SOL     OW 2062   9.497   1.361   0.896 -0.0532 -0.2189 -0.2521
  495SOL    HW1 2063   9.534   1.324   0.816  0.2688  0.6941 -0.5375
  495SOL    HW2 2064   9.550   1.324   0.967  0.2359 -0.3299 -0.5247
  496SOL     OW 2065   5.874   1.262   6.456 -0.1816  0.6623 -0.7168
  496SOL    HW1 2066   5.959   1.224   6.481 -0.0788  0.8662 -0.7506
  496SOL    HW2 2067   5.846   1.211   6.381  0.5822  1.4887 -1.5831
  497SOL     OW 2068   3.451   2.024   0.652 -0.5089 -0.7967  0.0948
  497SOL    HW1 2069   3.386   1.987   0.592 -1.1808 -1.4954  1.2352
  497SOL    HW2 2070   3.450   2.118   0.632 -2.7746 -0.5900  0.9178
  498SOL     OW 2071   9.667   1.897   1.048 -0.3481 -0.1783 -0.8272
  498SOL    HW1 2072   9.580   1.922   1.079  0.0578 -0.8793  0.9953
  498SOL    HW2 2073   9.712   1.980   1.032 -1.1816  0.1854 -1.3630
  499SOL     OW 2074   8.387   8.509   9.568 -0.1629 -0.0614  1.0205
  499SOL    HW1 2075   8.309   8.467   9.529  0.7509 -1.0293  0.1532
  499SOL    HW2 2076   8.376   8.496   9.662 -1.0097 -0.2683  0.9084
  500SOL     OW 2077   3.854   7.471   6.238 -0.3634  0.5319  0.0934
  500SOL    HW1 2078   3.856   7.520   6.320 -1.4221 -0.3347  0.6707
  500SOL    HW2 2079   3.832   7.535   6.171  2.0025  1.5616  0.1979
  501SOL     OW 2080   4.232   5.118   1.423  0.0561  0.1842 -0.1315
  501SOL    HW1 2081   4.223   5.136   1.329  0.2279  1.5912  0.1043
  501SOL    HW2 2082   4.201   5.028   1.433 -0.5461  0.2247 -1.4394
  502SOL     OW 2083   8.843   0.827   8.029  0.3563  0.0539  0.3367
  502SOL    HW1 2084   8.871   0.849   7.941 -0.0591  1.0515  0.4383
  502SOL    HW2 2085   8.879   0.740   8.045 -1.9338 -1.4462 -1.8824
  503SOL     OW 2086   1.107   0.454   2.714 -0.6601 -0.4934 -0.2550
  503SOL    HW1 2087   1.119   0.364   2.745  1.1771 -0.2986 -0.3141
  503SOL    HW2 2088   1.067   0.443   2.627 -1.8285 -1.1655  0.3274
  504SOL     OW 2089   1.795   3.314   9.011  0.2028 -0.0173  0.0980
  504SOL    HW1 2090   1.752   3.320   9.097  0.6692  2.9226  0.2268
  504SOL    HW2 2091   1.886   3.291   9.032 -0.0697 -1.0275  0.2253
  505SOL     OW 2092   6.676   0.273   9.513 -0.0235 -0.1696 -0.1721
  505SOL    HW1 2093   6.600   0.241   9.465  0.8123 -2.9987  0.2345
  505SOL    HW2 2094   6.749   0.262   9.452  0.2637  1.4088 -0.1444
  506SOL     OW 2095   4.189   4.261   2.748  0.1308  0.4347  0.0780
  506SOL    HW1 2096   4.109   4.210   2.742  0.7747 -0.4805 -1.3522
  506SOL    HW2 2097   4.160   4.350   2.767 -1.1541 -0.0479  0.4293
  507SOL     OW 2098   6.830   4.740   4.493 -0.2014 -0.0649  0.1217
  507SOL    HW1 2099   6.781   4.766   4.571  0.5484 -0.3744  0.7075
  507SOL    HW2 2100   6.868   4.822   4.461 -1.0597  0.1745 -0.3241
  508SOL     OW 2101   9.820   8.291   4.389 -0.0018 -0.1215  0.3131
  508SOL    HW1 2102   9.784   8.202   4.392 -0.0186 -0.1593 -0.6602
  508SOL    HW2 2103   9.782   8.335   4.464 -0.4139 -0.7859  0.4993
  509SOL     OW 2104   0.865   3.400   0.069 -0.1723  0.1468 -0.2673
  509SOL    HW1 2105   0.799   3.332   0.054 -0.6257  0.8964 -1.9198
  509SOL    HW2 2106   0.936   3.378   0.009  0.5844  0.0231  0.6469
  510SOL     OW 2107   5.437   1.923   4.354 -0.0838 -1.3050 -1.1207
  510SOL    HW1 2108   5.369   1.989   4.340  1.5037  0.3293 -1.4527
  510SOL    HW2 2109   5.435   1.868   4.275 -2.6453 -2.9150 -0.0753
  511SOL     OW 2110   2.720   7.652   7.550 -0.5045 -0.3745 -0.2711
  511SOL    HW1 2111   2.770   7.611   7.621 -0.7706 -1.3404 -0.6245
  511SOL    HW2 2112   2.759   7.738   7.540 -0.9311  0.0592  1.5268
  512SOL     OW 2113   5.366   8.738   5.368 -0.1610  0.1173  0.5252
  512SOL    HW1 2114   5.301   8.671   5.387 -0.5067  0.6034  1.0700
  512SOL    HW2 2115   5.317   8.820   5.368  0.4175  0.4677  0.7400
  513SOL     OW 2116   9.988   3.514   5.977  0.5216  0.3436 -0.1005
  513SOL    HW1 2117   9.965   3.470   5.895 -0.4494  0.2079  0.2399
  513SOL    HW2 2118   9.921   3.581   5.988  0.9141  0.6682  0.3564
  514SOL     OW 2119   0.831   2.936   4.593 -0.6032  0.4116 -0.3196
  514SOL    HW1 2120   0.839   2.888   4.510 -0.8106 -0.4391  0.1338
  514SOL    HW2 2121   0.840   3.028   4.569  0.8636  0.0948 -1.0860
  515SOL     OW 2122   8.291   7.938   0.426  0.1412  0.2268 -0.3708
  515SOL    HW1 2123   8.385   7.923   0.438  0.1301  0.6214  0.2609
  515SOL    HW2 2124   8.286   7.992   0.347  0.3429 -0.9431 -1.2042
  516SOL     OW 2125   6.873   2.242   4.357  0.2314  0.5211  0.6633
  516SOL    HW1 2126   6.842   2.308   4.420 -1.2360  0.0911  0.4295
  516SOL    HW2 2127   6.920   2.178   4.411 -0.8303  0.2634  1.3073
  517SOL     OW 2128   1.039   9.901   6.565 -0.3272  0.1466  0.0239
  517SOL    HW1 2129   1.106   9.832   6.571  0.4216  0.9229  1.1180
  517SOL    HW2 2130   1.047   9.935   6.476 -0.1277 -0.6111 -0.2532
  518SOL     OW 2131   1.318   9.407   7.376  0.2072  0.2579  0.1592
  518SOL    HW1 2132   1.382   9.336   7.381 -1.2549 -1.3613 -2.1098
  518SOL    HW2 2133   1.305   9.434   7.467  1.6013 -1.6594  0.9999
  519SOL     OW 2134   6.717   2.559   2.551 -0.1014 -0.0216  0.5418
  519SOL    HW1 2135   6.720   2.631   2.489  0.6908 -0.5160 -0.0207
  519SOL    HW2 2136   6.712   2.600   2.637  1.3416  0.7303  0.2896
  520SOL     OW 2137   3.970   8.718   8.126  0.1263 -0.8306 -0.3974
  520SOL    HW1 2138   3.944   8.696   8.036  0.9608 -0.5787 -0.7104
  520SOL    HW2 2139   3.999   8.635   8.164  1.5098 -0.6258 -0.9691
  521SOL     OW 2140   6.689   8.853   9.339 -0.1035 -0.8217  0.1818
  521SOL    HW1 2141   6.647   8.896   9.413  1.1495  1.0004 -0.0988
  521SOL    HW2 2142   6.781   8.848   9.363  0.1344 -1.2388 -0.7804
  522SOL     OW 2143   0.790   8.204   3.987 -0.2157 -0.5815 -0.0076
  522SOL    HW1 2144   0.747   8.260   3.922 -0.9911 -0.7057  0.3863
  522SOL    HW2 2145   0.724   8.137   4.008  0.0058 -0.5187  0.9269
  523SOL     OW 2146   3.701   0.229   5.946  0.3887  0.6696  0.8721
  523SOL    HW1 2147   3.683   0.168   6.018 -2.1983  2.1927  1.6174
  523SOL    HW2 2148   3.689   0.177   5.867  2.5235 -0.8337  1.4243
  524SOL     OW 2149   8.749   8.857   8.035  0.3274  0.1815  0.2987
  524SOL    HW1 2150   8.815   8.800   7.997 -1.1588 -1.5855  0.2361
  524SOL    HW2 2151   8.793   8.900   8.108  2.0730  0.5897 -0.9253
  525SOL     OW 2152   2.185   8.076   9.387 -0.3236  1.1175 -0.2070
  525SOL    HW1 2153   2.187   8.068   9.292  0.3812 -2.1513 -0.0472
  525SOL    HW2 2154   2.264   8.031   9.417 -1.8118 -0.2539  1.9729
  526SOL     OW 2155   5.924   0.624   2.651 -0.1033 -0.4679 -0.3583
  526SOL    HW1 2156   5.890   0.584   2.571 -0.9056  0.3674 -0.4540
  526SOL    HW2 2157   5.847   0.635   2.706  0.2600  0.0526  0.0488
  527SOL     OW 2158   1.416   6.902   9.350  0.2551 -0.3898  0.4222
  527SOL    HW1 2159   1.397   6.825   9.405 -0.0383 -0.0612  0.7890
  527SOL    HW2 2160   1.344   6.962   9.368  1.9557  1.1930  2.3691
  528SOL     OW 2161   2.207   9.484   1.496 -0.0042 -0.5629 -0.4591
  528SOL    HW1 2162   2.177   9.497   1.406 -0.7709 -0.2386 -0.1638
  528SOL    HW2 2163   2.253   9.565   1.519  0.0046 -0.5596 -0.4908
  529SOL     OW 2164   7.481   3.637   7.220  0.4477 -0.5431  0.7341
  529SOL    HW1 2165   7.413   3.608   7.282 -1.5596 -2.5829 -2.1306
  529SOL    HW2 2166   7.447   3.718   7.183  1.2463  0.2189  1.6059
  530SOL     OW 2167   5.601   5.814   3.081 -0.2352 -0.1346  0.2729
  530SOL    HW1 2168   5.606   5.733   3.132 -0.9415 -0.7829 -0.6526
  530SOL    HW2 2169   5.680   5.862   3.105  0.6779 -1.5203  0.1524
  531SOL     OW 2170   8.187   0.969   9.123  0.0366 -0.2187 -0.1483
  531SOL    HW1 2171   8.241   0.981   9.045  3.2739 -0.6412  1.8374
  531SOL    HW2 2172   8.176   0.875   9.131  0.7931 -0.2546  0.5514
  532SOL     OW 2173   5.457   3.833   3.141  0.0512  0.2995  0.0574
  532SOL    HW1 2174   5.522   3.766   3.160 -0.5276 -1.1350 -2.5290
  532SOL    HW2 2175   5.500   3.916   3.161  2.2488 -0.6646 -0.4842
  533SOL     OW 2176   4.051   2.893   4.238  0.6921  0.2725  0.1184
  533SOL    HW1 2177   4.137   2.910   4.201  0.7535 -1.1147 -0.4532
  533SOL    HW2 2178   3.990   2.933   4.176  0.8427 -1.0413 -0.9304
  534SOL     OW 2179   4.987   2.256   1.182  0.1711  0.3460 -0.3739
  534SOL    HW1 2180   5.023   2.344   1.192 -0.6738  0.6265  0.3330
  534SOL    HW2 2181   5.002   2.214   1.267 -2.4373  0.9798  0.4975
  535SOL     OW 2182   6.435   4.131   6.150  0.2190  0.0029  0.2192
  535SOL    HW1 2183   6.347   4.094   6.162  0.1899  0.5472  2.0845
  535SOL    HW2 2184   6.428   4.184   6.071 -1.4490  0.8815  0.9084
  536SOL     OW 2185   3.935   8.074   2.517  0.1075  0.5959 -0.5366
  536SOL    HW1 2186   3.970   8.103   2.432 -0.9683  0.5813 -0.9963
  536SOL    HW2 2187   4.008   8.087   2.578  0.5929  1.5125 -1.2835
  537SOL     OW 2188   3.181   4.270   0.739  0.1286 -0.1977  0.2909
  537SOL    HW1 2189   3.110   4.266   0.674  0.4720  0.9523 -0.1859
  537SOL    HW2 2190   3.232   4.347   0.713  0.5676 -0.0175  1.6296
  538SOL     OW 2191   2.358   2.076   5.748  0.3328 -0.3643  0.3833
  538SOL    HW1 2192   2.405   2.097   5.667 -0.1661 -0.0223  0.1723
  538SOL    HW2 2193   2.392   2.139   5.812  0.5131 -0.4367  0.3577
  539SOL     OW 2194   6.407   2.823   6.946  0.0559 -0.4272  0.2210
  539SOL    HW1 2195   6.457   2.744   6.929  0.6777 -0.1572  0.7699
  539SOL    HW2 2196   6.334   2.819   6.885 -0.7766 -2.1830  1.2547
  540SOL     OW 2197   7.912   6.243   6.530 -0.0577  0.7130  0.2093
  540SOL    HW1 2198   7.960   6.276   6.454  2.1896 -0.1074  1.2167
  540SOL    HW2 2199   7.827   6.216   6.494  0.3048  1.8959 -1.6811
  541SOL     OW 2200   7.392   8.519   2.911 -0.2378  0.5649 -0.2843
  541SOL    HW1 2201   7.355   8.522   3.000 -0.1755  1.6002 -0.2848
  541SOL    HW2 2202   7.483   8.546   2.922  0.1499 -0.6093 -0.4891
  542SOL     OW 2203   7.693   2.232   2.849  0.5552 -0.3913 -0.1813
  542SOL    HW1 2204   7.640   2.241   2.929  1.1123  0.1714  0.1353
  542SOL    HW2 2205   7.697   2.321   2.814  1.6739 -0.3470  0.0475
  543SOL     OW 2206   3.411   4.649   9.534 -0.0783  0.1367 -0.3741
  543SOL    HW1 2207   3.356   4.584   9.491 -0.7033  0.8023 -0.5931
  543SOL    HW2 2208   3.417   4.618   9.625 -0.2905 -0.2761 -0.4971
  544SOL     OW 2209   8.922   6.376   7.621 -1.0637 -0.1493 -0.0707
  544SOL    HW1 2210   8.846   6.431   7.605 -0.8477  0.4322  0.8431
  544SOL    HW2 2211   8.908   6.299   7.565 -1.1325  1.0118 -1.7249
  545SOL     OW 2212   5.873   7.832   3.636 -0.1216 -0.9171  0.1058
  545SOL    HW1 2213   5.918   7.752   3.661  1.1529 -0.4198 -0.4918
  545SOL    HW2 2214   5.797   7.837   3.694 -0.5567 -2.8473 -0.2490
  546SOL     OW 2215   4.071   6.565   9.188  1.0455 -0.1903  0.0340
  546SOL    HW1 2216   4.016   6.505   9.138 -0.1835 -0.0167  1.0998
  546SOL    HW2 2217   4.139   6.594   9.127 -1.1995  1.1459 -1.9938
  547SOL     OW 2218   3.960   3.837   1.551 -0.3339 -0.0482 -0.0233
  547SOL    HW1 2219   4.047   3.820   1.515 -0.4701 -0.2195 -0.2707
  547SOL    HW2 2220   3.900   3.791   1.493 -0.4702 -1.4513  1.1529
  548SOL     OW 2221   1.355   7.772   1.966 -0.0198  0.0552  0.2695
  548SOL    HW1 2222   1.330   7.853   2.012  1.6812  0.9004 -0.2271
  548SOL    HW2 2223   1.271   7.736   1.936 -0.8868  1.2365  1.1385
  549SOL     OW 2224   1.732   5.345   8.321 -0.3228 -0.5097  0.2573
  549SOL    HW1 2225   1.639   5.341   8.297 -0.2263 -1.2312 -0.0278
  549SOL    HW2 2226   1.768   5.262   8.291  0.2667 -0.5406  1.0119
  550SOL     OW 2227   0.527   5.635   4.289 -0.0250  0.8189 -0.3918
  550SOL    HW1 2228   0.558   5.710   4.339  0.2104  0.3097  0.2343
  550SOL    HW2 2229   0.444   5.611   4.331  1.3841 -1.1686  1.3906
  551SOL     OW 2230   4.491   4.891   7.554  0.5634 -0.1987  0.1042
  551SOL    HW1 2231   4.499   4.927   7.642  0.1227  2.0358 -0.6909
  551SOL    HW2 2232   4.567   4.924   7.507  0.9220 -1.5573 -0.3221
  552SOL     OW 2233   7.139   3.770   2.685  0.0445  0.1547 -0.0057
  552SOL    HW1 2234   7.113   3.832   2.616  0.4885  0.7040  0.3161
  552SOL    HW2 2235   7.139   3.823   2.765 -1.0314 -0.6067  0.5222
  553SOL     OW 2236   8.579   2.792   4.518  0.3864 -0.2591 -0.0213
  553SOL    HW1 2237   8.662   2.812   4.475  0.7057 -0.3008  0.5761
  553SOL    HW2 2238   8.534   2.734   4.456  0.1243  1.0102 -1.0578
  554SOL     OW 2239   9.524   9.484   2.859 -0.8725  0.1643 -0.1512
  554SOL    HW1 2240   9.591   9.450   2.799 -1.8260 -1.8450 -0.1711
  554SOL    HW2 2241   9.442   9.473   2.811 -1.2980  2.3149 -0.0082
  555SOL     OW 2242   3.001   4.823   7.545  0.3898 -0.5531 -0.2352
  555SOL    HW1 2243   2.984   4.908   7.505  0.7204  0.8189  2.3343
  555SOL    HW2 2244   2.994   4.761   7.472 -2.3580  1.3290 -1.8013
  556SOL     OW 2245   2.002   7.815   4.525 -0.6472 -0.6187  0.2318
  556SOL    HW1 2246   1.973   7.843   4.438  0.6380 -1.6053 -0.5442
  556SOL    HW2 2247   1.930   7.761   4.557 -1.1584 -0.1980 -0.1773
  557SOL     OW 2248   3.431   1.188   4.242  0.8443 -0.0736  0.1270
  557SOL    HW1 2249   3.457   1.098   4.222  1.9166  0.1914  0.2737
  557SOL    HW2 2250   3.384   1.181   4.325  0.4741 -0.5576 -0.1178
  558SOL     OW 2251   9.610   7.033   0.552  0.6500 -0.3864 -0.4774
  558SOL    HW1 2252   9.598   6.939   0.535  0.4829 -0.2027 -1.4385
  558SOL    HW2 2253   9.625   7.039   0.646  0.9139 -1.4078 -0.4455
  559SOL     OW 2254   1.268   4.692   3.622  0.2764  0.0836 -0.4031
  559SOL    HW1 2255   1.192   4.748   3.633  0.5869  0.7875 -1.6167
  559SOL    HW2 2256   1.233   4.611   3.583  0.1073  0.3018 -0.7066
  560SOL     OW 2257   1.068   6.222   7.926 -0.5897  0.4497  0.1963
  560SOL    HW1 2258   1.043   6.311   7.953 -0.8022  0.2419  0.6905
  560SOL    HW2 2259   1.126   6.236   7.851  0.2166  1.0507  0.9018
  561SOL     OW 2260   8.075   0.314   7.301 -0.0693 -0.1969 -0.1165
  561SOL    HW1 2261   8.050   0.326   7.209 -0.6692  3.7134  0.3677
  561SOL    HW2 2262   7.995   0.333   7.350  0.5581 -0.9620  1.2523
  562SOL     OW 2263   7.453   6.860   7.500 -0.3135 -0.3540  0.4396
  562SOL    HW1 2264   7.382   6.872   7.563  0.8416  1.0084  1.5384
  562SOL    HW2 2265   7.415   6.805   7.431 -2.5281  0.6066  0.8210
  563SOL     OW 2266   7.368   8.706   7.839  0.2154 -0.5771 -0.5370
  563SOL    HW1 2267   7.362   8.796   7.810  1.9608 -0.7120 -1.4185
  563SOL    HW2 2268   7.305   8.700   7.912 -1.2349  0.8343 -1.6156
  564SOL     OW 2269   6.661   4.867   8.228 -0.2531  0.2721 -0.4106
  564SOL    HW1 2270   6.754   4.844   8.232 -0.4742 -0.5009  1.2181
  564SOL    HW2 2271   6.661   4.963   8.218  0.7263  0.3814  0.4199
  565SOL     OW 2272   7.610   3.812   2.765  0.0842 -0.6759  0.0898
  565SOL    HW1 2273   7.679   3.764   2.719 -1.5399 -0.4965 -2.8194
  565SOL    HW2 2274   7.653   3.892   2.797  1.4299 -1.0241 -0.7760
  566SOL     OW 2275   0.305   0.365   9.766 -0.5828 -0.1933  0.0266
  566SOL    HW1 2276   0.370   0.434   9.779 -1.3470  0.4681  0.4551
  566SOL    HW2 2277   0.344   0.288   9.808  0.2489 -0.0210 -0.3941
  567SOL     OW 2278   4.752   6.743   7.708  0.2620  0.1735  0.0397
  567SOL    HW1 2279   4.721   6.652   7.706  1.3371 -0.2036  0.1036
  567SOL    HW2 2280   4.843   6.738   7.680  0.7160  1.0830  1.3004
  568SOL     OW 2281   5.668   3.620   2.074  0.7923 -0.3627  0.0590
  568SOL    HW1 2282   5.586   3.570   2.065  0.7957 -0.3047 -0.3121
  568SOL    HW2 2283   5.722   3.590   2.001  0.6966  0.3734 -0.3152
  569SOL     OW 2284   1.167   0.828   1.373  0.0814 -0.2508 -0.0969
  569SOL    HW1 2285   1.111   0.903   1.350 -1.4470 -1.0512  0.8476
  569SOL    HW2 2286   1.207   0.853   1.456 -0.0751 -0.3096 -0.0047
  570SOL     OW 2287   5.517   4.227   6.589 -0.7689 -0.0464 -0.1443
  570SOL    HW1 2288   5.463   4.280   6.531 -0.0684 -0.0799 -0.8449
  570SOL    HW2 2289   5.607   4.255   6.570 -0.4016 -1.3451 -0.4008
  571SOL     OW 2290   5.001   8.187   1.666 -0.1640  0.0459  0.0728
  571SOL    HW1 2291   5.017   8.246   1.592  2.8948 -0.8717 -0.1195
  571SOL    HW2 2292   4.988   8.245   1.741  1.0529  0.9926 -0.4167
  572SOL     OW 2293   9.490   3.360   0.556 -0.6315  0.7063 -0.4381
  572SOL    HW1 2294   9.525   3.437   0.602 -2.2911  0.6463  1.0364
  572SOL    HW2 2295   9.546   3.288   0.584  0.4801  1.2145 -1.2522
  573SOL     OW 2296   8.035   8.592   7.311  0.2798 -0.3390  0.6966
  573SOL    HW1 2297   8.124   8.609   7.340  0.8777 -0.8129 -0.7671
  573SOL    HW2 2298   8.035   8.500   7.284 -1.3633 -1.1240  3.0586
  574SOL     OW 2299   5.461   5.912   2.652  0.9091  0.1953 -0.1966
  574SOL    HW1 2300   5.498   5.825   2.669 -0.8226 -0.5501 -0.0048
  574SOL    HW2 2301   5.514   5.972   2.704  0.9307 -1.0042  1.2071
  575SOL     OW 2302   1.497   3.292   1.917 -0.7274 -0.3049 -0.6904
  575SOL    HW1 2303   1.504   3.199   1.895 -0.8860 -0.0748 -1.7599
  575SOL    HW2 2304   1.446   3.330   1.846 -0.3505  0.6721 -0.4579
  576SOL     OW 2305   4.123   3.538   7.321 -0.6700 -0.6853 -0.0779
  576SOL    HW1 2306   4.039   3.585   7.318 -0.2315  0.0781 -0.6402
  576SOL    HW2 2307   4.187   3.605   7.343  0.0440 -0.8952 -1.4173
  577SOL     OW 2308   7.412   9.014   1.655 -0.1628 -0.1582  0.1357
  577SOL    HW1 2309   7.384   8.930   1.619 -0.4277  0.3545 -0.8913
  577SOL    HW2 2310   7.341   9.040   1.713 -0.5247 -0.1843 -0.2935
  578SOL     OW 2311   9.899   3.171   4.885  0.0932 -0.0492  0.8707
  578SOL    HW1 2312   9.956   3.234   4.842  0.2289 -0.1945  0.8348
  578SOL    HW2 2313   9.856   3.220   4.955 -0.6405  0.3557  0.1464
  579SOL     OW 2314   9.693   5.268   4.082  0.0259  0.2082 -0.4516
  579SOL    HW1 2315   9.668   5.181   4.113  1.6104 -0.1117 -0.0086
  579SOL    HW2 2316   9.721   5.254   3.991 -1.5865  0.6218 -1.0578
  580SOL     OW 2317   7.855   0.607   2.953 -0.1770  0.6916  0.2719
  580SOL    HW1 2318   7.938   0.582   2.913 -0.0541  2.3229 -0.5878
  580SOL    HW2 2319   7.878   0.630   3.043  0.1838  0.4865  0.2322
  581SOL     OW 2320   8.842   3.606   9.573 -0.1963  0.4824 -0.1558
  581SOL    HW1 2321   8.831   3.530   9.515 -0.6486  0.9230 -0.6584
  581SOL    HW2 2322   8.753   3.628   9.600 -0.2585  1.8968 -1.3988
  582SOL     OW 2323   1.613   1.314   2.253 -0.2763 -0.3609  0.8203
  582SOL    HW1 2324   1.531   1.304   2.204 -0.7877 -0.0670  1.5908
  582SOL    HW2 2325   1.681   1.285   2.193 -0.9947 -1.0830  0.3367
  583SOL     OW 2326   3.396   1.410   2.349  0.2776  0.0224  0.3794
  583SOL    HW1 2327   3.317   1.356   2.359  0.4078 -0.1098  0.7156
  583SOL    HW2 2328   3.446   1.366   2.281  0.3482 -0.2428  0.5993
  584SOL     OW 2329   8.175   4.894   4.007  0.1902  0.2353 -0.3725
  584SOL    HW1 2330   8.262   4.931   4.020  0.5382 -0.9638  1.0557
  584SOL    HW2 2331   8.187   4.799   4.020 -1.4256  0.1184  0.5735
  585SOL     OW 2332   2.923   8.917   7.275 -0.4743  0.2729 -0.0071
  585SOL    HW1 2333   2.828   8.918   7.275 -0.5105  0.5441  2.0086
  585SOL    HW2 2334   2.947   8.863   7.350  0.9716  0.0678 -0.5818
  586SOL     OW 2335   3.969   8.351   1.514  0.0070  0.3443  0.2751
  586SOL    HW1 2336   3.931   8.295   1.446 -0.7400  0.5511  0.5150
  586SOL    HW2 2337   4.010   8.423   1.465  3.1707 -1.6021 -0.2178
  587SOL     OW 2338   3.710   3.779   8.166  0.4216 -0.3225 -0.3682
  587SOL    HW1 2339   3.789   3.726   8.153  0.4874 -0.0578 -1.0528
  587SOL    HW2 2340   3.644   3.738   8.111  0.4662  0.2936 -0.8863
  588SOL     OW 2341   4.195   5.212   7.747  0.6624 -0.1904  0.3107
  588SOL    HW1 2342   4.248   5.288   7.769 -1.4312  1.4424  0.0257
  588SOL    HW2 2343   4.206   5.201   7.653 -0.1288  0.6766  0.1063
  589SOL     OW 2344   1.935   5.029   4.826  0.2093  0.0310  0.2770
  589SOL    HW1 2345   1.995   4.966   4.787  0.7903  0.5934  0.2507
  589SOL    HW2 2346   1.902   4.985   4.905  0.2354 -0.4902 -0.0029
  590SOL     OW 2347   7.105   1.702   3.031  0.0617 -0.1228  0.0364
  590SOL    HW1 2348   7.117   1.690   3.125 -0.9112 -1.5755 -0.0007
  590SOL    HW2 2349   7.016   1.673   3.014 -0.5258  2.1025 -1.0327
  591SOL     OW 2350   9.423   8.915   0.876  0.0785 -0.4839  0.5149
  591SOL    HW1 2351   9.411   8.822   0.859  0.6309 -0.6645  1.0988
  591SOL    HW2 2352   9.518   8.928   0.875  0.0456  0.7583 -3.1500
  592SOL     OW 2353   0.081   8.688   2.012  0.5672 -0.2575  0.1932
  592SOL    HW1 2354   0.070   8.739   2.092 -0.5040 -0.5186  0.2173
  592SOL    HW2 2355   0.027   8.610   2.025 -0.2855  0.0939 -1.1116
  593SOL     OW 2356   2.554   7.630   1.221  0.5103  0.1548 -0.7941
  593SOL    HW1 2357   2.486   7.563   1.215 -1.0633  1.4007  1.5222
  593SOL    HW2 2358   2.561   7.665   1.132 -1.0171 -0.8222 -1.3396
  594SOL     OW 2359   8.824   0.209   0.231 -0.4632 -0.7019 -0.1899
  594SOL    HW1 2360   8.775   0.196   0.312 -0.5362 -0.4334 -0.1911
  594SOL    HW2 2361   8.906   0.251   0.259 -1.2032  0.9644 -0.4338
  595SOL     OW 2362   0.743   1.631   9.588  0.0869  0.0158  0.8721
  595SOL    HW1 2363   0.671   1.677   9.544  2.3365  1.6987 -1.3061
  595SOL    HW2 2364   0.761   1.683   9.666 -0.4904  0.0792  0.9657
  596SOL     OW 2365   3.626   5.290   2.897 -0.1915 -0.6483 -0.5604
  596SOL    HW1 2366   3.697   5.300   2.834  0.3256 -3.0067 -0.4295
  596SOL    HW2 2367   3.592   5.379   2.908  1.0355  0.1452 -2.5729
  597SOL     OW 2368   0.357   3.153   0.656 -0.4704  0.1749 -0.4030
  597SOL    HW1 2369   0.334   3.137   0.748  0.9274  2.1024  0.3504
  597SOL    HW2 2370   0.353   3.066   0.615  0.5401 -1.0558  1.8771
  598SOL     OW 2371   7.095   0.105   6.921  0.1456 -0.4738  0.5470
  598SOL    HW1 2372   7.024   0.047   6.948 -2.3296  1.5142 -1.1329
  598SOL    HW2 2373   7.070   0.191   6.956 -0.3829  1.0486 -3.0975
  599SOL     OW 2374   5.393   0.144   3.403 -0.5640  0.2491  0.1071
  599SOL    HW1 2375   5.415   0.213   3.465  1.0910 -1.1639  1.2054
  599SOL    HW2 2376   5.446   0.163   3.326 -1.1938  0.9662 -0.1603
  600SOL     OW 2377   0.208   9.785   1.480 -0.0116  0.2238 -0.2370
  600SOL    HW1 2378   0.216   9.855   1.546 -0.3251 -0.4806  0.5756
  600SOL    HW2 2379   0.127   9.805   1.434 -0.5674 -0.0813  0.5894
  601SOL     OW 2380   8.834   5.697   4.587 -0.5913  0.1900  0.4143
  601SOL    HW1 2381   8.927   5.704   4.605 -0.4502 -1.7206  0.6431
  601SOL    HW2 2382   8.798   5.651   4.663 -1.3518 -0.9104 -0.5691
  602SOL     OW 2383   4.430   0.085   1.986  0.3523 -0.1562 -0.1661
  602SOL    HW1 2384   4.473   0.145   1.924  0.9621  0.0006  0.3988
  602SOL    HW2 2385   4.362   0.138   2.028  0.4613 -0.0430 -0.1333
  603SOL     OW 2386   2.526   0.589   7.005  0.5620 -0.1037 -0.3399
  603SOL    HW1 2387   2.529   0.670   7.057 -0.8473 -0.9123  1.1051
  603SOL    HW2 2388   2.536   0.519   7.070  1.5904 -1.1159 -1.5436
  604SOL     OW 2389   4.297   8.241   5.253  0.1826 -0.0115  0.1811
  604SOL    HW1 2390   4.342   8.241   5.169  1.8748  0.9016  1.0331
  604SOL    HW2 2391   4.253   8.327   5.256 -0.5129 -0.3481 -0.0643
  605SOL     OW 2392   1.581   4.922   1.165  0.4114 -0.0003  0.2563
  605SOL    HW1 2393   1.525   4.998   1.183  0.2615 -0.4990  2.1856
  605SOL    HW2 2394   1.669   4.950   1.191  0.6810  0.0654 -0.6923
  606SOL     OW 2395   4.698   6.050   4.357 -0.0586 -0.1642 -0.3872
  606SOL    HW1 2396   4.676   6.094   4.275 -0.5053  0.1005 -0.1285
  606SOL    HW2 2397   4.716   5.959   4.331  0.5906  0.0986 -0.8831
  607SOL     OW 2398   1.627   4.636   1.163  0.0788 -0.1499 -0.3970
  607SOL    HW1 2399   1.718   4.621   1.137 -0.1888 -1.4691 -0.6345
  607SOL    HW2 2400   1.622   4.730   1.179  1.5864 -0.1195  0.0168
  608SOL     OW 2401   3.672   0.660   5.910  0.1672 -0.0370  0.1502
  608SOL    HW1 2402   3.765   0.654   5.888 -0.0620 -0.5511 -0.7157
  608SOL    HW2 2403   3.628   0.613   5.840 -0.6822 -0.6436  1.0610
  609SOL     OW 2404   6.626   8.077   4.812 -0.5891 -0.1119 -0.6373
  609SOL    HW1 2405   6.613   7.984   4.793 -0.2270  0.1662 -2.4804
  609SOL    HW2 2406   6.718   8.092   4.794  0.1633  0.0156  2.6841
  610SOL     OW 2407   2.834   6.256   3.432 -0.6759  0.6194 -0.6176
  610SOL    HW1 2408   2.806   6.286   3.345  1.0766  0.1964 -1.3789
  610SOL    HW2 2409   2.929   6.244   3.423  0.0048  2.9271  2.0441
  611SOL     OW 2410   6.340   3.966   9.174  0.2502 -0.0440 -0.3873
  611SOL    HW1 2411   6.293   3.884   9.191  0.1091 -0.1921 -1.3989
  611SOL    HW2 2412   6.271   4.027   9.146  0.2237  0.6982  1.2065
  612SOL     OW 2413   2.334   7.643   3.231 -0.1501 -0.4673 -0.0076
  612SOL    HW1 2414   2.294   7.715   3.182 -0.9609 -1.7648 -1.3356
  612SOL    HW2 2415   2.381   7.591   3.165  0.7367 -0.9712  0.9743
  613SOL     OW 2416   8.634   6.847   1.225 -0.3508 -0.1417 -0.1329
  613SOL    HW1 2417   8.611   6.930   1.183  0.7111 -0.1072 -0.6683
  613SOL    HW2 2418   8.701   6.809   1.169  1.1700 -0.0602  1.5491
  614SOL     OW 2419   9.359   2.883   3.559 -0.1974  0.4058 -0.2049
  614SOL    HW1 2420   9.346   2.939   3.636  1.7423  2.7315 -1.4249
  614SOL    HW2 2421   9.437   2.918   3.518 -0.4900 -1.5424 -2.6037
  615SOL     OW 2422   5.115   9.143   6.396 -0.5873  0.1562  0.1261
  615SOL    HW1 2423   5.108   9.053   6.363  0.1581  0.1040  0.1052
  615SOL    HW2 2424   5.204   9.170   6.376 -1.0350  1.1877 -0.5581
  616SOL     OW 2425   7.284   6.107   7.957 -0.2899 -0.1423  0.1539
  616SOL    HW1 2426   7.323   6.144   7.877 -0.1828 -0.3222  0.1217
  616SOL    HW2 2427   7.320   6.161   8.028  0.5318 -0.7029  0.1840
  617SOL     OW 2428   5.302   9.083   8.972  0.2447  0.1873 -0.5088
  617SOL    HW1 2429   5.240   9.086   8.899 -0.7210  1.7207  0.3308
  617SOL    HW2 2430   5.368   9.149   8.950  1.8782 -1.6786 -1.5749
  618SOL     OW 2431   6.255   8.198   3.924  0.0935 -0.1566  0.1813
  618SOL    HW1 2432   6.195   8.231   3.990  0.0401 -2.6866  1.4758
  618SOL    HW2 2433   6.339   8.239   3.945 -0.1105 -0.3086  1.3104
  619SOL     OW 2434   3.171   2.933   0.108 -0.6016  0.2706 -0.5029
  619SOL    HW1 2435   3.165   2.855   0.052 -0.4126 -0.2305  0.1583
  619SOL    HW2 2436   3.107   2.994   0.071 -0.2955  0.0558 -1.4214
  620SOL     OW 2437   6.590   5.457   0.010  0.1016  0.0023 -0.0496
  620SOL    HW1 2438   6.574   5.364  -0.005 -0.7475  0.1909 -0.3429
  620SOL    HW2 2439   6.509   5.489   0.050  0.6685  0.4607  0.7652
  621SOL     OW 2440   0.304   5.351   2.704 -0.1438  0.3127  0.2451
  621SOL    HW1 2441   0.373   5.388   2.759  1.1525 -0.6491 -0.6843
  621SOL    HW2 2442   0.333   5.366   2.614 -1.5528  0.6106 -0.1767
  622SOL     OW 2443   1.647   2.077   7.211 -0.8571 -0.5677 -0.5985
  622SOL    HW1 2444   1.565   2.121   7.189 -0.5131  0.3912 -0.0369
  622SOL    HW2 2445   1.705   2.096   7.136 -0.4911  0.5516 -0.0539
  623SOL     OW 2446   0.912   1.113   8.020  0.0306  0.0155 -0.7661
  623SOL    HW1 2447   0.879   1.202   8.015 -0.9239 -0.3273 -0.8354
  623SOL    HW2 2448   0.912   1.092   8.113 -1.6965 -0.5866 -0.8589
  624SOL     OW 2449   4.448   0.005   7.411  0.1023 -0.5620 -0.5263
  624SOL    HW1 2450   4.497   0.029   7.490 -0.5410 -0.1304 -0.2546
  624SOL    HW2 2451   4.358   0.028   7.431 -0.1058 -0.6993 -1.2943
  625SOL     OW 2452   0.769   1.033   6.704  0.1265 -0.0535 -0.5591
  625SOL    HW1 2453   0.726   0.978   6.638  1.2022 -2.8048  0.8788
  625SOL    HW2 2454   0.852   1.059   6.664  0.1908 -0.5909 -0.7758
  626SOL     OW 2455   8.171   8.693   2.866 -0.1490 -0.6252  0.2482
  626SOL    HW1 2456   8.117   8.636   2.810 -0.4090  1.1705 -1.4171
  626SOL    HW2 2457   8.197   8.765   2.809  2.4263 -0.4136  1.5448
  627SOL     OW 2458   3.897   9.480   2.183 -0.3463  0.2573 -0.1118
  627SOL    HW1 2459   3.967   9.439   2.132  0.3438  1.0421  0.1794
  627SOL    HW2 2460   3.930   9.568   2.203 -1.5690  0.7599 -0.2582
  628SOL     OW 2461   0.673   1.731   8.612  0.4263  0.3385 -0.2143
  628SOL    HW1 2462   0.642   1.640   8.617  0.1793  0.4471  0.3243
  628SOL    HW2 2463   0.732   1.732   8.537  2.9930 -1.0487  1.6273
  629SOL     OW 2464   2.856   1.385   4.315  0.2034 -0.2738 -0.2808
  629SOL    HW1 2465   2.940   1.391   4.270  0.0455 -0.3898 -0.5993
  629SOL    HW2 2466   2.850   1.293   4.342  0.8403  0.0494  1.0669
  630SOL     OW 2467   1.610   8.045   4.393  0.1820  0.4846 -0.0819
  630SOL    HW1 2468   1.691   8.095   4.402  1.3467 -1.2937 -0.0954
  630SOL    HW2 2469   1.636   7.966   4.345 -0.7444 -1.9000  3.0000
  631SOL     OW 2470   0.644   7.051   5.670  0.2367  0.0375 -0.1493
  631SOL    HW1 2471   0.615   6.992   5.600  0.2181 -0.1141 -0.0157
  631SOL    HW2 2472   0.738   7.038   5.676  0.7250  2.0821 -2.0236
  632SOL     OW 2473   9.058   1.922   4.836  0.0410 -0.7444 -0.5749
  632SOL    HW1 2474   9.123   1.887   4.775  0.0665 -0.1253 -0.9077
  632SOL    HW2 2475   8.993   1.965   4.781  0.2332  0.1071 -0.1692
  633SOL     OW 2476   6.850   1.378   1.827 -0.0538  0.4949 -0.2209
  633SOL    HW1 2477   6.861   1.401   1.735  2.9973  1.9850  0.3858
  633SOL    HW2 2478   6.936   1.347   1.855 -0.9966 -0.3358  2.0392
  634SOL     OW 2479   8.355   4.993   6.316  1.0006 -0.1186  0.6707
  634SOL    HW1 2480   8.436   5.043   6.308  1.2992 -0.7922 -0.7462
  634SOL    HW2 2481   8.297   5.029   6.249  1.3627 -1.8731 -0.6558
  635SOL     OW 2482   7.620   4.095   6.764  0.1498 -0.1100 -0.3979
  635SOL    HW1 2483   7.530   4.075   6.737  0.3676 -5.9229  1.8296
  635SOL    HW2 2484   7.662   4.128   6.684 -3.5706  1.9202 -1.7530
  636SOL     OW 2485   5.777   5.726   3.387 -0.1226  0.2540 -0.0199
  636SOL    HW1 2486   5.817   5.739   3.473  2.0921 -1.0555 -0.7633
  636SOL    HW2 2487   5.840   5.762   3.325  0.3611 -2.5202 -1.3024
  637SOL     OW 2488   6.576   1.555   9.381  0.5490  0.2472 -0.1504
  637SOL    HW1 2489   6.539   1.515   9.460 -0.8237 -1.4591 -1.6024
  637SOL    HW2 2490   6.512   1.621   9.355  1.5542  1.6384  0.7497
  638SOL     OW 2491   5.530   5.931   5.353 -0.0454  0.1333  0.2929
  638SOL    HW1 2492   5.589   5.956   5.423 -1.0810 -0.0419  1.2536
  638SOL    HW2 2493   5.526   6.008   5.295  0.1033  0.6182  0.9212
  639SOL     OW 2494   9.045   0.392   0.335  0.1839 -0.3949  0.1037
  639SOL    HW1 2495   9.092   0.409   0.253  1.5863 -4.3047 -0.1359
  639SOL    HW2 2496   9.113   0.390   0.402 -0.4849 -0.3609  0.7932
  640SOL     OW 2497   3.289   3.337   3.445  0.5809  0.2750 -0.2652
  640SOL    HW1 2498   3.345   3.342   3.367  2.4653  0.6857  1.0558
  640SOL    HW2 2499   3.328   3.398   3.507 -2.1018  1.5688  0.3105
  641SOL     OW 2500   3.769   6.421   6.455  0.7418 -0.2622 -0.3398
  641SOL    HW1 2501   3.770   6.501   6.507 -3.0317 -1.1204  1.4026
  641SOL    HW2 2502   3.713   6.361   6.505  0.8594 -2.8692 -3.0888
  642SOL     OW 2503   3.754   2.686   5.468 -0.6402 -0.0691  0.1467
  642SOL    HW1 2504   3.689   2.754   5.447 -0.3272  0.7178  1.5447
  642SOL    HW2 2505   3.821   2.695   5.401  0.6072  2.6987  1.5792
  643SOL     OW 2506   3.139   7.319   4.657  0.0989 -0.4563 -0.0556
  643SOL    HW1 2507   3.162   7.412   4.650 -1.2924 -0.1360 -0.6711
  643SOL    HW2 2508   3.157   7.297   4.749  1.4771  0.1077 -0.1603
  644SOL     OW 2509   4.856   1.065   9.148 -0.1567 -0.2898  0.0932
  644SOL    HW1 2510   4.817   1.118   9.217  0.3114 -1.2891  1.1488
  644SOL    HW2 2511   4.812   1.094   9.068  2.1970  3.9359  0.0353
  645SOL     OW 2512   4.369   1.748   0.320 -0.1271  0.2658  0.1278
  645SOL    HW1 2513   4.368   1.666   0.369 -0.5002  0.1349 -0.1007
  645SOL    HW2 2514   4.282   1.785   0.332  0.1563  0.8184  0.5413
  646SOL     OW 2515   3.768   0.952   0.034  0.0138  0.0181  1.1188
  646SOL    HW1 2516   3.728   0.886  -0.023  0.3690  0.7816 -0.0466
  646SOL    HW2 2517   3.842   0.907   0.074  0.1211 -0.3505  0.5138
  647SOL     OW 2518   9.238   1.490   8.285  0.1205  0.1487 -0.1833
  647SOL    HW1 2519   9.232   1.396   8.298  1.4140  0.0873  0.1630
  647SOL    HW2 2520   9.178   1.509   8.213 -0.1335 -0.9380 -0.2663
  648SOL     OW 2521   8.341   8.000   6.580  0.3817  0.3049  0.5568
  648SOL    HW1 2522   8.376   8.087   6.599  1.3481  0.2564 -0.8299
  648SOL    HW2 2523   8.253   8.017   6.547  0.4369  0.7297  0.6208
  649SOL     OW 2524   0.892   9.503   1.380 -0.3867  0.5813  0.1900
  649SOL    HW1 2525   0.917   9.560   1.307 -0.3965 -1.4740 -1.5034
  649SOL    HW2 2526   0.814   9.457   1.348 -1.1248  0.4996  2.0017
  650SOL     OW 2527   6.442   5.984   4.927 -0.7907  0.2697  0.3914
  650SOL    HW1 2528   6.354   6.021   4.915  0.0500  2.3149  0.1708
  650SOL    HW2 2529   6.489   6.050   4.978  0.7446 -0.5986  0.1400
  651SOL     OW 2530   3.159   3.292   4.603  0.8248  0.2153 -0.1228
  651SOL    HW1 2531   3.112   3.210   4.613  0.3599  0.6116  1.0641
  651SOL    HW2 2532   3.102   3.347   4.549  1.3598 -0.3886 -1.3469
  652SOL     OW 2533   5.935   3.446   0.593  0.3124  0.3594  0.0206
  652SOL    HW1 2534   6.008   3.446   0.531  0.6890  0.7922  0.4531
  652SOL    HW2 2535   5.920   3.539   0.612  0.4013  0.2240  0.8045
  653SOL     OW 2536   3.443   2.328   8.502 -0.1701 -0.4439  0.0910
  653SOL    HW1 2537   3.467   2.401   8.446  1.1621 -0.9034  0.0274
  653SOL    HW2 2538   3.436   2.366   8.589  1.4794 -0.3615  0.2336
  654SOL     OW 2539   3.616   0.195   3.230  0.7449  0.2755  0.3705
  654SOL    HW1 2540   3.552   0.254   3.189  1.9943 -0.4745 -2.9748
  654SOL    HW2 2541   3.598   0.202   3.324 -2.1634  2.4290 -0.1977
  655SOL     OW 2542   8.973   2.656   7.780 -0.2025  0.0538 -0.8028
  655SOL    HW1 2543   8.878   2.650   7.786 -0.0668 -1.1105  1.0022
  655SOL    HW2 2544   9.000   2.699   7.862  0.8912 -0.9399 -0.6138
  656SOL     OW 2545   7.036   9.704   9.451  0.8781 -0.2974  1.1967
  656SOL    HW1 2546   7.047   9.796   9.472 -0.2885  0.7619 -2.2221
  656SOL    HW2 2547   6.955   9.700   9.400  2.6784 -2.5041 -1.8871
  657SOL     OW 2548   3.939   5.188   4.285  0.3682  0.5518  0.7424
  657SOL    HW1 2549   3.864   5.245   4.297 -0.1809  0.3622 -1.4002
  657SOL    HW2 2550   3.927   5.117   4.349 -0.2405  1.5070  1.7086
  658SOL     OW 2551   5.824   5.113   4.909  0.4398 -0.4090 -0.3533
  658SOL    HW1 2552   5.735   5.108   4.946  0.4075  0.9831 -0.2074
  658SOL    HW2 2553   5.850   5.204   4.921  2.9708 -1.2938  2.1339
  659SOL     OW 2554   6.814   8.069   2.891  0.2492  0.6860 -0.7268
  659SOL    HW1 2555   6.870   8.143   2.870 -0.3249  1.0840 -0.8821
  659SOL    HW2 2556   6.730   8.108   2.913  0.7941  0.3495  2.4269
  660SOL     OW 2557   5.114   2.886   1.309  0.3205  0.2247  0.1110
  660SOL    HW1 2558   5.071   2.912   1.227  0.0054 -1.3963 -0.2571
  660SOL    HW2 2559   5.111   2.966   1.363 -0.8035  0.8980 -0.8882
  661SOL     OW 2560   1.322   7.443   4.551  0.4104 -0.5009 -0.0458
  661SOL    HW1 2561   1.353   7.511   4.611 -1.3437  0.1912  0.1308
  661SOL    HW2 2562   1.339   7.361   4.596 -0.7920 -0.0007  1.4065
  662SOL     OW 2563   0.709   7.245   9.451  0.2581 -0.0782 -0.2636
  662SOL    HW1 2564   0.632   7.289   9.487  0.2501 -1.1293  1.0983
  662SOL    HW2 2565   0.778   7.312   9.456 -0.0967  0.2507  0.4086
  663SOL     OW 2566   1.359   7.678   5.731  0.0702 -0.0790 -0.2450
  663SOL    HW1 2567   1.274   7.715   5.707  0.7714  0.8594 -1.4363
  663SOL    HW2 2568   1.396   7.743   5.791 -0.5524 -1.1071  1.3003
  664SOL     OW 2569   1.429   4.965   4.830  0.2888  0.3682 -0.0658
  664SOL    HW1 2570   1.471   5.002   4.908  0.7342 -0.7474  0.2459
  664SOL    HW2 2571   1.405   5.041   4.778  0.0437  1.1391  1.1245
  665SOL     OW 2572   7.515   5.141   6.747  0.0198 -0.2885 -0.2026
  665SOL    HW1 2573   7.430   5.157   6.707  0.4124 -1.6482 -1.6810
  665SOL    HW2 2574   7.504   5.061   6.798  0.2573 -0.1304  0.1019
  666SOL     OW 2575   3.759   7.771   1.892 -0.0065 -0.3501 -0.4490
  666SOL    HW1 2576   3.789   7.859   1.872 -0.3068  0.0626  0.8067
  666SOL    HW2 2577   3.810   7.714   1.834  0.0973  0.6418 -1.3615
  667SOL     OW 2578   0.477   3.592   7.727 -0.2605 -0.2150 -0.2062
  667SOL    HW1 2579   0.448   3.534   7.798  0.0817 -0.2143 -0.0640
  667SOL    HW2 2580   0.481   3.536   7.650  0.3395 -0.4495 -0.0105
  668SOL     OW 2581   3.939   1.018   6.408 -0.3356  0.4110 -0.0113
  668SOL    HW1 2582   3.974   1.007   6.496 -2.3975 -1.0820  0.7022
  668SOL    HW2 2583   4.001   0.973   6.351  0.4435  0.4308  0.8077
  669SOL     OW 2584   2.023   3.699   7.416 -0.1789  0.3120  0.2031
  669SOL    HW1 2585   2.072   3.676   7.495 -0.1132  2.1307  0.7324
  669SOL    HW2 2586   2.054   3.637   7.350  1.9025  0.5555  0.8621
  670SOL     OW 2587   2.203   8.384   4.713 -0.0097 -0.5772 -0.1053
  670SOL    HW1 2588   2.122   8.433   4.704 -0.0733 -0.7446 -0.4913
  670SOL    HW2 2589   2.269   8.439   4.672  0.2686  0.0249  1.1278
  671SOL     OW 2590   1.018   7.919   4.017  0.3160 -0.1204  0.0118
  671SOL    HW1 2591   1.077   7.994   4.031 -0.0203 -0.1638  1.9322
  671SOL    HW2 2592   0.986   7.930   3.927  1.6580  1.0377 -0.3557
  672SOL     OW 2593   2.360   5.369   5.477  0.1158 -0.0789 -0.5423
  672SOL    HW1 2594   2.368   5.275   5.492 -1.5042 -0.0604  0.7763
  672SOL    HW2 2595   2.301   5.376   5.401  2.6536 -0.0946 -2.6436
  673SOL     OW 2596   8.435   6.908   4.763 -0.0230  0.1776  0.4172
  673SOL    HW1 2597   8.404   6.872   4.680  2.6672  1.0008 -1.0862
  673SOL    HW2 2598   8.473   6.833   4.809  0.1799  0.0316  0.0210
  674SOL     OW 2599   4.230   7.008   3.802 -0.2861  0.7344  0.0162
  674SOL    HW1 2600   4.187   6.924   3.787 -2.1376  1.6769 -0.2626
  674SOL    HW2 2601   4.166   7.059   3.852 -0.8688  3.3179 -3.0699
  675SOL     OW 2602   8.727   6.167   0.180 -0.0474 -0.3251  0.1462
  675SOL    HW1 2603   8.715   6.111   0.103  1.1246 -2.1181  1.2095
  675SOL    HW2 2604   8.682   6.248   0.157 -1.0509 -1.3618 -1.8120
  676SOL     OW 2605   9.896   9.803   1.423 -0.9705  0.2731 -0.0704
  676SOL    HW1 2606   9.851   9.833   1.502 -1.4083  0.7606 -0.4939
  676SOL    HW2 2607   9.871   9.867   1.356 -0.0037  0.2885 -0.4250
  677SOL     OW 2608   5.303   7.072   6.259  0.2901  0.3856  0.2672
  677SOL    HW1 2609   5.397   7.057   6.251  0.0531 -1.2612  0.2504
  677SOL    HW2 2610   5.267   7.051   6.173 -0.2304 -0.1915  0.6160
  678SOL     OW 2611   8.735   9.661   2.544  0.0780 -0.9279 -0.2629
  678SOL    HW1 2612   8.795   9.650   2.618 -0.6453  1.1383  0.7295
  678SOL    HW2 2613   8.660   9.708   2.581  0.6983  2.3060 -2.6891
  679SOL     OW 2614   2.396   1.056   7.151  0.2733  0.7778 -0.8364
  679SOL    HW1 2615   2.326   1.080   7.212  1.0908 -0.3442  0.6049
  679SOL    HW2 2616   2.470   1.110   7.176  0.4237  0.7679 -1.2580
  680SOL     OW 2617   4.851   6.292   4.146  0.0215  0.1864  0.1347
  680SOL    HW1 2618   4.944   6.311   4.155 -0.4328  1.4101  4.0356
  680SOL    HW2 2619   4.848   6.208   4.098  3.0745  0.0913 -0.0774
  681SOL     OW 2620   0.587   8.981   4.391  0.0141 -0.2337  0.0176
  681SOL    HW1 2621   0.533   9.008   4.317 -1.3602 -0.2802  0.9882
  681SOL    HW2 2622   0.540   9.009   4.469  1.6433  0.1933  0.9105
  682SOL     OW 2623   4.485   0.568   9.689 -0.6409  0.1116 -0.1323
  682SOL    HW1 2624   4.483   0.473   9.680  2.3791 -0.1110  0.3994
  682SOL    HW2 2625   4.511   0.600   9.603  2.1414  0.0630  0.5980
  683SOL     OW 2626   6.188   8.322   8.254  0.0902 -0.1155 -0.3700
  683SOL    HW1 2627   6.193   8.372   8.172  1.1461  0.6290  0.1169
  683SOL    HW2 2628   6.104   8.277   8.250  0.3844 -0.5964 -2.1421
  684SOL     OW 2629   1.652   9.397   9.468  0.3610 -0.3205  0.5556
  684SOL    HW1 2630   1.706   9.321   9.491 -1.0065 -1.1250  1.2509
  684SOL    HW2 2631   1.639   9.443   9.551  0.0073 -0.1190  0.3917
  685SOL     OW 2632   6.048   3.406   5.845  0.5172 -0.1563  0.1322
  685SOL    HW1 2633   6.028   3.325   5.892 -1.3326 -0.8300 -1.7007
  685SOL    HW2 2634   6.120   3.445   5.896 -0.2810 -1.6062  2.5662
  686SOL     OW 2635   8.532   9.585   9.450  0.6500 -0.3685  0.7728
  686SOL    HW1 2636   8.614   9.623   9.419 -0.8330  1.8706 -0.7330
  686SOL    HW2 2637   8.500   9.647   9.516 -0.6682 -0.2398  0.0405
  687SOL     OW 2638   2.808   1.267   3.097 -0.2631 -0.3293  0.4585
  687SOL    HW1 2639   2.741   1.275   3.029 -1.0105 -0.6320  1.1469
  687SOL    HW2 2640   2.773   1.317   3.170 -0.0377 -1.0382  1.0572
  688SOL     OW 2641   1.436   8.359   3.478 -0.8800 -0.1622 -0.5401
  688SOL    HW1 2642   1.465   8.294   3.414  2.0005 -1.2340  1.6470
  688SOL    HW2 2643   1.376   8.311   3.536 -1.4039  0.0780 -0.8796
  689SOL     OW 2644   6.690   5.469   2.588 -0.3338  0.1011  0.0007
  689SOL    HW1 2645   6.778   5.463   2.552 -1.2643 -1.1741 -2.3431
  689SOL    HW2 2646   6.687   5.402   2.656  0.2340 -0.6088 -0.6474
  690SOL     OW 2647   6.964   4.098   9.127  0.6515  0.4324  0.2193
  690SOL    HW1 2648   7.026   4.167   9.104  0.8449  0.2341  0.1432
  690SOL    HW2 2649   6.877   4.138   9.116  0.7500  0.4704 -0.4245
  691SOL     OW 2650   9.656   5.185   5.717  0.0176 -0.0466  0.6203
  691SOL    HW1 2651   9.668   5.117   5.783 -1.9653  0.9856  2.1348
  691SOL    HW2 2652   9.586   5.152   5.661 -1.4786  0.9931  1.8072
  692SOL     OW 2653   5.456   7.398   2.682 -0.0555  0.0767 -0.0604
  692SOL    HW1 2654   5.477   7.306   2.700  0.0212 -0.1153 -1.0602
  692SOL    HW2 2655   5.525   7.447   2.726 -0.0571 -0.3375  0.4278
  693SOL     OW 2656   3.089   9.748   4.003  0.4359  0.1462  0.3502
  693SOL    HW1 2657   3.047   9.713   3.924  1.0889 -1.1352  0.5430
  693SOL    HW2 2658   3.041   9.708   4.075  0.8350  0.0660  0.5767
  694SOL     OW 2659   4.350   8.109   7.708 -0.2990  0.4677  0.0754
  694SOL    HW1 2660   4.347   8.021   7.746 -1.3082  0.2424 -0.4888
  694SOL    HW2 2661   4.270   8.151   7.738 -0.4308  0.7615 -0.6554
  695SOL     OW 2662   0.773   2.650   5.272  0.0831 -0.2018  0.7192
  695SOL    HW1 2663   0.847   2.676   5.326 -0.4062 -0.8544  1.7232
  695SOL    HW2 2664   0.799   2.675   5.183  1.0197  0.6170  1.1989
  696SOL     OW 2665   7.667   4.712   7.239  0.2357  0.5159  0.1456
  696SOL    HW1 2666   7.740   4.731   7.298  2.1454 -0.8285 -1.6501
  696SOL    HW2 2667   7.703   4.650   7.175 -2.2367  0.5149 -1.3762
  697SOL     OW 2668   5.686   0.936   2.702  0.1002  0.7702 -0.0012
  697SOL    HW1 2669   5.736   0.932   2.620 -0.1932 -0.2829 -0.1517
  697SOL    HW2 2670   5.703   1.024   2.737  1.9867  0.4921 -0.0827
  698SOL     OW 2671   1.319   7.574   0.354  0.3653 -0.4005  0.2855
  698SOL    HW1 2672   1.402   7.617   0.333  0.8169 -1.0484  0.6929
  698SOL    HW2 2673   1.294   7.529   0.274 -0.0024  0.4323 -0.0778
  699SOL     OW 2674   4.329   0.346   7.208 -0.4899 -0.4478  0.2766
  699SOL    HW1 2675   4.249   0.390   7.236 -1.6654 -1.0081 -1.9587
  699SOL    HW2 2676   4.375   0.410   7.155 -1.6776 -1.4608 -2.0917
  700SOL     OW 2677   4.662   5.107   8.310  0.5625  0.1645  0.2325
  700SOL    HW1 2678   4.734   5.168   8.292  0.5404  0.1478  0.0842
  700SOL    HW2 2679   4.585   5.164   8.316  0.5221  0.1388 -0.0322
  701SOL     OW 2680   3.635   8.623   8.337  0.2772  0.3139 -0.1741
  701SOL    HW1 2681   3.686   8.556   8.382  2.0693  2.5983  1.4243
  701SOL    HW2 2682   3.694   8.655   8.268 -1.0316 -0.5349 -1.7608
  702SOL     OW 2683   8.179   8.370   1.290 -0.2298  0.2454 -0.4708
  702SOL    HW1 2684   8.265   8.354   1.251  0.0529  1.7935 -0.5319
  702SOL    HW2 2685   8.119   8.315   1.239  0.7850 -1.4220  0.0312
  703SOL     OW 2686   3.420   9.570   3.915  0.1458  0.2489  0.4250
  703SOL    HW1 2687   3.418   9.596   4.007  0.4821  0.2946  0.4236
  703SOL    HW2 2688   3.361   9.631   3.871 -1.3595 -0.8466  0.8651
  704SOL     OW 2689   8.380   6.296   7.167  0.3489 -0.0362  0.0940
  704SOL    HW1 2690   8.468   6.308   7.130  0.3837 -0.0822  0.1607
  704SOL    HW2 2691   8.362   6.203   7.155  0.3057 -0.0248  0.0713
  705SOL     OW 2692   6.609   2.561   9.133  0.3730  0.1206  0.4809
  705SOL    HW1 2693   6.614   2.467   9.148  2.3723 -0.2800 -2.0645
  705SOL    HW2 2694   6.521   2.585   9.163  0.2752 -2.2574  2.3987
  706SOL     OW 2695   5.497   6.234   1.204  0.2627 -0.3655 -0.5376
  706SOL    HW1 2696   5.570   6.284   1.241 -1.1890  0.8221  0.8764
  706SOL    HW2 2697   5.499   6.150   1.251  1.9370 -1.2193 -2.0161
  707SOL     OW 2698   0.016   7.293   2.318 -0.1132  0.5389 -0.2837
  707SOL    HW1 2699  -0.000   7.357   2.248  2.2995  0.8350 -0.6770
  707SOL    HW2 2700   0.103   7.315   2.350 -0.2572 -1.0134  1.3012
  708SOL     OW 2701   0.874   9.813   3.596 -0.2586  0.2387 -0.2630
  708SOL    HW1 2702   0.812   9.786   3.664 -0.4030  2.3133  0.5014
  708SOL    HW2 2703   0.907   9.731   3.560 -1.5272 -0.9193  1.0771
  709SOL     OW 2704   3.585   8.323   6.074 -0.3533  0.0020  0.1376
  709SOL    HW1 2705   3.558   8.389   6.010  0.9990 -1.2569 -1.8898
  709SOL    HW2 2706   3.504   8.280   6.101 -0.9186 -0.1025 -1.5907
  710SOL     OW 2707   8.986   5.540   5.584  0.3575 -0.4427 -0.0255
  710SOL    HW1 2708   8.927   5.615   5.578  0.5582 -0.3600 -1.7048
  710SOL    HW2 2709   9.063   5.574   5.630 -0.0431  0.0467  0.2931
  711SOL     OW 2710   0.218   7.923   4.802 -0.8298  0.1391 -0.2509
  711SOL    HW1 2711   0.308   7.914   4.768 -0.3459 -0.1231  1.0576
  711SOL    HW2 2712   0.164   7.928   4.723  0.4996  2.3270 -1.1396
  712SOL     OW 2713   8.406   5.066   3.990  0.0663 -0.1596  0.6777
  712SOL    HW1 2714   8.394   5.161   3.983  1.3226 -0.0565 -0.5982
  712SOL    HW2 2715   8.499   5.055   4.011 -0.2004 -1.0990  1.4318
  713SOL     OW 2716   2.386   3.359   3.724  0.1809 -0.3739  0.2514
  713SOL    HW1 2717   2.464   3.304   3.709 -0.6957 -1.4011 -0.7677
  713SOL    HW2 2718   2.332   3.308   3.784 -0.3920 -0.3924 -0.2687
  714SOL     OW 2719   1.187   8.655   7.231 -0.4154 -0.0957 -0.4225
  714SOL    HW1 2720   1.215   8.703   7.309  0.2751 -2.1327  0.6689
  714SOL    HW2 2721   1.097   8.684   7.216  0.0860  1.7856 -0.0910
  715SOL     OW 2722   0.898   1.045   6.141  0.1176  0.1805 -0.3800
  715SOL    HW1 2723   0.983   1.036   6.098  1.5611 -1.4901  2.4621
  715SOL    HW2 2724   0.902   1.130   6.185 -0.9572  1.4345 -2.5679
  716SOL     OW 2725   1.211   9.568   9.947  0.0741  0.3483  0.5019
  716SOL    HW1 2726   1.301   9.578   9.980  0.9545 -1.3455 -1.1917
  716SOL    HW2 2727   1.173   9.655   9.956  2.4004  1.5244 -0.1680
  717SOL     OW 2728   5.812   4.147   4.984 -0.5862 -0.4788  0.3024
  717SOL    HW1 2729   5.842   4.056   4.983  1.2267  0.0640 -0.0913
  717SOL    HW2 2730   5.732   4.147   4.933  0.0443 -1.6713 -0.7398
  718SOL     OW 2731   7.636   6.503   4.615  0.0230 -0.0070  0.0205
  718SOL    HW1 2732   7.602   6.417   4.589 -0.5105  0.9342 -2.7837
  718SOL    HW2 2733   7.730   6.489   4.627 -0.3508 -1.3646  1.6374
  719SOL     OW 2734   0.732   5.574   7.255 -0.6186  0.4093 -0.5733
  719SOL    HW1 2735   0.655   5.617   7.217 -1.3089  1.2534  1.6104
  719SOL    HW2 2736   0.720   5.481   7.235 -2.5213  0.4485  0.1595
  720SOL     OW 2737   7.956   6.005   5.786  0.5376 -0.2926  0.2554
  720SOL    HW1 2738   8.031   6.039   5.835  0.3998  0.1166  0.1856
  720SOL    HW2 2739   7.951   6.061   5.708  1.1514 -1.3366 -0.5553
  721SOL     OW 2740   8.577   6.245   9.191  0.0465 -0.9993  0.3525
  721SOL    HW1 2741   8.589   6.231   9.285 -1.2911 -2.8393  0.3085
  721SOL    HW2 2742   8.501   6.303   9.185  0.0516 -0.9845  0.4208
  722SOL     OW 2743   6.912   4.589   8.627  0.8228 -0.1430  0.0192
  722SOL    HW1 2744   6.896   4.635   8.710  0.9013 -2.1186  1.1966
  722SOL    HW2 2745   6.958   4.653   8.573  2.5618  0.6081  2.2111
  723SOL     OW 2746   6.405   2.400   9.790  0.0624 -0.3055  0.3061
  723SOL    HW1 2747   6.423   2.425   9.699  0.1143 -0.9788  0.1262
  723SOL    HW2 2748   6.383   2.307   9.785  0.4072 -0.4296  1.0289
  724SOL     OW 2749   8.131   7.503   9.864  0.2952  0.1188 -0.4297
  724SOL    HW1 2750   8.099   7.530   9.950  0.5020 -0.1728 -0.2609
  724SOL    HW2 2751   8.052   7.493   9.811  0.1023 -0.5020 -0.0418
  725SOL     OW 2752   5.671   7.984   5.988 -0.4073 -0.3474  0.3274
  725SOL    HW1 2753   5.650   7.891   5.999  0.1632 -0.8552 -2.2660
  725SOL    HW2 2754   5.620   8.011   5.911  2.9255  0.1811 -1.8869
  726SOL     OW 2755   0.930   7.574   9.288  0.1938 -0.5820  0.5065
  726SOL    HW1 2756   0.882   7.611   9.215  1.5566 -1.4633 -0.8986
  726SOL    HW2 2757   0.994   7.641   9.312  0.8458 -0.9231 -0.2336
  727SOL     OW 2758   7.639   9.626   5.233 -0.1221  0.4824 -0.2251
  727SOL    HW1 2759   7.656   9.716   5.262 -0.1536  0.8111 -1.1784
  727SOL    HW2 2760   7.719   9.578   5.254  0.3799  1.0287 -0.8062
  728SOL     OW 2761   1.250   7.413   8.806  0.1857  0.7338  0.2772
  728SOL    HW1 2762   1.191   7.487   8.795 -1.2843 -0.4993 -0.4003
  728SOL    HW2 2763   1.195   7.342   8.837  1.4255 -0.2976  0.2210
  729SOL     OW 2764   7.155   6.686   4.796 -0.6681 -0.4075  0.1493
  729SOL    HW1 2765   7.176   6.602   4.756  1.3505 -0.5464  1.3942
  729SOL    HW2 2766   7.238   6.734   4.797 -1.8573  1.8821 -1.0666
  730SOL     OW 2767   7.102   7.416   7.564  0.0635 -0.3188  0.2303
  730SOL    HW1 2768   7.063   7.421   7.477 -0.3699  1.1804  0.4801
  730SOL    HW2 2769   7.045   7.357   7.613 -0.7170  0.2392  0.0004
  731SOL     OW 2770   1.260   2.009   1.649 -0.3163 -0.9911 -0.3183
  731SOL    HW1 2771   1.343   2.036   1.689 -0.5505 -0.1864 -0.3625
  731SOL    HW2 2772   1.202   1.992   1.723 -0.1771 -1.3563 -0.2910
  732SOL     OW 2773   0.993   5.340   8.466 -0.9002  0.2181  0.1056
  732SOL    HW1 2774   1.024   5.349   8.556 -1.1788  0.0249  0.2210
  732SOL    HW2 2775   1.021   5.421   8.423  0.5897 -0.3473 -0.0388
  733SOL     OW 2776   7.980   8.986   1.986  0.2281 -0.7037 -0.0965
  733SOL    HW1 2777   8.050   9.051   1.996 -1.2596  0.9906 -0.0259
  733SOL    HW2 2778   7.950   8.969   2.075 -1.0698  0.5218 -0.2636
  734SOL     OW 2779   2.215   4.586   8.381 -0.6254  0.1985 -0.0161
  734SOL    HW1 2780   2.154   4.536   8.328 -0.9815  0.1122  0.4768
  734SOL    HW2 2781   2.261   4.521   8.434  0.4060  0.1829 -0.8818
  735SOL     OW 2782   3.995   5.738   3.541 -0.0836  0.1889 -0.2626
  735SOL    HW1 2783   4.000   5.733   3.637  2.4106 -1.8268 -0.4010
  735SOL    HW2 2784   3.933   5.670   3.516 -0.1021  0.1450 -0.0966
  736SOL     OW 2785   1.769   4.173   5.633 -0.2073  0.5029 -0.5426
  736SOL    HW1 2786   1.854   4.213   5.614  0.0670  1.1744  1.7369
  736SOL    HW2 2787   1.790   4.085   5.664 -0.2940  0.7583  0.2705
  737SOL     OW 2788   0.791   8.570   0.557 -0.0773 -0.1791 -0.6727
  737SOL    HW1 2789   0.699   8.582   0.581 -0.1092  0.8987 -1.2646
  737SOL    HW2 2790   0.817   8.490   0.601 -1.7501 -1.3880 -1.7564
  738SOL     OW 2791   5.254   0.321   0.580 -0.2699  0.0254  0.1813
  738SOL    HW1 2792   5.333   0.367   0.607 -0.3899 -0.0570  0.6752
  738SOL    HW2 2793   5.240   0.349   0.489 -0.1242  0.6645  0.3527
  739SOL     OW 2794   5.151   3.629   4.176  0.2709  0.6506 -0.7382
  739SOL    HW1 2795   5.205   3.563   4.132 -0.4329  0.1881 -0.9275
  739SOL    HW2 2796   5.114   3.681   4.105 -2.6023 -1.4273 -0.9571
  740SOL     OW 2797   9.448   7.074   9.690  0.3519 -0.0036 -0.0476
  740SOL    HW1 2798   9.395   7.144   9.654 -1.1741 -1.4998 -0.8629
  740SOL    HW2 2799   9.498   7.115   9.761  0.1881  2.0563 -1.0632
  741SOL     OW 2800   9.777   5.618   7.704 -0.1930 -0.3808 -0.3599
  741SOL    HW1 2801   9.857   5.568   7.691 -0.3541 -0.2992 -1.7675
  741SOL    HW2 2802   9.777   5.683   7.634 -1.8239 -0.8569 -0.8514
  742SOL     OW 2803   5.937   6.942   3.140  0.2438  0.2811 -0.2825
  742SOL    HW1 2804   5.924   6.890   3.060 -0.1440  0.4077 -0.3026
  742SOL    HW2 2805   5.850   6.948   3.179  0.2244  1.1926 -0.4464
  743SOL     OW 2806   4.286   8.275   1.251  0.3354  0.1226 -0.0622
  743SOL    HW1 2807   4.268   8.369   1.251 -0.4891 -0.0172  0.9788
  743SOL    HW2 2808   4.333   8.260   1.333  1.1556 -0.2660 -0.5859
  744SOL     OW 2809   7.389   0.459   2.723 -0.0773 -0.6096  0.6806
  744SOL    HW1 2810   7.334   0.423   2.654 -1.3122  0.3128  1.1471
  744SOL    HW2 2811   7.329   0.509   2.778  1.1286 -0.0976  1.5754
  745SOL     OW 2812   8.786   9.062   4.407 -0.2402  0.4252  0.0865
  745SOL    HW1 2813   8.818   8.990   4.352  0.8784  0.6603  0.4034
  745SOL    HW2 2814   8.761   9.130   4.345 -0.3471  0.1509 -0.1771
  746SOL     OW 2815   7.271   3.437   1.632 -0.5726 -0.0133  0.4275
  746SOL    HW1 2816   7.243   3.346   1.641 -1.1864 -0.1316 -1.9200
  746SOL    HW2 2817   7.284   3.448   1.538 -0.5995  2.3681  0.6569
  747SOL     OW 2818   4.959   7.933   3.096 -0.2212 -0.0392  0.0476
  747SOL    HW1 2819   4.963   7.855   3.040 -0.8407  0.0705 -0.1622
  747SOL    HW2 2820   4.964   7.899   3.185  3.0124 -0.0892 -0.0255
  748SOL     OW 2821   7.990   9.872   4.972  0.0184  0.4505 -0.6090
  748SOL    HW1 2822   8.021   9.906   4.888  0.1701 -0.2039 -0.8243
  748SOL    HW2 2823   8.069   9.840   5.016 -0.3549 -1.5618 -1.3114
  749SOL     OW 2824   0.748   0.103   4.915 -0.0969 -0.2403  0.4197
  749SOL    HW1 2825   0.676   0.114   4.977  0.3723 -0.1541  0.9474
  749SOL    HW2 2826   0.731   0.169   4.847 -1.5313 -1.4365 -0.4470
  750SOL     OW 2827   9.540   7.573   8.761 -0.1654  0.0749  0.1291
  750SOL    HW1 2828   9.580   7.564   8.675  1.0575  0.7302  0.6052
  750SOL    HW2 2829   9.609   7.612   8.816 -0.9449 -0.2451  1.3770
  751SOL     OW 2830   7.779   5.592   0.770  0.7456 -0.1793  0.2648
  751SOL    HW1 2831   7.780   5.684   0.796 -1.3942 -0.3958  1.3440
  751SOL    HW2 2832   7.690   5.578   0.737  1.6759 -1.3530 -1.9558
  752SOL     OW 2833   0.054   9.522   7.919  0.3089 -0.2417  0.3656
  752SOL    HW1 2834  -0.028   9.477   7.898  0.1967  0.2474 -0.2717
  752SOL    HW2 2835   0.110   9.507   7.844  0.2799  0.6473  0.1567
  753SOL     OW 2836   1.421   6.937   0.413  0.1609  0.1135  0.4175
  753SOL    HW1 2837   1.414   6.886   0.332  0.6700  0.9173 -0.1497
  753SOL    HW2 2838   1.368   7.015   0.396  0.9086  0.6643  0.5435
  754SOL     OW 2839   4.713   9.557   0.183  0.5177  0.0944 -0.0749
  754SOL    HW1 2840   4.753   9.589   0.102  0.2588  0.2279 -0.1516
  754SOL    HW2 2841   4.755   9.473   0.199  1.3044  0.5322  0.2049
  755SOL     OW 2842   1.003   7.102   2.199 -0.2889  0.2617 -0.3151
  755SOL    HW1 2843   1.027   7.014   2.170  0.3063  0.2515  0.1940
  755SOL    HW2 2844   1.081   7.135   2.244 -0.7482  0.7768  0.1160
  756SOL     OW 2845   9.662   9.166   7.234  0.0396  0.1569  0.2705
  756SOL    HW1 2846   9.623   9.233   7.178  0.5247 -0.2487 -0.5791
  756SOL    HW2 2847   9.614   9.086   7.213 -0.7702  0.2948  1.5327
  757SOL     OW 2848   9.564   4.966   6.809  0.2358  0.2073 -0.4203
  757SOL    HW1 2849   9.556   4.945   6.902  1.8006 -0.5637 -0.4404
  757SOL    HW2 2850   9.619   4.896   6.772  0.0595  0.7691 -1.8287
  758SOL     OW 2851   5.369   5.978   8.360 -0.6011  0.3444 -0.6545
  758SOL    HW1 2852   5.391   5.885   8.367  0.2284  0.4499 -1.6412
  758SOL    HW2 2853   5.278   5.984   8.389 -1.2993 -1.0674 -2.3919
  759SOL     OW 2854   9.166   3.889   4.328 -0.0774 -0.1189  0.3663
  759SOL    HW1 2855   9.088   3.882   4.382 -0.5308 -1.3334 -0.4097
  759SOL    HW2 2856   9.224   3.819   4.359 -0.7980 -1.5612 -1.3833
  760SOL     OW 2857   2.594   0.555   2.287 -0.5365  0.0382  0.3307
  760SOL    HW1 2858   2.683   0.522   2.278 -0.7366  0.0885 -2.8133
  760SOL    HW2 2859   2.600   0.622   2.356  1.9392  0.3649 -0.1081
  761SOL     OW 2860   7.311   7.964   0.489  0.2435  0.0136  0.2867
  761SOL    HW1 2861   7.359   7.963   0.572  1.7925 -0.4475 -0.5764
  761SOL    HW2 2862   7.274   7.876   0.481 -0.3838  0.2284  0.7346
  762SOL     OW 2863   7.971   4.791   2.156  0.1825 -0.3045  0.6620
  762SOL    HW1 2864   8.025   4.842   2.096 -1.1043 -1.0078 -1.1917
  762SOL    HW2 2865   7.899   4.850   2.179 -1.0109 -1.0049 -1.0496
  763SOL     OW 2866   7.870   5.795   7.496 -0.0043 -0.0945  0.1475
  763SOL    HW1 2867   7.827   5.854   7.558 -0.2459 -2.5422  2.5200
  763SOL    HW2 2868   7.963   5.814   7.506 -0.1156  0.3875  0.3137
  764SOL     OW 2869   8.794   6.000   5.628 -0.9004 -0.4338 -0.5626
  764SOL    HW1 2870   8.727   6.067   5.611 -0.9441 -0.2665  0.2016
  764SOL    HW2 2871   8.791   5.988   5.723  2.4864  2.0690  0.0351
  765SOL     OW 2872   1.036   3.622   5.351  0.4519 -0.2389  0.0263
  765SOL    HW1 2873   1.025   3.538   5.396 -1.6321 -1.1433 -1.9478
  765SOL    HW2 2874   1.100   3.604   5.282  1.4009  0.3406  0.7301
  766SOL     OW 2875   2.806   3.983   8.718 -0.1833 -0.0422 -0.3967
  766SOL    HW1 2876   2.765   3.962   8.634 -1.2841  0.3762  0.0139
  766SOL    HW2 2877   2.737   3.969   8.783  0.6426 -0.3422  0.4451
  767SOL     OW 2878   4.907   3.587   2.605  0.4993 -0.5009 -0.6252
  767SOL    HW1 2879   4.863   3.560   2.686 -1.7321  1.6173 -1.0266
  767SOL    HW2 2880   4.996   3.553   2.614 -0.3801 -2.5213  1.5493
  768SOL     OW 2881   9.954   5.335   9.656  0.0145 -0.0642 -0.4111
  768SOL    HW1 2882  10.008   5.386   9.716 -0.2074  0.6569 -0.8263
  768SOL    HW2 2883   9.942   5.391   9.580  0.6735 -1.1519 -1.3464
  769SOL     OW 2884   3.599   7.606   6.353 -0.4102 -0.8974  0.2864
  769SOL    HW1 2885   3.689   7.598   6.383 -0.0566  1.5381  0.0660
  769SOL    HW2 2886   3.552   7.642   6.428 -0.3486  1.4221 -0.6948
  770SOL     OW 2887   3.961   5.591   9.536 -0.1761  0.2584 -0.1656
  770SOL    HW1 2888   3.952   5.681   9.505 -0.1837 -0.0768 -1.1660
  770SOL    HW2 2889   3.886   5.544   9.498  0.9539 -0.6270 -1.4305
  771SOL     OW 2890   4.899   1.579   5.774  0.3663  0.0465 -0.1166
  771SOL    HW1 2891   4.842   1.521   5.723 -0.5694 -0.6047  1.5902
  771SOL    HW2 2892   4.859   1.582   5.861  2.9730 -0.4939  1.2066
  772SOL     OW 2893   6.328   0.058   1.424 -0.6241 -0.3589 -0.0280
  772SOL    HW1 2894   6.323   0.036   1.517  1.2725 -0.5358  0.0720
  772SOL    HW2 2895   6.422   0.065   1.406 -0.9133 -1.0226 -2.0927
  773SOL     OW 2896   5.049   4.974   4.632  0.4670  0.0643  0.5586
  773SOL    HW1 2897   4.954   4.983   4.643  0.4113  1.2982 -0.7597
  773SOL    HW2 2898   5.059   4.900   4.572  0.2170  1.1187 -0.8383
  774SOL     OW 2899   6.962   2.149   1.398 -0.7852  0.0983 -0.0816
  774SOL    HW1 2900   6.897   2.185   1.459 -1.8216 -1.2138 -0.3508
  774SOL    HW2 2901   7.019   2.223   1.376 -0.0267  0.4994  2.8802
  775SOL     OW 2902   4.666   8.015   8.399  0.3496 -0.4120  0.1731
  775SOL    HW1 2903   4.575   8.024   8.428  0.4453  0.4344  0.2325
  775SOL    HW2 2904   4.703   8.103   8.407  1.3619 -0.8638  0.7671
  776SOL     OW 2905   3.237   8.273   8.529 -0.3956 -0.1105  0.1701
  776SOL    HW1 2906   3.302   8.204   8.540  0.4021  0.6723  0.4605
  776SOL    HW2 2907   3.211   8.268   8.437 -1.2298 -1.5507  0.4613
  777SOL     OW 2908   5.074   4.326   0.846  0.2315  0.7774 -0.1067
  777SOL    HW1 2909   5.013   4.278   0.903 -0.8067  2.0131 -0.1044
  777SOL    HW2 2910   5.141   4.359   0.906  1.2258 -1.0223 -0.1815
  778SOL     OW 2911   5.805   4.998   5.608 -0.3681 -0.5856  0.3384
  778SOL    HW1 2912   5.893   5.004   5.645  0.1338 -0.5442 -0.8079
  778SOL    HW2 2913   5.752   5.056   5.663  0.0823 -1.3824  1.6591
  779SOL     OW 2914   8.739   7.307   6.181 -0.9160  0.1222 -0.1631
  779SOL    HW1 2915   8.647   7.299   6.156 -0.6833  2.9539 -2.4511
  779SOL    HW2 2916   8.738   7.306   6.277 -3.0571 -1.7449 -0.1325
  780SOL     OW 2917   1.555   1.290   8.757 -0.1939 -0.4548 -0.1254
  780SOL    HW1 2918   1.634   1.264   8.805  0.5270  1.8506  0.0463
  780SOL    HW2 2919   1.484   1.279   8.820  0.4656  0.5545  0.8384
  781SOL     OW 2920   4.446   6.914   6.767  0.1695 -0.1534  0.2431
  781SOL    HW1 2921   4.541   6.924   6.770  0.1057  1.3123 -1.3554
  781SOL    HW2 2922   4.418   6.963   6.690 -2.2555  2.4925  2.5408
  782SOL     OW 2923   1.311   9.004   7.145  0.3072  0.2947 -0.0449
  782SOL    HW1 2924   1.258   9.080   7.123 -0.6534 -0.1849  0.5709
  782SOL    HW2 2925   1.261   8.957   7.212  2.1865  0.6408  1.7135
  783SOL     OW 2926   9.947   0.450   1.680  0.4787  0.1339  0.5554
  783SOL    HW1 2927   9.946   0.367   1.727  1.1991  0.3979  1.0426
  783SOL    HW2 2928   9.871   0.444   1.621  0.0744 -0.5539  1.1208
  784SOL     OW 2929   7.810   0.400   8.545  0.1737 -0.3628  0.4937
  784SOL    HW1 2930   7.827   0.310   8.516  1.4028 -0.3453  1.0968
  784SOL    HW2 2931   7.764   0.390   8.628  0.1458 -0.4182  0.4719
  785SOL     OW 2932   5.703   0.901   0.613  0.1936 -0.2686  0.1451
  785SOL    HW1 2933   5.688   0.968   0.547 -1.9122 -3.1197 -2.5829
  785SOL    HW2 2934   5.798   0.892   0.618  0.4415  0.4830 -2.0671
  786SOL     OW 2935   3.495   0.548   3.298  0.0182  0.3374  0.2955
  786SOL    HW1 2936   3.438   0.538   3.374 -1.6630 -0.9381 -1.0454
  786SOL    HW2 2937   3.474   0.472   3.243  2.8733 -0.0677 -0.3875
  787SOL     OW 2938   8.127   8.665   4.054 -0.1635  0.4775 -0.1148
  787SOL    HW1 2939   8.162   8.740   4.103  1.4028  0.8015 -1.6283
  787SOL    HW2 2940   8.049   8.700   4.010  0.4200  1.1877 -0.6214
  788SOL     OW 2941   8.241   8.654   7.777 -0.1487 -0.7442 -0.3079
  788SOL    HW1 2942   8.297   8.730   7.762  0.2352 -0.8614  0.4754
  788SOL    HW2 2943   8.277   8.613   7.856  0.7479 -2.7338 -1.6651
  789SOL     OW 2944   8.726   9.301   9.929 -0.4914 -0.1548  0.0644
  789SOL    HW1 2945   8.793   9.280   9.865  0.0054 -2.0468  1.1291
  789SOL    HW2 2946   8.648   9.254   9.900 -0.7001  0.1874  0.0596
  790SOL     OW 2947   5.553   8.140   5.080 -0.0661  0.0531 -0.0895
  790SOL    HW1 2948   5.497   8.099   5.014 -0.3717 -0.4583  0.4734
  790SOL    HW2 2949   5.637   8.095   5.071  0.1088  0.4661 -0.5894
  791SOL     OW 2950   0.463   4.212   0.623 -0.1323 -0.1318 -0.1821
  791SOL    HW1 2951   0.541   4.185   0.575  1.5190  3.0539  0.3960
  791SOL    HW2 2952   0.418   4.273   0.564 -0.6631  0.1848  0.5339
  792SOL     OW 2953   7.016   1.250   4.689 -0.4433 -0.2265 -0.1068
  792SOL    HW1 2954   6.928   1.243   4.727  0.4308  0.2442  2.1666
  792SOL    HW2 2955   7.048   1.334   4.720  0.1128  0.5660 -2.6028
  793SOL     OW 2956   3.316   3.085   4.926 -0.4726  0.1263 -0.2345
  793SOL    HW1 2957   3.234   3.094   4.974 -1.3328  1.0326 -1.7567
  793SOL    HW2 2958   3.294   3.028   4.852  0.6027 -0.6014 -0.0245
  794SOL     OW 2959   1.822   2.119   4.144 -0.8031  0.0942  0.4760
  794SOL    HW1 2960   1.731   2.105   4.169 -1.1630  2.2319  0.5742
  794SOL    HW2 2961   1.817   2.171   4.064  0.3583 -1.5977 -0.7535
  795SOL     OW 2962   6.280   5.598   4.595  0.1905  0.0031 -0.4109
  795SOL    HW1 2963   6.258   5.616   4.687 -0.4969  0.8520 -0.7193
  795SOL    HW2 2964   6.305   5.684   4.560  0.7131 -0.3657 -0.9493
  796SOL     OW 2965   3.869   5.839   7.635  0.0511 -0.2760  0.4701
  796SOL    HW1 2966   3.775   5.851   7.629 -0.1089 -0.5125  1.9728
  796SOL    HW2 2967   3.907   5.918   7.597 -0.7767  0.4243  1.0746
  797SOL     OW 2968   1.507   5.043   9.675 -0.3822 -0.5469 -0.0982
  797SOL    HW1 2969   1.603   5.043   9.683 -0.4201  1.6530  1.0457
  797SOL    HW2 2970   1.476   5.069   9.762 -1.8938  1.6608 -1.2138
  798SOL     OW 2971   8.052   4.189   5.986 -0.0797 -0.0818  0.4218
  798SOL    HW1 2972   7.962   4.158   5.987 -0.6029  1.3534 -0.0056
  798SOL    HW2 2973   8.104   4.112   6.006 -1.3040 -1.2703 -0.7494
  799SOL     OW 2974   5.123   3.792   7.250 -0.2038 -0.1025 -0.3943
  799SOL    HW1 2975   5.136   3.811   7.157 -0.2664 -0.3638 -0.4570
  799SOL    HW2 2976   5.147   3.700   7.259  1.1407  0.2632  0.1106
  800SOL     OW 2977   6.405   0.181   2.159 -0.0987 -0.6178  0.0412
  800SOL    HW1 2978   6.348   0.106   2.176 -0.8196 -0.1895 -0.4333
  800SOL    HW2 2979   6.350   0.242   2.111  0.6546 -0.0238 -0.0800
  801SOL     OW 2980   9.705   1.904   0.689 -0.1417 -0.3373 -0.1080
  801SOL    HW1 2981   9.616   1.877   0.712 -0.3236  1.3209  1.3534
  801SOL    HW2 2982   9.761   1.834   0.721 -0.7436 -0.1016  1.5314
  802SOL     OW 2983   5.107   9.369   2.240  0.2092 -0.2564  0.9474
  802SOL    HW1 2984   5.082   9.302   2.175  1.5767  1.3168 -1.3380
  802SOL    HW2 2985   5.027   9.420   2.253 -0.0459 -0.4966  0.3784
  803SOL     OW 2986   1.287   1.641   9.587  0.0530  0.0011 -0.2461
  803SOL    HW1 2987   1.354   1.607   9.527  0.1165  2.7715 -1.9166
  803SOL    HW2 2988   1.330   1.642   9.672  0.4890 -2.5944 -0.3582
  804SOL     OW 2989   5.601   8.104   4.129  0.3353 -0.9331 -0.1558
  804SOL    HW1 2990   5.545   8.164   4.178  0.4684 -1.0974  0.2062
  804SOL    HW2 2991   5.642   8.050   4.197  0.4201 -1.2522 -0.4596
  805SOL     OW 2992   4.963   7.970   6.809  0.1837  0.3132  0.0052
  805SOL    HW1 2993   4.911   7.896   6.779 -0.3244 -0.1616  1.9276
  805SOL    HW2 2994   4.901   8.043   6.814 -0.3190 -0.1882  2.0410
  806SOL     OW 2995   4.214   3.652   6.579 -0.2143 -0.5340 -0.4338
  806SOL    HW1 2996   4.295   3.610   6.607  0.1105 -0.3845 -1.1291
  806SOL    HW2 2997   4.147   3.583   6.584 -0.2415 -0.4271  1.0052
  807SOL     OW 2998   5.573   3.845   1.951 -0.5963 -0.4367 -0.0028
  807SOL    HW1 2999   5.620   3.780   2.002 -0.9475 -0.0816  0.8023
  807SOL    HW2 3000   5.482   3.815   1.953 -0.4704 -0.9202 -1.2238
  808SOL     OW 3001   8.537   2.530   0.790 -0.6040  0.1368 -0.3602
  808SOL    HW1 3002   8.450   2.554   0.759  0.4425  2.2719 -1.9426
  808SOL    HW2 3003   8.578   2.613   0.814  0.8501 -0.8594  0.7915
  809SOL     OW 3004   0.405   4.922   7.043 -0.2027  0.1757 -0.1318
  809SOL    HW1 3005   0.464   4.849   7.024 -1.1224 -0.5247 -0.3432
  809SOL    HW2 3006   0.351   4.890   7.116 -0.3075  0.8188  0.0764
  810SOL     OW 3007   5.165   6.095   6.342 -0.1378 -0.0493  0.1191
  810SOL    HW1 3008   5.083   6.093   6.294  0.6542 -3.1656 -1.3551
  810SOL    HW2 3009   5.232   6.098   6.274  0.9942 -2.0287  1.0651
  811SOL     OW 3010   7.193   1.593   7.877 -0.5071 -0.5287  0.2450
  811SOL    HW1 3011   7.199   1.634   7.963 -0.0700  2.8190 -1.2204
  811SOL    HW2 3012   7.279   1.607   7.838 -0.5572 -2.3861 -0.6246
  812SOL     OW 3013   7.124   9.045   8.747 -0.0582 -0.0344  0.4184
  812SOL    HW1 3014   7.068   8.984   8.795  0.0193 -1.1774 -0.8640
  812SOL    HW2 3015   7.063   9.095   8.692 -0.0196  0.3250  0.6964
  813SOL     OW 3016   8.369   5.909   0.924 -0.7478 -0.2781  0.1741
  813SOL    HW1 3017   8.347   5.932   0.834  1.6678 -0.9225 -0.6669
  813SOL    HW2 3018   8.419   5.984   0.957  0.6302 -1.0901  0.0273
  814SOL     OW 3019   2.939   3.391   1.330 -0.1830 -0.3030  0.0358
  814SOL    HW1 3020   3.031   3.416   1.338  0.0517 -1.3695  0.8469
  814SOL    HW2 3021   2.910   3.376   1.420 -1.5218  1.2191 -0.0925
  815SOL     OW 3022   1.725   7.391   4.807  0.2416 -0.1650  0.2641
  815SOL    HW1 3023   1.713   7.424   4.896 -0.0075  0.6391 -0.0579
  815SOL    HW2 3024   1.663   7.442   4.754  0.8997 -0.1185 -0.4772
  816SOL     OW 3025   4.550   8.714   2.203  0.1563  0.0857  0.2452
  816SOL    HW1 3026   4.587   8.797   2.234 -0.1492 -0.3067  1.7716
  816SOL    HW2 3027   4.522   8.669   2.283 -3.5739  0.3035 -0.7247
  817SOL     OW 3028   2.084   4.319   2.047 -0.1589 -0.0677  0.1028
  817SOL    HW1 3029   2.173   4.285   2.057 -0.3504 -1.0389 -1.2861
  817SOL    HW2 3030   2.092   4.393   1.987 -0.1877  0.3830  0.6422
  818SOL     OW 3031   5.236   6.856   2.440  0.6933  0.6981 -0.0350
  818SOL    HW1 3032   5.170   6.925   2.446  0.0949  0.1216  0.1172
  818SOL    HW2 3033   5.226   6.820   2.352  0.6550  0.4625  0.0639
  819SOL     OW 3034   8.706   5.013   2.762 -0.0007 -0.2527  0.4698
  819SOL    HW1 3035   8.672   4.947   2.822  0.4987  0.5907  1.7014
  819SOL    HW2 3036   8.798   4.991   2.750 -0.1950 -0.6819 -0.3784
  820SOL     OW 3037   8.475   9.509   8.739 -0.2883  0.1005  0.0860
  820SOL    HW1 3038   8.392   9.488   8.698 -0.0431  0.6073 -0.6873
  820SOL    HW2 3039   8.467   9.476   8.829 -1.4208  0.3913  0.1018
  821SOL     OW 3040   4.877   1.993   1.932 -0.0541  0.4461  0.3052
  821SOL    HW1 3041   4.787   2.027   1.934 -0.3858 -0.4187  1.6296
  821SOL    HW2 3042   4.868   1.904   1.898  0.5171  0.8813 -1.0243
  822SOL     OW 3043   9.187   0.023   0.368 -0.8358 -0.4326 -0.4162
  822SOL    HW1 3044   9.256   0.080   0.334 -0.6789  0.2629  0.9860
  822SOL    HW2 3045   9.235  -0.048   0.411 -0.8255  1.1684  2.4985
  823SOL     OW 3046   7.392   4.704   4.031 -0.2879 -0.0578 -0.3267
  823SOL    HW1 3047   7.298   4.688   4.031 -0.2792 -0.1130 -0.0997
  823SOL    HW2 3048   7.421   4.681   4.119 -0.4011  1.9663  0.3079
  824SOL     OW 3049   8.953   4.504   7.659  0.2136  1.0382 -0.0346
  824SOL    HW1 3050   8.959   4.420   7.612 -0.3547  1.4987 -0.9602
  824SOL    HW2 3051   9.038   4.545   7.645  0.7303  0.3428  0.9726
  825SOL     OW 3052   5.943   9.420   8.936  0.6626  0.1763 -0.1316
  825SOL    HW1 3053   6.031   9.428   8.899  1.0697  2.7194  1.1663
  825SOL    HW2 3054   5.956   9.420   9.030 -0.7245  0.2937  0.0875
  826SOL     OW 3055   8.790   7.546   6.903  0.9070 -0.2121 -0.0534
  826SOL    HW1 3056   8.706   7.586   6.880  0.4856  0.3839  2.3189
  826SOL    HW2 3057   8.776   7.452   6.892  0.1722 -0.0700 -0.4067
  827SOL     OW 3058   7.065   6.011   5.926 -0.1797  0.0045 -0.1102
  827SOL    HW1 3059   7.057   6.089   5.872  1.3572  0.5960  0.4357
  827SOL    HW2 3060   7.149   5.972   5.899 -0.4780 -0.9324  0.2784
  828SOL     OW 3061   4.786   3.256   2.672  0.0204  0.2703 -0.4209
  828SOL    HW1 3062   4.860   3.289   2.620  1.5848 -1.1043  0.8285
  828SOL    HW2 3063   4.716   3.242   2.608  1.2102  0.5136 -1.8203
  829SOL     OW 3064   3.747   5.411   2.540  0.2348 -0.7683 -0.0443
  829SOL    HW1 3065   3.707   5.324   2.546  1.8451 -1.4875  0.9231
  829SOL    HW2 3066   3.708   5.460   2.613 -1.1094 -0.4470 -0.9362
  830SOL     OW 3067   0.506   9.851   2.303 -0.6534  0.1542  0.3001
  830SOL    HW1 3068   0.579   9.868   2.243 -1.1644  2.1350  0.1608
  830SOL    HW2 3069   0.466   9.770   2.271  1.1066 -0.6345  0.0272
  831SOL     OW 3070   7.065   6.107   8.666  0.4392  0.6271 -0.1286
  831SOL    HW1 3071   7.072   6.107   8.571  0.0871 -1.1081 -0.1866
  831SOL    HW2 3072   7.154   6.091   8.697  0.4721  0.7186 -0.1753
  832SOL     OW 3073   8.831   7.601   8.740  0.4420 -0.0266  0.5126
  832SOL    HW1 3074   8.901   7.652   8.700  0.4871  0.7046  1.4760
  832SOL    HW2 3075   8.794   7.550   8.668  0.7328  0.9798 -0.3795
  833SOL     OW 3076   5.693   8.823   9.101 -0.0266  0.4076 -0.5003
  833SOL    HW1 3077   5.725   8.790   9.017 -0.0184 -0.3746 -0.1981
  833SOL    HW2 3078   5.714   8.753   9.164 -3.0974 -0.5978 -0.4251
  834SOL     OW 3079   0.119   2.513   8.822  0.2215 -0.1958  0.4649
  834SOL    HW1 3080   0.024   2.513   8.825  0.0965 -0.6041 -1.7131
  834SOL    HW2 3081   0.145   2.586   8.878 -1.2350 -1.3518  2.7866
  835SOL     OW 3082   8.753   6.742   0.743 -0.4565 -0.2186 -0.3785
  835SOL    HW1 3083   8.809   6.775   0.673  0.7177 -0.9528  0.1852
  835SOL    HW2 3084   8.751   6.647   0.729  1.2338 -0.6080  1.5579
  836SOL     OW 3085   9.083   0.983   6.863  0.0647 -0.0728  0.2956
  836SOL    HW1 3086   9.120   0.981   6.952  1.0782 -1.1601 -0.1289
  836SOL    HW2 3087   9.149   0.940   6.809 -0.1744  1.2779 -1.1362
  837SOL     OW 3088   2.156   5.671   8.974  0.0162 -0.0666 -0.3388
  837SOL    HW1 3089   2.126   5.612   9.043  1.8074 -0.8869 -0.1870
  837SOL    HW2 3090   2.249   5.650   8.965  0.6188  2.4564 -0.5784
  838SOL     OW 3091   0.014   5.196   5.939 -0.0303  0.0827  0.1061
  838SOL    HW1 3092   0.051   5.109   5.928  2.4128  0.6362  2.7927
  838SOL    HW2 3093   0.059   5.251   5.874 -0.4478 -0.3145 -0.5340
  839SOL     OW 3094   7.383   5.315   9.262  0.6192 -0.5067  0.6656
  839SOL    HW1 3095   7.327   5.244   9.294 -1.0303 -0.8738 -2.5977
  839SOL    HW2 3096   7.417   5.283   9.179  0.8637  1.9980 -0.2934
  840SOL     OW 3097   8.040   7.955   2.716  0.2691 -0.7953 -0.1580
  840SOL    HW1 3098   8.114   7.994   2.670 -0.3702 -0.6687 -1.1199
  840SOL    HW2 3099   7.985   8.030   2.741  0.3140 -0.9068  0.2902
  841SOL     OW 3100   3.921   3.497   9.494  0.0578  0.5655 -0.4511
  841SOL    HW1 3101   3.890   3.585   9.518 -2.7331 -0.3966 -0.1446
  841SOL    HW2 3102   3.907   3.492   9.399  1.0890  0.7381 -0.6232
  842SOL     OW 3103   2.040   7.707   9.306 -0.1788 -0.7893  0.1364
  842SOL    HW1 3104   2.131   7.726   9.283 -0.2002 -1.1135 -0.2333
  842SOL    HW2 3105   2.028   7.615   9.280 -0.8877 -0.4666 -0.7015
  843SOL     OW 3106   1.250   2.883   9.499 -0.3770  0.9739 -0.5039
  843SOL    HW1 3107   1.279   2.797   9.469 -2.3395 -1.0411  2.7924
  843SOL    HW2 3108   1.327   2.922   9.539  0.3780  0.5433 -1.4914
  844SOL     OW 3109   4.309   5.757   6.164  0.1229 -0.3180  0.3022
  844SOL    HW1 3110   4.233   5.706   6.192  0.0516 -0.3732  0.0027
  844SOL    HW2 3111   4.377   5.692   6.148 -0.0101 -0.3356 -0.2156
  845SOL     OW 3112   8.839   7.903   2.279 -0.2866 -0.0145  0.0679
  845SOL    HW1 3113   8.860   7.985   2.234 -0.7412  0.1227  0.1106
  845SOL    HW2 3114   8.805   7.930   2.364  0.5761 -0.2734  0.5086
  846SOL     OW 3115   7.417   2.948   1.094 -0.0244 -0.0933 -0.1425
  846SOL    HW1 3116   7.479   2.934   1.167 -1.0512 -1.8257  0.4707
  846SOL    HW2 3117   7.381   3.035   1.110 -0.8152 -0.7333  1.9358
  847SOL     OW 3118   2.907   1.643   5.425 -0.6354 -0.0511  0.3849
  847SOL    HW1 3119   2.840   1.672   5.363 -1.7708 -0.4036  1.4124
  847SOL    HW2 3120   2.873   1.561   5.460  0.5326 -0.4422  0.6417
  848SOL     OW 3121   8.821   8.773   3.924 -0.3219  0.4502 -0.2806
  848SOL    HW1 3122   8.792   8.863   3.941  0.3761  0.6376 -0.0444
  848SOL    HW2 3123   8.786   8.753   3.837 -0.7591  0.8298 -0.1983
  849SOL     OW 3124   2.634   5.611   6.489 -0.1770  0.0302  0.7077
  849SOL    HW1 3125   2.703   5.638   6.550 -0.6184  0.7431  0.9068
  849SOL    HW2 3126   2.621   5.688   6.434  0.2464 -0.6204 -0.3276
  850SOL     OW 3127   3.539   5.402   4.386 -0.3470 -0.2297  0.2377
  850SOL    HW1 3128   3.531   5.494   4.410  1.6121  0.3250 -1.0836
  850SOL    HW2 3129   3.562   5.402   4.294  2.1299 -1.9260  0.7552
  851SOL     OW 3130   5.842   8.735   2.156 -0.2321  0.4280  0.3566
  851SOL    HW1 3131   5.795   8.798   2.102 -1.4896 -1.0856 -0.4135
  851SOL    HW2 3132   5.804   8.650   2.132 -1.2840 -0.3349  4.0060
  852SOL     OW 3133   2.394   3.870   7.755  0.6179  0.1430  0.8444
  852SOL    HW1 3134   2.415   3.938   7.819  1.5967  0.1374  0.5401
  852SOL    HW2 3135   2.332   3.911   7.695  0.6512  0.5427  1.0836
  853SOL     OW 3136   7.397   2.771   0.155 -0.0272 -0.0617  0.0647
  853SOL    HW1 3137   7.480   2.749   0.197  0.5898 -0.1036 -1.1367
  853SOL    HW2 3138   7.359   2.839   0.211  1.7267  1.3627 -0.3832
  854SOL     OW 3139   4.915   6.841   0.669  0.3315 -0.0732 -0.2978
  854SOL    HW1 3140   5.002   6.825   0.632 -0.5330 -1.2739 -1.9153
  854SOL    HW2 3141   4.856   6.786   0.618 -1.4641  1.0139  0.4967
  855SOL     OW 3142   7.725   8.409   5.904 -0.4376 -0.3112  0.5829
  855SOL    HW1 3143   7.652   8.358   5.869  0.6564 -1.9972  0.6656
  855SOL    HW2 3144   7.803   8.363   5.875  0.6775  1.9602 -0.2884
  856SOL     OW 3145   8.873   3.186   5.896 -0.3339 -0.3032  0.3122
  856SOL    HW1 3146   8.897   3.099   5.926 -0.9146 -1.1868 -1.5717
  856SOL    HW2 3147   8.841   3.231   5.974 -0.9287 -2.1056  1.1634
  857SOL     OW 3148   1.528   3.836   8.834  0.2521  0.4067  0.2162
  857SOL    HW1 3149   1.435   3.826   8.856  0.2284 -1.4245 -0.4860
  857SOL    HW2 3150   1.561   3.901   8.895 -1.1680 -0.0041  1.4818
  858SOL     OW 3151   7.329   8.568   9.700 -0.1116  0.1558 -0.3760
  858SOL    HW1 3152   7.272   8.492   9.712 -1.6122  1.1467 -0.9106
  858SOL    HW2 3153   7.396   8.538   9.638  0.9099 -1.4791  1.3966
  859SOL     OW 3154   2.521   6.110   7.697  0.2557 -0.0630 -0.0182
  859SOL    HW1 3155   2.451   6.113   7.632 -0.8947 -2.1646  1.0254
  859SOL    HW2 3156   2.476   6.100   7.781  1.7825 -0.6574  0.7692
  860SOL     OW 3157   9.010   0.673   3.504 -0.4404  0.3379 -0.1549
  860SOL    HW1 3158   9.032   0.584   3.532 -1.4864  0.8909  2.8952
  860SOL    HW2 3159   9.081   0.727   3.539 -0.6766  0.8792 -0.5008
  861SOL     OW 3160   7.054   3.860   0.342 -0.0404 -0.3531 -0.5372
  861SOL    HW1 3161   6.988   3.790   0.344 -0.6807  0.2460  0.5290
  861SOL    HW2 3162   7.070   3.879   0.435 -0.1405  1.1559 -0.8099
  862SOL     OW 3163   9.539   8.529   1.164 -0.2156  0.3620  0.1328
  862SOL    HW1 3164   9.560   8.459   1.103 -0.7088 -0.2964  0.7020
  862SOL    HW2 3165   9.610   8.592   1.154  0.3126 -0.2926 -0.2829
  863SOL     OW 3166   1.346   9.245   3.139 -0.0065  0.0654  0.2779
  863SOL    HW1 3167   1.342   9.273   3.230 -0.6649 -1.1902  0.6551
  863SOL    HW2 3168   1.391   9.160   3.141 -0.7687 -0.3713 -0.4513
  864SOL     OW 3169   6.865   8.523   0.419  0.1123  0.2918  0.0639
  864SOL    HW1 3170   6.848   8.429   0.429 -1.9956  0.6875  0.8529
  864SOL    HW2 3171   6.922   8.530   0.343  0.8969 -1.6646  0.4189
  865SOL     OW 3172   7.796   8.631   8.068  0.4612  0.4450  0.0715
  865SOL    HW1 3173   7.796   8.631   7.972  1.4256  1.2287  0.0538
  865SOL    HW2 3174   7.877   8.588   8.092 -0.7043 -1.5906  0.6014
  866SOL     OW 3175   0.320   8.464   2.457 -0.6228  0.5991  0.6248
  866SOL    HW1 3176   0.239   8.458   2.406 -0.3832  0.2152  0.2804
  866SOL    HW2 3177   0.380   8.403   2.414  0.5423  2.3736 -0.3826
  867SOL     OW 3178   5.623   5.935   7.944 -1.0592  0.1229  0.6775
  867SOL    HW1 3179   5.571   5.867   7.986  0.5911 -1.4009  0.3818
  867SOL    HW2 3180   5.642   5.998   8.014  1.3153 -2.1518  2.2701
  868SOL     OW 3181   6.836   9.750   5.951 -0.4318  0.0260  0.0348
  868SOL    HW1 3182   6.802   9.716   6.034 -0.6530  0.2148  0.0233
  868SOL    HW2 3183   6.920   9.707   5.940 -0.6217 -0.3685  0.1193
  869SOL     OW 3184   5.990   2.849   0.177  0.1399  0.6513 -0.0610
  869SOL    HW1 3185   6.073   2.895   0.164  0.4490 -0.0717 -0.7388
  869SOL    HW2 3186   5.942   2.862   0.096 -0.3358  0.9161  0.2617
  870SOL     OW 3187   8.694   5.079   8.024  0.6138  0.0016  0.4179
  870SOL    HW1 3188   8.684   5.018   8.097  2.0754  0.0920  0.7258
  870SOL    HW2 3189   8.756   5.144   8.056  0.2621  0.7882 -0.4543
  871SOL     OW 3190   2.799   7.227   7.360  0.2093  0.0007 -0.1297
  871SOL    HW1 3191   2.713   7.193   7.381  0.2264 -0.4778 -0.8172
  871SOL    HW2 3192   2.844   7.155   7.316  1.1552  0.0610  0.6916
  872SOL     OW 3193   7.086   2.397   0.513  0.5029  0.2304  0.2528
  872SOL    HW1 3194   7.133   2.480   0.513  0.8513  0.0467  0.9061
  872SOL    HW2 3195   7.130   2.345   0.581  0.3594 -0.5243 -0.2209
  873SOL     OW 3196   3.704   4.947   5.712 -0.7182 -0.0552  0.1350
  873SOL    HW1 3197   3.693   4.957   5.807 -0.1396 -1.5214  0.3996
  873SOL    HW2 3198   3.676   4.857   5.695  1.0382 -0.4824 -0.7532
  874SOL     OW 3199   7.208   7.213   8.195 -0.1400  0.7856  0.0353
  874SOL    HW1 3200   7.207   7.257   8.110  0.3175 -2.3812 -1.7582
  874SOL    HW2 3201   7.134   7.152   8.192  1.2759 -1.0864  0.8604
  875SOL     OW 3202   1.332   0.870   5.076 -0.2584 -0.4950  0.0669
  875SOL    HW1 3203   1.363   0.817   5.150 -0.4128 -0.8827 -0.1464
  875SOL    HW2 3204   1.389   0.947   5.077  1.4638 -1.7029 -1.0008
  876SOL     OW 3205   9.272   0.796   6.502 -0.0540 -0.4916  0.3254
  876SOL    HW1 3206   9.182   0.829   6.496 -0.2460 -1.2641 -2.6190
  876SOL    HW2 3207   9.309   0.812   6.415  3.0003  0.5772  1.6852
  877SOL     OW 3208   5.196   0.400   2.686 -0.1300 -0.5552  0.2189
  877SOL    HW1 3209   5.229   0.431   2.770  1.4713 -1.2194 -0.1437
  877SOL    HW2 3210   5.103   0.384   2.702  0.0460 -0.2193  1.7211
  878SOL     OW 3211   4.875   7.263   2.732 -0.2791  0.0357  0.3069
  878SOL    HW1 3212   4.818   7.332   2.764  0.4466  0.7387  0.0924
  878SOL    HW2 3213   4.868   7.194   2.799 -0.1745  0.7438  1.0649
  879SOL     OW 3214   6.427   9.290   9.558  0.1306 -0.4362  0.1224
  879SOL    HW1 3215   6.520   9.300   9.578  0.1338 -0.2195 -0.0043
  879SOL    HW2 3216   6.396   9.226   9.622  0.2859 -0.2305  0.4044
  880SOL     OW 3217   7.103   8.408   1.345 -0.0505 -0.2689 -0.0891
  880SOL    HW1 3218   7.147   8.493   1.336  0.0489 -0.4104 -0.9428
  880SOL    HW2 3219   7.168   8.345   1.314 -0.3897 -0.5975 -0.1250
  881SOL     OW 3220   7.785   7.287   7.896  0.6622 -0.2672  0.0839
  881SOL    HW1 3221   7.880   7.291   7.910  0.7785 -0.3491 -0.6158
  881SOL    HW2 3222   7.775   7.230   7.819  0.4041  3.4220 -2.9176
  882SOL     OW 3223   0.211   8.298   0.870 -0.0123  0.1908 -0.6480
  882SOL    HW1 3224   0.301   8.268   0.877 -0.1288  0.0993  0.9734
  882SOL    HW2 3225   0.218   8.393   0.863  0.2282  0.1390 -1.1228
  883SOL     OW 3226   8.456   1.298   5.249  0.4360 -0.2754 -0.4218
  883SOL    HW1 3227   8.453   1.299   5.345 -0.3141 -0.2902 -0.4400
  883SOL    HW2 3228   8.394   1.229   5.224 -1.0411  1.2000 -0.9793
  884SOL     OW 3229   3.255   3.840   0.791  0.1284  0.3526 -0.2890
  884SOL    HW1 3230   3.339   3.796   0.778  0.0125  0.2083 -0.5677
  884SOL    HW2 3231   3.218   3.801   0.870  0.4225  0.5717 -0.0431
  885SOL     OW 3232   5.741   8.583   5.235 -0.3449  0.1582 -0.0200
  885SOL    HW1 3233   5.780   8.499   5.209 -2.9112 -0.9742 -0.5329
  885SOL    HW2 3234   5.762   8.642   5.164  0.8251 -0.2514 -0.0360
  886SOL     OW 3235   5.234   6.472   6.173  0.1854 -0.0017  0.3232
  886SOL    HW1 3236   5.148   6.505   6.198 -0.6034 -0.9668 -1.0294
  886SOL    HW2 3237   5.280   6.461   6.257 -1.9524 -2.0227  1.3671
  887SOL     OW 3238   0.130   1.373   1.432 -0.1753 -0.4788  0.3441
  887SOL    HW1 3239   0.185   1.308   1.475 -0.9127 -1.1604  0.2948
  887SOL    HW2 3240   0.042   1.335   1.434 -0.3525 -0.2097 -1.1069
  888SOL     OW 3241   6.991   6.066   7.289  0.2972 -0.5832  0.2126
  888SOL    HW1 3242   7.038   6.149   7.300  1.5211 -1.2069 -0.1377
  888SOL    HW2 3243   7.042   6.003   7.340 -0.0736 -1.3168 -0.3010
  889SOL     OW 3244   1.789   8.848   7.259  0.0394 -0.1848 -0.4864
  889SOL    HW1 3245   1.711   8.877   7.212 -0.3547  0.5437  0.5709
  889SOL    HW2 3246   1.761   8.772   7.309  0.0187  0.0430 -0.1490
  890SOL     OW 3247   2.812   8.047   8.325 -0.1424 -0.1598 -0.1202
  890SOL    HW1 3248   2.798   8.011   8.413 -1.6812  1.0519  0.1776
  890SOL    HW2 3249   2.861   8.128   8.340 -1.0778  0.4500 -0.2780
  891SOL     OW 3250   1.940   6.719   4.581 -0.0765  0.5674 -0.7371
  891SOL    HW1 3251   2.035   6.709   4.571  0.0129 -0.4679  0.7088
  891SOL    HW2 3252   1.930   6.772   4.660 -0.7157  1.2421 -1.2567
  892SOL     OW 3253   2.146   0.528   0.170 -0.0847  0.1750  0.5436
  892SOL    HW1 3254   2.079   0.463   0.148 -1.2760  0.7500  2.2451
  892SOL    HW2 3255   2.203   0.483   0.232 -1.6743  1.0573  2.7622
  893SOL     OW 3256   2.294   5.116   8.305  0.1560  0.0530  0.2840
  893SOL    HW1 3257   2.298   5.134   8.211  1.1000  1.2813  0.5169
  893SOL    HW2 3258   2.262   5.026   8.312 -0.0681 -0.0013 -1.2034
  894SOL     OW 3259   8.190   7.879   9.884 -0.3071 -0.1038 -0.0956
  894SOL    HW1 3260   8.133   7.946   9.922  0.8894  0.7516  0.2378
  894SOL    HW2 3261   8.144   7.851   9.805 -1.0220  0.8204 -0.0210
  895SOL     OW 3262   2.684   3.345   7.265 -0.6750  0.2927 -0.3033
  895SOL    HW1 3263   2.710   3.394   7.344 -0.6541 -1.7025  1.0087
  895SOL    HW2 3264   2.591   3.364   7.255 -0.2409  2.2249 -1.0871
  896SOL     OW 3265   0.609   9.093   4.711  0.0419 -0.5109 -0.0002
  896SOL    HW1 3266   0.513   9.094   4.708  0.0552 -0.4931 -0.5927
  896SOL    HW2 3267   0.630   9.073   4.802 -0.5359 -2.0165 -0.1693
  897SOL     OW 3268   3.036   6.059   2.184 -0.7993  0.2882 -0.1816
  897SOL    HW1 3269   3.129   6.081   2.184 -1.1260  1.9721 -2.1621
  897SOL    HW2 3270   3.005   6.085   2.271  0.1928  1.5009 -0.1658
  898SOL     OW 3271   9.766   7.581   4.202  0.2782  0.5319  0.2318
  898SOL    HW1 3272   9.771   7.500   4.253 -0.5424 -0.1680 -0.7578
  898SOL    HW2 3273   9.734   7.554   4.116  0.6699  1.8189 -0.3522
  899SOL     OW 3274   1.057   0.819   6.761  0.6022  0.4325  0.3484
  899SOL    HW1 3275   1.095   0.732   6.777  0.5096  0.6100  1.6731
  899SOL    HW2 3276   0.990   0.804   6.694  0.9632 -0.4121  0.1556
  900SOL     OW 3277   5.355   8.952   8.595 -0.5242 -0.3635  0.1168
  900SOL    HW1 3278   5.295   9.019   8.627  0.5514 -0.2083  1.9491
  900SOL    HW2 3279   5.437   8.969   8.640 -0.0639 -2.6148  0.2787
  901SOL     OW 3280   3.270   4.865   5.577 -0.7552 -0.2367  0.2267
  901SOL    HW1 3281   3.254   4.948   5.621  0.0997  1.0527 -1.7397
  901SOL    HW2 3282   3.362   4.845   5.597 -0.7620 -0.3548  0.1396
  902SOL     OW 3283   1.161   5.056   8.580 -0.6786  0.0641  0.6480
  902SOL    HW1 3284   1.148   5.085   8.490 -0.0349  0.2554  0.6099
  902SOL    HW2 3285   1.076   5.020   8.607 -0.7045 -0.5426 -0.2299
  903SOL     OW 3286   9.284   4.509   4.955  0.3684 -0.1422 -0.0523
  903SOL    HW1 3287   9.273   4.597   4.991  0.8241 -0.8184  1.8719
  903SOL    HW2 3288   9.262   4.518   4.862 -0.5734  1.7732  0.3070
  904SOL     OW 3289   7.601   0.084   5.535  0.1980 -0.0190 -0.1177
  904SOL    HW1 3290   7.632   0.155   5.591  0.1059 -0.4775  0.5399
  904SOL    HW2 3291   7.506   0.085   5.546  0.2486 -0.7607  0.5755
  905SOL     OW 3292   1.521   8.091   1.352 -0.5068 -0.0129  1.0051
  905SOL    HW1 3293   1.556   8.044   1.277 -1.3499 -0.5082  0.9087
  905SOL    HW2 3294   1.594   8.098   1.414  0.0479 -0.0514  0.3598
  906SOL     OW 3295   5.789   3.198   3.893  0.2154  0.2863  0.2301
  906SOL    HW1 3296   5.818   3.119   3.939 -2.9477 -0.7536  0.7162
  906SOL    HW2 3297   5.776   3.263   3.962 -0.8996 -0.0635  0.3725
  907SOL     OW 3298   8.148   7.834   3.648 -0.1936 -0.3642  0.2785
  907SOL    HW1 3299   8.225   7.779   3.629 -0.5584 -2.0972  3.1184
  907SOL    HW2 3300   8.091   7.822   3.573  1.5051 -0.5407 -1.0580
  908SOL     OW 3301   8.030   8.691   1.972 -0.1375  0.2835  0.1592
  908SOL    HW1 3302   7.982   8.773   1.961  0.2428  0.6007  0.7929
  908SOL    HW2 3303   7.977   8.641   2.035  0.4697  0.7359  1.0492
  909SOL     OW 3304   1.372   7.460   5.155 -0.2218 -0.0939 -0.0602
  909SOL    HW1 3305   1.284   7.491   5.132 -1.2024 -1.0944  2.0537
  909SOL    HW2 3306   1.387   7.494   5.243  1.6351  0.2229 -0.4595
  910SOL     OW 3307   9.058   0.823   7.178  0.0700  0.3703  0.2487
  910SOL    HW1 3308   9.098   0.803   7.263 -0.1378  0.2242  0.3126
  910SOL    HW2 3309   9.123   0.796   7.114  0.6101  1.3270  0.3756
  911SOL     OW 3310   3.438   7.149   5.671 -0.9936 -0.1874  0.7226
  911SOL    HW1 3311   3.522   7.103   5.668 -0.1996  1.2609 -0.9901
  911SOL    HW2 3312   3.448   7.222   5.610 -2.7518  1.3172  2.1203
  912SOL     OW 3313   2.751   1.529   7.131  0.1645 -0.9315 -0.2178
  912SOL    HW1 3314   2.775   1.527   7.223 -0.8391  1.3172  0.1620
  912SOL    HW2 3315   2.716   1.442   7.114  1.2036 -1.6845  1.2581
  913SOL     OW 3316   0.554   7.817   6.749 -0.0297  0.2794 -0.1237
  913SOL    HW1 3317   0.602   7.809   6.832  0.5851  2.9089 -0.1422
  913SOL    HW2 3318   0.621   7.843   6.685 -0.8239  0.1377 -1.0244
  914SOL     OW 3319   4.468   6.315   3.367  0.1592 -0.0571  0.0534
  914SOL    HW1 3320   4.543   6.305   3.425 -0.6636  0.7683  1.3037
  914SOL    HW2 3321   4.406   6.248   3.395 -0.9242  1.4092  1.2769
  915SOL     OW 3322   8.381   2.696   4.340 -0.6425  0.4139 -0.2858
  915SOL    HW1 3323   8.369   2.605   4.364  0.2647  0.0182 -1.2861
  915SOL    HW2 3324   8.324   2.744   4.401 -0.0482 -0.6891  1.2098
  916SOL     OW 3325   9.944   6.890   1.656  0.6033  0.1418  0.0882
  916SOL    HW1 3326   9.868   6.847   1.696  0.9301  0.8619  1.5553
  916SOL    HW2 3327   9.913   6.922   1.572 -1.0703  1.4223  1.1446
  917SOL     OW 3328   1.657   1.379   2.535  0.6168  0.6507  0.0280
  917SOL    HW1 3329   1.568   1.391   2.567  0.5873 -0.7554  0.5617
  917SOL    HW2 3330   1.647   1.366   2.440  0.2529  0.5179  0.0827
  918SOL     OW 3331   5.035   8.117   5.539 -0.4120  0.3486  0.2633
  918SOL    HW1 3332   4.983   8.185   5.498  0.3157  0.4621 -0.4918
  918SOL    HW2 3333   5.121   8.124   5.498  0.4654  0.7082  2.0604
  919SOL     OW 3334   2.568   3.645   9.228  0.0246 -0.3659  0.0476
  919SOL    HW1 3335   2.552   3.560   9.268  2.3620 -0.5452  0.7442
  919SOL    HW2 3336   2.631   3.627   9.158 -0.0142  0.6879 -0.2706
  920SOL     OW 3337   3.651   2.918   6.858  0.3014 -0.1513  0.1324
  920SOL    HW1 3338   3.616   2.932   6.770 -0.6535 -1.3931  0.2889
  920SOL    HW2 3339   3.741   2.889   6.844  0.0969 -0.5259 -0.4408
  921SOL     OW 3340   7.908   2.723   0.964  0.2197  0.2419 -0.5477
  921SOL    HW1 3341   7.883   2.647   1.016  1.9328 -0.7164 -1.0321
  921SOL    HW2 3342   7.832   2.781   0.968 -1.4430 -1.7946 -0.7664
  922SOL     OW 3343   8.692   8.382   7.188 -0.2710  0.0047 -0.0456
  922SOL    HW1 3344   8.699   8.306   7.246  0.3521  1.4838  1.9163
  922SOL    HW2 3345   8.771   8.379   7.135  1.3730  0.9327  2.2038
  923SOL     OW 3346   6.424   6.755   8.373 -0.3391 -0.0500  0.3169
  923SOL    HW1 3347   6.331   6.775   8.379 -0.5202 -1.2723  3.0890
  923SOL    HW2 3348   6.444   6.707   8.454  2.3465 -1.2770 -0.9331
  924SOL     OW 3349   2.460   3.959   4.981 -0.8857 -0.3591  0.3263
  924SOL    HW1 3350   2.451   4.001   5.067 -1.4848  1.7181 -0.7028
  924SOL    HW2 3351   2.403   4.009   4.923  0.1092 -1.2138 -1.4717
  925SOL     OW 3352   9.887   5.480   1.770  0.0366 -0.3773 -0.0295
  925SOL    HW1 3353   9.867   5.570   1.745 -1.5982 -0.7940 -0.3346
  925SOL    HW2 3354   9.965   5.457   1.719 -1.5322 -0.2575 -2.6405
  926SOL     OW 3355   7.754   8.420   9.042 -0.5075 -0.2187  0.0921
  926SOL    HW1 3356   7.678   8.378   9.081  1.0023 -2.4557  0.7989
  926SOL    HW2 3357   7.719   8.471   8.969 -2.4689 -2.9968 -1.0611
  927SOL     OW 3358   0.507   1.696   7.528 -0.5605 -0.4756  0.4212
  927SOL    HW1 3359   0.554   1.764   7.576 -1.8265  0.6401  0.1641
  927SOL    HW2 3360   0.569   1.664   7.463  0.5225 -0.5929  1.4908
  928SOL     OW 3361   8.582   4.277   7.390 -0.1525  0.7118 -0.0679
  928SOL    HW1 3362   8.533   4.287   7.471  1.0847 -2.9165  1.3456
  928SOL    HW2 3363   8.600   4.366   7.361 -5.8365  2.3692  0.2077
  929SOL     OW 3364   2.524   6.722   4.281 -0.4432  0.6562 -0.1442
  929SOL    HW1 3365   2.539   6.679   4.366 -0.9337  0.1513 -0.3107
  929SOL    HW2 3366   2.564   6.808   4.291  0.0873  0.3625  0.3798
  930SOL     OW 3367   5.535   7.295   8.977 -0.0946  0.3887 -0.2965
  930SOL    HW1 3368   5.628   7.319   8.970 -0.0920  0.2915 -0.6326
  930SOL    HW2 3369   5.529   7.246   9.059  0.5425 -1.2894 -1.1960
  931SOL     OW 3370   4.990   2.432   6.622 -0.0731  0.4010  0.4356
  931SOL    HW1 3371   5.073   2.427   6.575  0.3361 -3.8841  1.2632
  931SOL    HW2 3372   5.016   2.433   6.715 -0.9403  0.9420  0.6779
  932SOL     OW 3373   2.599   4.236   0.712 -0.1446  0.5884  0.0726
  932SOL    HW1 3374   2.588   4.195   0.798 -1.5324  1.2408  0.2375
  932SOL    HW2 3375   2.512   4.233   0.673  0.2291  1.3261 -0.8453
  933SOL     OW 3376   3.647   0.779   6.676 -0.1743  0.0819  0.1563
  933SOL    HW1 3377   3.612   0.773   6.587  1.2186 -1.3277 -0.3385
  933SOL    HW2 3378   3.575   0.752   6.732 -1.0797  1.0192 -0.5254
  934SOL     OW 3379   0.023   3.403   5.736  0.1914 -0.0678  0.0348
  934SOL    HW1 3380  -0.031   3.461   5.683 -0.5387 -1.1000 -0.3825
  934SOL    HW2 3381   0.105   3.394   5.688 -0.0941 -0.2148 -0.4285
  935SOL     OW 3382   9.824   7.567   3.870  0.2033  0.0435 -0.1575
  935SOL    HW1 3383   9.787   7.655   3.868  0.4015  0.1344  0.0749
  935SOL    HW2 3384   9.748   7.509   3.873  0.0687  0.1977 -0.6214
  936SOL     OW 3385   3.347   5.052   2.915 -0.0329  0.0831 -0.0707
  936SOL    HW1 3386   3.280   5.105   2.872 -0.5283 -0.2737  0.2499
  936SOL    HW2 3387   3.346   4.969   2.868 -0.1908 -0.1106  0.2690
  937SOL     OW 3388   6.028   7.692   4.810 -0.0780 -0.4559  0.3991
  937SOL    HW1 3389   6.097   7.722   4.750 -0.0471 -0.6995  0.3147
  937SOL    HW2 3390   5.978   7.629   4.759  1.3279 -2.4313  1.3359
  938SOL     OW 3391   1.966   2.556   5.850  0.0953  0.7600  0.1681
  938SOL    HW1 3392   2.017   2.528   5.774 -0.9878 -1.4810  0.1956
  938SOL    HW2 3393   2.017   2.628   5.887  2.5546 -0.4862 -0.5503
  939SOL     OW 3394   1.851   5.727   5.248 -0.5926 -0.3462 -0.0759
  939SOL    HW1 3395   1.780   5.720   5.184  0.2505  2.5085 -1.4841
  939SOL    HW2 3396   1.903   5.802   5.219  0.9212 -0.0416  2.9733
  940SOL     OW 3397   6.268   5.540   5.851  0.6041  0.7953  0.7746
  940SOL    HW1 3398   6.205   5.599   5.809  0.4829  0.8560  1.0370
  940SOL    HW2 3399   6.271   5.570   5.942  1.0884  0.8540  0.7383
  941SOL     OW 3400   6.053   3.359   3.140 -0.2752  0.2543 -0.6801
  941SOL    HW1 3401   6.056   3.291   3.072  0.1777 -0.3963 -0.0286
  941SOL    HW2 3402   6.005   3.318   3.212 -1.6562  1.3021 -0.9824
  942SOL     OW 3403   9.263   8.921   6.296 -0.0244  0.1094 -0.0586
  942SOL    HW1 3404   9.301   8.927   6.384  2.1035  1.7448 -0.9811
  942SOL    HW2 3405   9.317   8.855   6.252 -1.1160 -0.7432 -0.1533
  943SOL     OW 3406   7.611   9.664   0.419  0.1866 -0.0249  0.3211
  943SOL    HW1 3407   7.561   9.743   0.441  0.5480  0.7164 -1.3574
  943SOL    HW2 3408   7.553   9.615   0.361  0.2396 -0.6822  0.8066
  944SOL     OW 3409   5.808   7.745   0.969  0.0105  0.0277 -0.6095
  944SOL    HW1 3410   5.716   7.719   0.976 -0.4872  0.5561 -3.7357
  944SOL    HW2 3411   5.844   7.689   0.900  1.1332  1.8865 -1.6437
  945SOL     OW 3412   0.440   7.230   5.350  0.0294 -0.2943 -0.2267
  945SOL    HW1 3413   0.535   7.226   5.356 -0.0527 -0.3401  1.6900
  945SOL    HW2 3414   0.412   7.139   5.340  0.1263 -0.4968  1.1490
  946SOL     OW 3415   0.823   6.661   7.962 -0.1484  0.0430  0.1755
  946SOL    HW1 3416   0.790   6.710   7.886  1.3499  1.7982  0.5938
  946SOL    HW2 3417   0.902   6.708   7.988  0.3573 -1.5888  1.7438
  947SOL     OW 3418   4.693   7.261   7.428 -0.3661 -0.1325  0.0043
  947SOL    HW1 3419   4.665   7.177   7.464  0.3511 -1.4105 -2.1641
  947SOL    HW2 3420   4.637   7.274   7.351  0.4600  0.6404 -0.4860
  948SOL     OW 3421   4.586   6.268   1.419 -0.0036 -0.5976 -0.2383
  948SOL    HW1 3422   4.679   6.274   1.438 -0.2412  1.5439  0.4626
  948SOL    HW2 3423   4.543   6.289   1.501 -1.1048 -0.3695 -0.8556
  949SOL     OW 3424   6.300   1.251   6.929  0.5028  0.0046 -0.2509
  949SOL    HW1 3425   6.362   1.281   6.863  1.7676  0.8300  1.2370
  949SOL    HW2 3426   6.338   1.280   7.012 -2.8175  2.3114  0.6469
  950SOL     OW 3427   8.900   3.875   7.683 -0.5689 -0.3419 -0.3305
  950SOL    HW1 3428   8.890   3.812   7.755  1.9105  0.0862  0.4686
  950SOL    HW2 3429   8.865   3.957   7.719 -0.4430 -0.4068 -0.0597
  951SOL     OW 3430   9.761   2.449   2.134 -0.5618 -1.1212 -0.0016
  951SOL    HW1 3431   9.821   2.491   2.196  0.5443 -0.2334 -1.5610
  951SOL    HW2 3432   9.691   2.414   2.187  0.0634  0.0534  1.6891
  952SOL     OW 3433   3.768   5.650   2.332  0.2618 -0.0220  0.1759
  952SOL    HW1 3434   3.819   5.682   2.406  0.5965 -0.4906  0.1549
  952SOL    HW2 3435   3.701   5.594   2.371 -0.1704  0.4993  0.1942
  953SOL     OW 3436   1.732   5.748   9.594  0.1236  0.2879 -0.1684
  953SOL    HW1 3437   1.762   5.796   9.516 -1.9903  1.2131 -0.4758
  953SOL    HW2 3438   1.646   5.714   9.569  0.2194 -1.0016  1.1578
  954SOL     OW 3439   3.125   0.681   8.377  0.7226 -0.6098  0.2951
  954SOL    HW1 3440   3.121   0.686   8.473  1.0469 -1.0952  0.3394
  954SOL    HW2 3441   3.072   0.754   8.347 -0.3760 -1.1534  0.8479
  955SOL     OW 3442   1.599   7.757   6.703 -0.4889  0.1703  0.1422
  955SOL    HW1 3443   1.551   7.708   6.770 -2.7025  0.8779 -0.8350
  955SOL    HW2 3444   1.633   7.833   6.749  1.1581 -1.1526  1.2073
  956SOL     OW 3445   3.969   6.049   6.777 -0.4548 -0.1036 -0.6729
  956SOL    HW1 3446   4.031   5.981   6.801  0.1677  0.4098 -0.8034
  956SOL    HW2 3447   3.886   6.020   6.815  0.0792 -0.2946  0.3842
  957SOL     OW 3448   3.284   3.728   0.054  0.0011  0.1975  0.2712
  957SOL    HW1 3449   3.377   3.741   0.072  0.2629  1.3896 -1.6942
  957SOL    HW2 3450   3.279   3.642   0.014 -0.1388 -0.9785  2.6529
  958SOL     OW 3451   8.345   9.193   4.524 -0.1574 -0.0941  0.0145
  958SOL    HW1 3452   8.290   9.131   4.475 -0.3512  0.8032 -0.9311
  958SOL    HW2 3453   8.323   9.176   4.616 -0.1584 -1.4588 -0.2064
  959SOL     OW 3454   9.369   8.133   5.790  0.6838 -0.4125  0.3659
  959SOL    HW1 3455   9.434   8.111   5.723  1.4088  1.2059  0.4960
  959SOL    HW2 3456   9.309   8.193   5.746 -0.2094 -1.1796  0.5153
  960SOL     OW 3457   8.027   5.908   4.277 -0.4451 -0.3157 -0.7856
  960SOL    HW1 3458   8.060   5.879   4.192 -1.3746 -0.2818 -1.1649
  960SOL    HW2 3459   8.026   5.828   4.330  0.8689 -0.1945 -0.5532
  961SOL     OW 3460   3.535   0.613   4.847 -0.3945  0.3338 -0.3169
  961SOL    HW1 3461   3.557   0.533   4.799 -1.2605 -1.1911  1.6940
  961SOL    HW2 3462   3.617   0.640   4.887  0.0936  0.9994 -1.6883
  962SOL     OW 3463   0.312   0.429   4.809 -0.2717  0.3385  0.0024
  962SOL    HW1 3464   0.390   0.478   4.835 -0.6869 -0.2587  2.5869
  962SOL    HW2 3465   0.242   0.462   4.866 -1.3260 -0.9290 -0.5037
  963SOL     OW 3466   7.499   3.651   6.050 -0.0529  0.3543 -0.5336
  963SOL    HW1 3467   7.458   3.575   6.090 -0.3172  0.4868 -0.5446
  963SOL    HW2 3468   7.593   3.640   6.065 -0.1209  0.2124 -0.2167
  964SOL     OW 3469   0.123   6.768   4.248 -0.2895  0.6429 -0.0594
  964SOL    HW1 3470   0.192   6.782   4.313 -0.1927 -1.5979  0.4023
  964SOL    HW2 3471   0.089   6.680   4.268 -2.1758  1.0284 -1.2965
  965SOL     OW 3472   9.515   4.602   6.962  0.1921 -0.1770 -0.5488
  965SOL    HW1 3473   9.530   4.558   7.046  1.8217  1.0054 -0.1615
  965SOL    HW2 3474   9.497   4.532   6.900  2.1015 -1.3675  0.1569
  966SOL     OW 3475   0.428   0.644   7.015 -0.7049 -0.2730 -0.1009
  966SOL    HW1 3476   0.456   0.572   6.958 -2.9599 -1.1778 -0.1968
  966SOL    HW2 3477   0.461   0.622   7.102  0.3717 -0.3309 -0.5152
  967SOL     OW 3478   3.731   9.751   5.861 -0.3155  0.3075 -0.4330
  967SOL    HW1 3479   3.700   9.716   5.944  0.9363 -0.8980 -0.4461
  967SOL    HW2 3480   3.818   9.713   5.849  0.4989  2.2598 -1.1911
  968SOL     OW 3481   3.858   0.562   4.887 -0.3869  0.3723  0.3849
  968SOL    HW1 3482   3.935   0.539   4.939 -1.3226 -0.7369  1.3135
  968SOL    HW2 3483   3.886   0.638   4.835  1.7740 -0.8757 -0.3756
  969SOL     OW 3484   9.594   0.394   0.194 -0.0801  0.3768  0.1306
  969SOL    HW1 3485   9.660   0.447   0.239 -0.5580  0.6402  0.5340
  969SOL    HW2 3486   9.520   0.391   0.254  0.5093 -2.1400  0.8520
  970SOL     OW 3487   0.405   7.454   9.271  0.6505  0.0730  0.1490
  970SOL    HW1 3488   0.471   7.404   9.224  0.4365  0.0122 -0.0909
  970SOL    HW2 3489   0.375   7.520   9.207 -2.6065 -2.5477 -1.3126
  971SOL     OW 3490   2.644   0.338   1.094 -0.0130 -0.5712 -0.1769
  971SOL    HW1 3491   2.656   0.321   1.188 -0.0161  0.4052  0.0071
  971SOL    HW2 3492   2.551   0.322   1.079 -0.1357 -0.1362  0.1148
  972SOL     OW 3493   1.170   9.622   8.238 -0.0528  0.2218  0.0291
  972SOL    HW1 3494   1.105   9.680   8.199  1.0679  1.8732  0.4706
  972SOL    HW2 3495   1.250   9.639   8.188  0.2640 -1.1336  0.0357
  973SOL     OW 3496   7.314   0.921   6.769  0.2065  0.0765  0.3459
  973SOL    HW1 3497   7.236   0.957   6.811  0.2788 -0.3963  0.8895
  973SOL    HW2 3498   7.383   0.985   6.787 -0.1580  0.7661 -0.5895
  974SOL     OW 3499   1.853   6.364   2.336 -0.4130 -0.2897 -0.0736
  974SOL    HW1 3500   1.919   6.305   2.299 -0.3292 -0.1462 -0.1538
  974SOL    HW2 3501   1.904   6.425   2.390 -0.4603 -0.0610 -0.2868
  975SOL     OW 3502   3.178   8.919   2.844  0.2480 -0.4912 -0.6659
  975SOL    HW1 3503   3.204   8.996   2.895  0.4028 -0.4064 -0.8715
  975SOL    HW2 3504   3.105   8.949   2.790 -0.0787 -0.6459 -0.3161
  976SOL     OW 3505   4.266   9.276   1.538 -0.2557 -0.4414  0.3190
  976SOL    HW1 3506   4.224   9.361   1.524 -1.6582 -1.2680 -0.7541
  976SOL    HW2 3507   4.357   9.290   1.514 -0.2507  0.9771  1.0411
  977SOL     OW 3508   2.672   7.237   0.311  0.4595  0.5390  0.2318
  977SOL    HW1 3509   2.718   7.168   0.358  0.7887 -1.4868 -2.8280
  977SOL    HW2 3510   2.580   7.211   0.314  0.5761 -0.0592 -0.8662
  978SOL     OW 3511   0.588   5.813   5.402 -0.6174  0.0953  0.0981
  978SOL    HW1 3512   0.662   5.775   5.355 -0.8702 -1.8263  1.1537
  978SOL    HW2 3513   0.563   5.889   5.350  1.7821  0.5401 -0.5304
  979SOL     OW 3514   9.783   4.753   0.909  0.4576  0.2713  0.0518
  979SOL    HW1 3515   9.770   4.665   0.876 -1.7541  1.2983 -2.1331
  979SOL    HW2 3516   9.860   4.786   0.861 -0.2477  0.3562 -1.0467
  980SOL     OW 3517   6.596   6.635   2.176 -0.4222  0.0945  0.1550
  980SOL    HW1 3518   6.681   6.667   2.206 -0.2149 -0.8684  0.6522
  980SOL    HW2 3519   6.614   6.594   2.091 -0.7804  1.7033 -0.7323
  981SOL     OW 3520   3.775   2.179   2.928 -0.4996 -0.5655  0.2254
  981SOL    HW1 3521   3.821   2.166   3.011 -0.4812  1.6027  0.6029
  981SOL    HW2 3522   3.690   2.215   2.953 -0.3923  0.3705 -0.7075
  982SOL     OW 3523   8.854   1.056   5.740  0.4081 -0.5816 -0.2290
  982SOL    HW1 3524   8.878   0.966   5.759 -0.4813 -0.8133 -0.1834
  982SOL    HW2 3525   8.835   1.095   5.825  0.9636 -0.2899 -0.2302
  983SOL     OW 3526   7.064   8.477   8.842 -0.8444 -0.1895 -0.1068
  983SOL    HW1 3527   7.056   8.453   8.749 -0.0222 -2.0041  0.2540
  983SOL    HW2 3528   6.984   8.444   8.882 -0.1035 -1.6271  0.2377
  984SOL     OW 3529   9.282   8.278   8.846 -0.1964  0.3209 -0.5879
  984SOL    HW1 3530   9.217   8.346   8.864 -0.9053 -0.9354  1.9296
  984SOL    HW2 3531   9.289   8.228   8.927  3.4334 -0.0444 -0.9522
  985SOL     OW 3532   1.127   1.342   7.677  0.6937 -0.0744  0.0418
  985SOL    HW1 3533   1.168   1.319   7.593 -0.4306 -0.6014 -0.3857
  985SOL    HW2 3534   1.033   1.337   7.659  0.3866  2.1521  0.6857
  986SOL     OW 3535   0.829   1.344   7.694 -0.0154  0.4304  0.3538
  986SOL    HW1 3536   0.765   1.381   7.754 -0.8223 -2.7848  1.6558
  986SOL    HW2 3537   0.800   1.254   7.680  1.7435  0.1959 -2.6488
  987SOL     OW 3538   2.973   4.989   1.046  0.2523  0.2408  0.3396
  987SOL    HW1 3539   2.924   5.067   1.072  1.0930  0.3839  1.5905
  987SOL    HW2 3540   3.014   4.958   1.127  0.5339 -1.0830 -0.2741
  988SOL     OW 3541   8.818   1.908   8.222  0.4692  0.6464  0.3705
  988SOL    HW1 3542   8.816   1.977   8.155  0.7770 -0.1540 -0.4786
  988SOL    HW2 3543   8.881   1.844   8.189 -0.2108 -0.3130  0.8942
  989SOL     OW 3544   6.098   7.633   8.137  0.8925 -0.7034  0.3910
  989SOL    HW1 3545   6.012   7.605   8.168  1.2355 -1.8295  0.3455
  989SOL    HW2 3546   6.160   7.578   8.185  1.5124 -1.1911 -0.9213
  990SOL     OW 3547   1.190   0.858   0.637  0.3865 -0.3336  0.5384
  990SOL    HW1 3548   1.234   0.773   0.647  1.7573 -0.0203 -2.1291
  990SOL    HW2 3549   1.257   0.922   0.659 -0.0325  0.1122  0.5262
  991SOL     OW 3550   8.826   2.794   2.133 -0.7601  0.5372 -0.1192
  991SOL    HW1 3551   8.865   2.713   2.164 -0.8641  0.1810 -0.8798
  991SOL    HW2 3552   8.757   2.814   2.196 -0.3811  0.3319  0.3693
  992SOL     OW 3553   4.105   7.750   9.666 -0.2914  0.3838  0.5518
  992SOL    HW1 3554   4.109   7.671   9.720  1.1610  0.0412 -0.0040
  992SOL    HW2 3555   4.020   7.744   9.621 -0.9171 -0.0072  1.7379
  993SOL     OW 3556   6.187   7.587   7.422  0.0498  0.1477 -0.1488
  993SOL    HW1 3557   6.106   7.563   7.376  0.3056 -0.3044 -0.3635
  993SOL    HW2 3558   6.168   7.674   7.459 -1.2700 -0.7899  1.5262
  994SOL     OW 3559   2.571   5.613   3.664 -0.4701  0.2590  0.7063
  994SOL    HW1 3560   2.593   5.563   3.586  1.2688  0.3658  1.0846
  994SOL    HW2 3561   2.478   5.594   3.679 -0.3072 -1.4574 -0.1546
  995SOL     OW 3562   8.777   7.609   4.561 -0.4075  0.2049  0.4031
  995SOL    HW1 3563   8.786   7.624   4.655 -2.2853  2.1831  0.3679
  995SOL    HW2 3564   8.725   7.529   4.555  1.5775 -1.1942  0.9306
  996SOL     OW 3565   8.701   6.670   4.085 -0.3371 -0.0244 -0.4325
  996SOL    HW1 3566   8.743   6.646   4.002  1.5738 -0.8622  0.7164
  996SOL    HW2 3567   8.758   6.737   4.123  0.9793 -2.2933  1.8959
  997SOL     OW 3568   9.142   7.635   0.556 -0.0321 -0.3935 -0.4612
  997SOL    HW1 3569   9.145   7.716   0.607  0.8148  0.2006 -1.4262
  997SOL    HW2 3570   9.233   7.605   0.554  0.0761 -0.0233 -2.2036
  998SOL     OW 3571   0.264   9.944   6.660  0.2221 -0.2146 -0.2354
  998SOL    HW1 3572   0.204   9.888   6.709 -0.9623  0.4758 -0.8499
  998SOL    HW2 3573   0.327   9.975   6.726  1.1479 -2.5107  0.0330
  999SOL     OW 3574   5.868   8.131   4.056 -0.4169 -0.1511  0.5456
  999SOL    HW1 3575   5.893   8.204   4.112  0.3877  1.0431 -1.2560
  999SOL    HW2 3576   5.778   8.110   4.081 -0.3880  0.9345  1.6385
 1000SOL     OW 3577   8.898   7.134   0.802  0.8603 -0.2393  0.6837
 1000SOL    HW1 3578   8.825   7.166   0.855  0.3505  1.4988 -0.9599
 1000SOL    HW2 3579   8.972   7.189   0.828  1.7790 -2.1844  2.5575
 1001SOL     OW 3580   9.169   9.213   8.662 -0.2859  0.1620 -0.3207
 1001SOL    HW1 3581   9.161   9.304   8.693 -1.0747 -0.2220  0.6474
 1001SOL    HW2 3582   9.255   9.185   8.693 -0.5883  0.1637  0.5649
 1002SOL     OW 3583   0.849   2.182   1.133  0.2185  0.5824 -0.8662
 1002SOL    HW1 3584   0.937   2.192   1.096  0.5407  1.0173 -0.0166
 1002SOL    HW2 3585   0.848   2.092   1.168  0.8539  1.0485  0.4164
 1003SOL     OW 3586   4.348   9.558   0.514 -0.3807 -0.8116 -0.4738
 1003SOL    HW1 3587   4.335   9.623   0.583  0.9911 -0.0547 -0.8858
 1003SOL    HW2 3588   4.389   9.607   0.443  0.9169 -2.1779 -0.7126
 1004SOL     OW 3589   7.775   8.481   4.785 -0.2725  0.7086  0.0791
 1004SOL    HW1 3590   7.747   8.498   4.875  0.8775  0.5951  0.4759
 1004SOL    HW2 3591   7.812   8.392   4.788  2.2852  1.6878  0.1557
 1005SOL     OW 3592   3.105   2.069   3.351 -0.0350 -0.2751  0.4831
 1005SOL    HW1 3593   3.134   1.984   3.384  0.3099 -0.6765 -0.8062
 1005SOL    HW2 3594   3.012   2.057   3.331 -0.7927  0.5399  3.0582
 1006SOL     OW 3595   6.425   3.494   6.989 -0.1702  0.4826  0.0159
 1006SOL    HW1 3596   6.453   3.475   6.900 -0.9907 -2.5499  0.3213
 1006SOL    HW2 3597   6.329   3.487   6.987 -0.1437 -0.7449  1.3305
 1007SOL     OW 3598   6.963   6.818   2.018 -0.1075 -0.6028  0.1660
 1007SOL    HW1 3599   6.922   6.893   1.974  0.0820 -0.2455  0.5862
 1007SOL    HW2 3600   7.053   6.846   2.034 -0.3098 -0.5295  1.2284
 1008SOL     OW 3601   9.133   6.859   6.820  0.0765 -0.2821 -0.0330
 1008SOL    HW1 3602   9.074   6.909   6.763 -0.7091 -0.8393  0.2726
 1008SOL    HW2 3603   9.198   6.822   6.761 -0.1534 -0.0444 -0.4371
 1009SOL     OW 3604   1.983   3.115   8.843 -0.7298  0.1234  0.3234
 1009SOL    HW1 3605   1.991   3.020   8.832  1.8315  0.4273 -1.3696
 1009SOL    HW2 3606   1.956   3.147   8.756  0.3012  1.0530  0.3187
 1010SOL     OW 3607   1.243   0.481   5.812 -0.3231 -0.7070 -0.1939
 1010SOL    HW1 3608   1.199   0.497   5.728  0.3441  1.4871 -0.1770
 1010SOL    HW2 3609   1.294   0.560   5.828  0.9742 -1.8137  1.4428
 1011SOL     OW 3610   3.557   0.133   9.482 -0.6500  0.6709  0.4020
 1011SOL    HW1 3611   3.508   0.081   9.547  0.8114 -0.8267  0.3864
 1011SOL    HW2 3612   3.505   0.125   9.402 -0.1373 -1.4808  0.1986
 1012SOL     OW 3613   7.972   2.418   4.733 -0.1832 -0.4302  0.2482
 1012SOL    HW1 3614   7.955   2.495   4.678 -1.2131 -0.2745  0.7459
 1012SOL    HW2 3615   8.050   2.378   4.696  2.0235  2.3373  1.5822
 1013SOL     OW 3616   6.517   8.772   7.042 -0.0430 -0.0676  0.2672
 1013SOL    HW1 3617   6.529   8.719   7.121  3.4000 -1.4364 -1.0044
 1013SOL    HW2 3618   6.488   8.710   6.975  3.7868 -0.5402 -1.1717
 1014SOL     OW 3619   7.418   0.849   9.106  0.1036 -0.1582 -0.1550
 1014SOL    HW1 3620   7.387   0.914   9.043  0.8388  1.2159  0.8666
 1014SOL    HW2 3621   7.352   0.850   9.175  0.0958 -0.5464 -0.1543
 1015SOL     OW 3622   5.367   8.308   1.751  0.2325 -0.1596  0.1549
 1015SOL    HW1 3623   5.369   8.213   1.760 -0.4473 -0.0873  1.2649
 1015SOL    HW2 3624   5.394   8.325   1.661  2.9356 -1.2549  0.6701
 1016SOL     OW 3625   0.873   8.293   8.061 -0.4658  0.7303 -0.5448
 1016SOL    HW1 3626   0.791   8.286   8.108 -1.5716  0.7049 -2.3778
 1016SOL    HW2 3627   0.880   8.386   8.039 -2.0365  0.2262 -3.6929
 1017SOL     OW 3628   5.362   0.247   0.008  0.3203 -0.3745  0.2680
 1017SOL    HW1 3629   5.277   0.291   0.003 -0.3246 -1.6667 -0.6805
 1017SOL    HW2 3630   5.426   0.318   0.002 -0.6350  0.3765 -4.0535
 1018SOL     OW 3631   9.140   4.859   6.192 -0.3017  0.3615  0.1251
 1018SOL    HW1 3632   9.141   4.795   6.121 -1.0567 -1.0001  1.2841
 1018SOL    HW2 3633   9.100   4.937   6.154  0.3132  0.0464 -1.2228
 1019SOL     OW 3634   3.054   9.036   6.639 -0.1199 -0.1361  0.8234
 1019SOL    HW1 3635   3.149   9.029   6.629 -0.2367 -0.5261 -0.1127
 1019SOL    HW2 3636   3.042   9.111   6.697  0.7519  0.1546  0.6471
 1020SOL     OW 3637   7.920   2.974   6.738 -0.2205  0.3800  0.3343
 1020SOL    HW1 3638   8.000   2.931   6.767  0.7874  2.6883  1.2640
 1020SOL    HW2 3639   7.863   2.974   6.815 -0.9990 -0.8886 -0.2062
 1021SOL     OW 3640   3.456   6.539   2.360 -0.1721 -0.4064  0.8933
 1021SOL    HW1 3641   3.471   6.598   2.434  1.2505  0.8629 -0.3421
 1021SOL    HW2 3642   3.533   6.482   2.359 -0.2311 -0.4807  0.4513
 1022SOL     OW 3643   5.305   7.262   6.466 -0.8745  0.6734 -0.2954
 1022SOL    HW1 3644   5.370   7.193   6.476 -1.0682  0.3511 -1.1217
 1022SOL    HW2 3645   5.243   7.227   6.402 -1.6666  1.1154  0.2124
 1023SOL     OW 3646   7.448   6.855   6.258 -0.5043 -0.1246 -0.5188
 1023SOL    HW1 3647   7.521   6.917   6.267 -0.4966 -0.2154  0.1099
 1023SOL    HW2 3648   7.440   6.815   6.345  0.1627 -1.7785 -1.1798
 1024SOL     OW 3649   4.331   7.850   0.041 -0.2072  0.4697 -0.5113
 1024SOL    HW1 3650   4.354   7.939   0.016 -0.3172  0.4897 -0.5400
 1024SOL    HW2 3651   4.290   7.858   0.127 -0.0153  0.4226 -0.4155
 1025SOL     OW 3652   7.950   9.461   0.087  0.7584  0.0075 -0.1126
 1025SOL    HW1 3653   7.930   9.524   0.156 -0.2232 -0.7380  0.3076
 1025SOL    HW2 3654   7.911   9.379   0.117  0.4397 -0.3760 -1.4930
 1026SOL     OW 3655   4.697   1.953   2.323 -0.1543  0.0371  0.6770
 1026SOL    HW1 3656   4.639   2.025   2.297 -1.7424 -1.7865 -1.1719
 1026SOL    HW2 3657   4.655   1.916   2.401  0.0499  0.4146  0.9681
 1027SOL     OW 3658   4.273   0.937   8.661  0.7483 -0.1297  0.3234
 1027SOL    HW1 3659   4.193   0.899   8.625  0.8935  0.3743 -0.5579
 1027SOL    HW2 3660   4.334   0.940   8.587  1.5819 -0.4968  0.9775
 1028SOL     OW 3661   4.115   9.001   7.738 -0.0064 -0.5700  0.3245
 1028SOL    HW1 3662   4.165   8.926   7.707 -0.5153 -0.7440 -0.0985
 1028SOL    HW2 3663   4.179   9.057   7.781  0.0916 -2.1273  2.3829
 1029SOL     OW 3664   9.564   7.533   2.826 -0.0608 -0.3365  0.9025
 1029SOL    HW1 3665   9.523   7.474   2.889 -0.6497  1.1578  1.9636
 1029SOL    HW2 3666   9.496   7.547   2.759  0.0162 -0.6954  0.7447
 1030SOL     OW 3667   4.894   7.351   7.033 -0.4832  0.7087  0.3624
 1030SOL    HW1 3668   4.823   7.393   6.985 -1.9376  0.7882  2.4762
 1030SOL    HW2 3669   4.879   7.257   7.024 -0.9655  0.7275  0.9480
 1031SOL     OW 3670   5.427   6.052   4.087  0.1646 -0.3843 -0.7215
 1031SOL    HW1 3671   5.424   5.972   4.139 -0.1160 -1.7889 -2.7526
 1031SOL    HW2 3672   5.501   6.040   4.028  2.7050  2.6851  1.4899
 1032SOL     OW 3673   6.222   1.083   1.905 -0.0023 -0.7619 -0.0653
 1032SOL    HW1 3674   6.140   1.076   1.855 -0.1139  0.9261 -0.1964
 1032SOL    HW2 3675   6.201   1.045   1.990 -0.8798 -0.5364 -0.1639
 1033SOL     OW 3676   0.683   5.455   2.637  0.2520  0.7118 -0.1011
 1033SOL    HW1 3677   0.707   5.396   2.566  0.4303 -1.3437  1.5803
 1033SOL    HW2 3678   0.669   5.540   2.594 -0.0396 -0.5274 -2.6060
 1034SOL     OW 3679   9.875   2.469   6.932 -0.2608  0.1540 -0.1682
 1034SOL    HW1 3680   9.785   2.500   6.938  0.2164  1.7885 -0.9658
 1034SOL    HW2 3681   9.919   2.532   6.875  1.3106 -0.8153 -0.1032
 1035SOL     OW 3682   9.540   6.464   2.704 -0.4321 -0.6215  0.4959
 1035SOL    HW1 3683   9.564   6.426   2.788  0.2571 -0.9517  0.1516
 1035SOL    HW2 3684   9.614   6.519   2.679 -0.6113 -0.5645  0.0724
 1036SOL     OW 3685   4.855   6.292   5.017  0.0632 -0.3532 -0.3981
 1036SOL    HW1 3686   4.929   6.296   4.956  0.0895 -0.2442 -0.3585
 1036SOL    HW2 3687   4.857   6.376   5.062 -1.0969  0.3226 -1.5541
 1037SOL     OW 3688   9.374   6.433   2.064  0.0853  0.2103 -0.4701
 1037SOL    HW1 3689   9.353   6.522   2.035  1.1480  0.6071 -0.0724
 1037SOL    HW2 3690   9.429   6.445   2.141  0.4581 -0.8000 -0.5607
 1038SOL     OW 3691   5.403   9.536   1.261 -0.3135 -0.1950 -0.0838
 1038SOL    HW1 3692   5.450   9.559   1.181  1.0978 -0.0427  0.7444
 1038SOL    HW2 3693   5.372   9.446   1.246 -2.5136  0.7596 -1.8351
 1039SOL     OW 3694   0.405   9.843   9.568  0.6253 -0.1011  0.5372
 1039SOL    HW1 3695   0.375   9.797   9.645 -0.8778  0.0155  0.0504
 1039SOL    HW2 3696   0.341   9.913   9.555  0.7880 -0.1812 -0.8622
 1040SOL     OW 3697   3.465   9.439   1.024  0.6472  0.2825  0.4272
 1040SOL    HW1 3698   3.423   9.354   1.010  0.9349  0.3548 -1.1526
 1040SOL    HW2 3699   3.500   9.436   1.113  1.7267 -1.7276 -0.0242
 1041SOL     OW 3700   2.472   1.622   6.234  0.2553  0.3335  0.1447
 1041SOL    HW1 3701   2.543   1.577   6.188  0.9244  0.5128  0.9925
 1041SOL    HW2 3702   2.438   1.556   6.295 -1.2131 -0.1936 -1.1554
 1042SOL     OW 3703   4.693   7.333   1.307 -0.0950 -0.2928 -0.3922
 1042SOL    HW1 3704   4.746   7.317   1.385  0.7241 -0.0255 -0.8717
 1042SOL    HW2 3705   4.615   7.279   1.318  0.0210 -0.2650  0.5966
 1043SOL     OW 3706   4.442   5.686   7.153  0.3754 -0.4052 -0.6744
 1043SOL    HW1 3707   4.507   5.689   7.223  0.9250 -1.1635 -1.1383
 1043SOL    HW2 3708   4.385   5.613   7.177 -0.7079  0.6556  0.0639
 1044SOL     OW 3709   6.183   1.772   9.509 -0.2066  0.1019 -0.1481
 1044SOL    HW1 3710   6.191   1.719   9.588 -3.1395  1.8154  1.5155
 1044SOL    HW2 3711   6.170   1.709   9.438 -2.6331 -1.5310  1.5947
 1045SOL     OW 3712   1.296   5.114   2.520 -0.4926 -0.3321  0.5439
 1045SOL    HW1 3713   1.337   5.112   2.607  1.0965 -0.8715 -0.1834
 1045SOL    HW2 3714   1.361   5.158   2.464 -1.7822  0.6485 -0.2472
 1046SOL     OW 3715   5.210   1.601   7.034  0.7194  0.4840  0.1258
 1046SOL    HW1 3716   5.275   1.584   7.102  0.6971  1.2226  0.3370
 1046SOL    HW2 3717   5.130   1.558   7.065  1.0914 -0.4314 -0.1365
 1047SOL     OW 3718   3.778   3.740   1.371 -0.3895  0.0504 -0.3365
 1047SOL    HW1 3719   3.697   3.713   1.413 -1.4159  2.1535 -0.8607
 1047SOL    HW2 3720   3.832   3.660   1.369 -1.9440 -1.0953  1.0970
 1048SOL     OW 3721   4.860   6.709   0.220 -0.0660 -0.3488 -0.1145
 1048SOL    HW1 3722   4.916   6.777   0.181  0.1705 -0.5029 -0.0452
 1048SOL    HW2 3723   4.917   6.666   0.284 -0.1045 -0.8551 -0.4140
 1049SOL     OW 3724   5.757   3.346   7.267  0.0202  0.0758 -0.4131
 1049SOL    HW1 3725   5.778   3.392   7.348  0.4442 -1.8781  0.6350
 1049SOL    HW2 3726   5.825   3.374   7.205  0.9871 -0.0756  0.5554
 1050SOL     OW 3727   5.122   5.053   0.789 -0.3451  0.3420 -0.1403
 1050SOL    HW1 3728   5.216   5.040   0.805 -0.4129  0.1321  0.0944
 1050SOL    HW2 3729   5.119   5.106   0.709 -0.0401 -0.1791 -0.5066
 1051SOL     OW 3730   0.196   5.675   3.120  0.1602  0.3026 -0.3064
 1051SOL    HW1 3731   0.151   5.709   3.197  0.1939 -0.1984 -0.0619
 1051SOL    HW2 3732   0.126   5.635   3.068  0.4489 -1.5334  0.6357
 1052SOL     OW 3733   1.410   4.154   6.540  0.1438 -0.7912  0.1396
 1052SOL    HW1 3734   1.371   4.067   6.543 -1.3584 -0.1618  0.0296
 1052SOL    HW2 3735   1.380   4.196   6.621 -1.1520  0.3983 -0.9029
 1053SOL     OW 3736   2.911   0.554   7.158 -0.2118  0.2450  0.0250
 1053SOL    HW1 3737   2.825   0.558   7.200  0.3556 -0.3829  1.3023
 1053SOL    HW2 3738   2.936   0.462   7.164  1.0991  0.6273  0.8341
 1054SOL     OW 3739   9.114   2.258   1.017 -0.3263  0.2251 -0.2138
 1054SOL    HW1 3740   9.160   2.258   0.933 -1.7478  1.8863 -1.0582
 1054SOL    HW2 3741   9.053   2.184   1.011  1.2404 -1.1711  0.3884
 1055SOL     OW 3742   1.795   6.144   4.938  0.6681 -0.2661 -0.1276
 1055SOL    HW1 3743   1.745   6.220   4.907 -0.7884 -1.2305 -0.2886
 1055SOL    HW2 3744   1.744   6.111   5.012  1.5239 -0.8223  0.2278
 1056SOL     OW 3745   6.944   0.315   3.648  0.2382  0.2035  0.2956
 1056SOL    HW1 3746   6.858   0.356   3.655  0.0895 -0.1028  0.2611
 1056SOL    HW2 3747   6.933   0.249   3.580  0.1922 -0.6295  1.0937
 1057SOL     OW 3748   7.607   1.445   9.213  0.3009 -0.1931 -0.2404
 1057SOL    HW1 3749   7.648   1.359   9.206  0.1140 -0.2996 -0.0516
 1057SOL    HW2 3750   7.559   1.456   9.131  0.0311 -0.4276 -0.1178
 1058SOL     OW 3751   0.652   5.265   4.470  0.1322 -0.0965 -0.2064
 1058SOL    HW1 3752   0.593   5.191   4.483  2.1802 -1.6717  0.7279
 1058SOL    HW2 3753   0.678   5.258   4.378 -0.6552  0.2567 -0.4633
 1059SOL     OW 3754   5.149   3.058   3.599  0.0562 -0.0075  0.2250
 1059SOL    HW1 3755   5.169   2.964   3.601  0.6856  0.0976 -0.4779
 1059SOL    HW2 3756   5.221   3.096   3.548 -1.8136  0.4448 -2.3058
 1060SOL     OW 3757   3.216   5.241   8.913  0.5817  0.3503 -0.1259
 1060SOL    HW1 3758   3.133   5.265   8.872  1.2450  0.3778 -1.5042
 1060SOL    HW2 3759   3.252   5.172   8.858  1.0719 -0.3057  0.9640
 1061SOL     OW 3760   2.587   7.949   3.312 -0.5814  0.2916  0.0968
 1061SOL    HW1 3761   2.583   8.039   3.282  1.0751  0.6712  0.8643
 1061SOL    HW2 3762   2.589   7.897   3.232 -0.6932  1.0007 -0.3697
 1062SOL     OW 3763   3.510   7.170   4.862 -0.1102  0.3025 -0.0236
 1062SOL    HW1 3764   3.487   7.165   4.955  2.9169 -3.4635  0.7585
 1062SOL    HW2 3765   3.471   7.092   4.823  2.4932 -0.6978 -0.8147
 1063SOL     OW 3766   5.360   5.131   4.232 -0.2137 -0.4458  0.5298
 1063SOL    HW1 3767   5.410   5.052   4.211 -1.1313 -1.0339  0.5091
 1063SOL    HW2 3768   5.289   5.100   4.289 -0.0557  0.5097  1.2782
 1064SOL     OW 3769   5.738   8.755   0.637 -0.1338  0.3351  0.4747
 1064SOL    HW1 3770   5.720   8.848   0.651 -3.6718 -0.2602  0.9097
 1064SOL    HW2 3771   5.677   8.710   0.697  3.1380 -2.3369  2.1250
 1065SOL     OW 3772   0.699   9.688   3.782  0.2674  0.1029 -0.0379
 1065SOL    HW1 3773   0.645   9.610   3.794  1.7660 -0.9570 -0.0385
 1065SOL    HW2 3774   0.720   9.717   3.870 -0.6489  0.8012 -0.0275
 1066SOL     OW 3775   8.460   4.144   7.986 -0.0769  0.1080 -0.0404
 1066SOL    HW1 3776   8.497   4.223   7.947 -2.4349  1.1145 -0.4588
 1066SOL    HW2 3777   8.466   4.077   7.918 -2.1001  1.2334 -1.4448
 1067SOL     OW 3778   3.040   9.424   1.635 -0.4155  0.2030  0.6432
 1067SOL    HW1 3779   3.011   9.514   1.653 -0.5329  0.0651  1.1730
 1067SOL    HW2 3780   2.975   9.390   1.574 -0.6448  0.3229  0.8163
 1068SOL     OW 3781   3.914   1.374   7.259  0.5583  0.1485  0.4790
 1068SOL    HW1 3782   3.903   1.441   7.327 -0.9835  0.3844  0.0356
 1068SOL    HW2 3783   3.859   1.301   7.288  0.7803 -0.2004  0.0385
 1069SOL     OW 3784   3.281   1.710   7.267 -0.0772 -0.2430  0.1397
 1069SOL    HW1 3785   3.284   1.619   7.296  1.1192 -0.2273  0.1186
 1069SOL    HW2 3786   3.355   1.719   7.206  1.3604  1.2995  1.9438
 1070SOL     OW 3787   6.346   4.627   1.390 -0.2987  0.6793  1.0405
 1070SOL    HW1 3788   6.260   4.647   1.351  0.2311  1.5646  0.2890
 1070SOL    HW2 3789   6.409   4.652   1.322  0.5717  0.3369  1.7114
 1071SOL     OW 3790   0.822   7.328   6.891 -0.0389 -0.2141  0.1257
 1071SOL    HW1 3791   0.806   7.420   6.868  0.6189  0.0775  0.7896
 1071SOL    HW2 3792   0.895   7.301   6.835 -0.4657 -0.4477 -0.3255
 1072SOL     OW 3793   6.787   0.865   7.558 -0.3620  0.1645  0.2171
 1072SOL    HW1 3794   6.743   0.855   7.642  0.3513 -1.0424  0.4675
 1072SOL    HW2 3795   6.876   0.832   7.573  0.3304  1.5604 -0.5487
 1073SOL     OW 3796   0.538   7.848   5.334  0.6911 -0.2955 -0.5830
 1073SOL    HW1 3797   0.623   7.820   5.368  0.3103  1.6372  2.4166
 1073SOL    HW2 3798   0.475   7.791   5.378  0.3419 -0.1168 -0.8441
 1074SOL     OW 3799   6.333   3.810   3.617  0.2752 -0.0436 -1.2818
 1074SOL    HW1 3800   6.349   3.792   3.525 -0.2073 -0.1839 -1.3417
 1074SOL    HW2 3801   6.270   3.882   3.617 -1.9458 -1.8604 -1.1284
 1075SOL     OW 3802   3.493   3.745   4.777 -0.0786  0.5119  0.7493
 1075SOL    HW1 3803   3.423   3.790   4.825 -0.5890  0.0953  0.3970
 1075SOL    HW2 3804   3.452   3.714   4.697  0.8955  1.6631 -0.2354
 1076SOL     OW 3805   0.120   4.016   2.604 -0.4961  0.2358  0.0167
 1076SOL    HW1 3806   0.113   3.961   2.682 -0.0362 -0.3802 -0.3667
 1076SOL    HW2 3807   0.041   3.997   2.553 -0.8637  0.7403  0.3896
 1077SOL     OW 3808   9.735   9.579   9.484 -0.1043  0.2157 -0.2455
 1077SOL    HW1 3809   9.779   9.500   9.454  0.2563  0.2383  0.2162
 1077SOL    HW2 3810   9.796   9.650   9.463 -0.6947  0.4538 -1.2374
 1078SOL     OW 3811   0.667   0.459   6.864 -0.2529  0.0359 -0.3157
 1078SOL    HW1 3812   0.691   0.444   6.955  2.4252 -1.9855 -1.1886
 1078SOL    HW2 3813   0.707   0.543   6.842  0.9187 -0.4516 -0.1273
 1079SOL     OW 3814   1.998   9.628   5.952  0.2589  0.9796 -0.0425
 1079SOL    HW1 3815   1.958   9.544   5.975  0.3693  0.9391  0.0042
 1079SOL    HW2 3816   1.973   9.686   6.024  0.8828  0.7666  0.3627
 1080SOL     OW 3817   1.429   1.361   4.783 -0.0451 -0.1398  0.1737
 1080SOL    HW1 3818   1.450   1.285   4.728 -1.1521 -0.4413  0.1352
 1080SOL    HW2 3819   1.463   1.339   4.869 -0.4884 -0.7574  0.1980
 1081SOL     OW 3820   8.558   6.154   5.128  0.1431  1.0834  0.4940
 1081SOL    HW1 3821   8.580   6.135   5.219 -0.6415  0.7967  0.6292
 1081SOL    HW2 3822   8.528   6.070   5.093  0.5617  1.1629 -0.0662
 1082SOL     OW 3823   6.539   5.872   5.267 -0.1674 -0.0197  0.1964
 1082SOL    HW1 3824   6.462   5.927   5.253  0.2200  0.4077 -0.2817
 1082SOL    HW2 3825   6.576   5.860   5.180 -0.3133 -1.1501  0.2777
 1083SOL     OW 3826   6.119   7.468   9.348  0.2212  0.1389 -0.1710
 1083SOL    HW1 3827   6.215   7.465   9.357  0.1629  0.9160  0.8118
 1083SOL    HW2 3828   6.087   7.405   9.412 -0.0056  2.0516  1.7023
 1084SOL     OW 3829   2.343   6.747   8.328  0.3186  0.2727  0.3348
 1084SOL    HW1 3830   2.300   6.664   8.305 -1.5470  1.1227  0.5293
 1084SOL    HW2 3831   2.326   6.803   8.252  1.8544  0.4136  0.0627
 1085SOL     OW 3832   2.648   7.318   2.897  0.5370  0.1355 -0.3777
 1085SOL    HW1 3833   2.658   7.225   2.875 -1.1740  0.0257 -0.8091
 1085SOL    HW2 3834   2.663   7.363   2.814 -0.2475  0.1227 -0.5308
 1086SOL     OW 3835   2.983   2.453   1.670  0.6992 -0.5101  0.1729
 1086SOL    HW1 3836   2.956   2.433   1.580 -2.5066  0.7041  0.7131
 1086SOL    HW2 3837   3.014   2.369   1.704 -0.6609 -1.6732 -1.2723
 1087SOL     OW 3838   9.584   4.869   7.556 -0.1509 -0.1513 -0.5259
 1087SOL    HW1 3839   9.577   4.803   7.625  2.0052  0.9372  0.8198
 1087SOL    HW2 3840   9.623   4.822   7.482 -2.0575 -1.2106 -0.9552
 1088SOL     OW 3841   7.360   9.016   4.123  0.2213 -0.1058 -0.3207
 1088SOL    HW1 3842   7.312   8.941   4.087 -0.7597  1.2549 -2.0316
 1088SOL    HW2 3843   7.443   9.017   4.074 -0.1205  0.3818 -0.9075
 1089SOL     OW 3844   2.086   3.374   3.297 -0.3838 -0.1928  0.3958
 1089SOL    HW1 3845   2.013   3.322   3.264  0.0862 -0.5153 -0.1805
 1089SOL    HW2 3846   2.107   3.336   3.382 -0.0659 -0.9399 -0.0077
 1090SOL     OW 3847   1.146   0.220   3.176  0.2478 -0.3571 -0.6401
 1090SOL    HW1 3848   1.099   0.210   3.259 -0.0545  0.4642 -0.7026
 1090SOL    HW2 3849   1.081   0.255   3.116  1.2725  2.3434 -0.3191
 1091SOL     OW 3850   3.372   0.862   9.519 -0.0406  0.0595  0.1587
 1091SOL    HW1 3851   3.365   0.932   9.454 -0.4073  0.6399  0.8076
 1091SOL    HW2 3852   3.450   0.812   9.493 -0.4025  0.0428 -0.9399
 1092SOL     OW 3853   1.435   4.906   7.899 -0.0001 -0.0194 -1.0119
 1092SOL    HW1 3854   1.461   4.865   7.981 -0.7308 -1.5754 -1.5279
 1092SOL    HW2 3855   1.408   4.995   7.924  1.3249  0.0911  0.1642
 1093SOL     OW 3856   7.492   3.716   6.415  0.3497  0.2709 -0.6695
 1093SOL    HW1 3857   7.576   3.754   6.388  0.0665  2.3960  1.1988
 1093SOL    HW2 3858   7.427   3.782   6.391 -0.3970  0.1689  0.9688
 1094SOL     OW 3859   0.675   5.381   1.572  0.4079  0.4721  0.1023
 1094SOL    HW1 3860   0.686   5.319   1.500 -2.2239  0.7726 -0.6677
 1094SOL    HW2 3861   0.711   5.463   1.539  2.6780 -0.2558  0.6258
 1095SOL     OW 3862   4.585   5.421   1.653  0.7290  0.0252 -0.1483
 1095SOL    HW1 3863   4.507   5.404   1.705  0.8203  0.1377  0.0267
 1095SOL    HW2 3864   4.552   5.433   1.564  0.6684 -1.0548 -0.2778
 1096SOL     OW 3865   3.024   4.067   3.003  0.2737  0.2112 -0.0394
 1096SOL    HW1 3866   2.951   4.009   2.980 -1.4174  2.3302 -0.2611
 1096SOL    HW2 3867   3.018   4.076   3.098 -0.4762  1.2719 -0.1779
 1097SOL     OW 3868   4.229   3.839   6.357  0.2424  0.0496  0.1352
 1097SOL    HW1 3869   4.286   3.805   6.288  0.6097  1.2492 -0.1739
 1097SOL    HW2 3870   4.228   3.770   6.423  0.8918 -0.5898 -0.5033
 1098SOL     OW 3871   3.946   0.571   7.142 -0.3797  0.1315 -0.2857
 1098SOL    HW1 3872   4.013   0.604   7.083 -0.1463  0.1077 -0.0338
 1098SOL    HW2 3873   3.991   0.507   7.197 -0.6551 -0.0425 -0.2599
 1099SOL     OW 3874   1.584   9.630   5.978  0.1332  0.6111  0.5072
 1099SOL    HW1 3875   1.622   9.613   5.892 -2.1828 -1.1902 -0.2313
 1099SOL    HW2 3876   1.598   9.550   6.027 -2.2799  0.0012  0.3182
 1100SOL     OW 3877   7.120   4.216   2.972  0.0394  0.6226  0.3810
 1100SOL    HW1 3878   7.053   4.168   3.020 -1.1513  2.1706  0.3243
 1100SOL    HW2 3879   7.112   4.306   3.003  0.3374  1.3411 -1.5053
 1101SOL     OW 3880   0.250   7.790   5.883  0.2953 -0.4904  0.2357
 1101SOL    HW1 3881   0.180   7.806   5.947 -0.9915 -0.4665 -1.1280
 1101SOL    HW2 3882   0.255   7.695   5.877 -0.7555 -0.4918 -0.8386
 1102SOL     OW 3883   3.544   7.931   4.356  0.1282  0.2180 -0.0117
 1102SOL    HW1 3884   3.561   8.000   4.420  0.2212  1.2429 -1.1042
 1102SOL    HW2 3885   3.606   7.948   4.285 -0.4202 -0.4710 -0.6765
 1103SOL     OW 3886   2.887   2.218   8.437 -0.2243  0.4531 -0.3851
 1103SOL    HW1 3887   2.896   2.293   8.379  0.0296  0.0484 -0.8690
 1103SOL    HW2 3888   2.974   2.207   8.476  0.3676 -0.9306 -1.9749
 1104SOL     OW 3889   6.453   0.452   7.954 -0.0679 -0.4080  0.3182
 1104SOL    HW1 3890   6.500   0.370   7.966  1.9226  0.3621 -1.4246
 1104SOL    HW2 3891   6.387   0.432   7.887  2.0569 -0.1508 -2.0266
 1105SOL     OW 3892   4.120   0.786   5.060  0.8341  0.5697  0.4179
 1105SOL    HW1 3893   4.098   0.707   5.110  1.0384  0.2949  0.0765
 1105SOL    HW2 3894   4.046   0.800   5.003  2.1195 -1.2657 -1.8786
 1106SOL     OW 3895   0.512   6.278   9.837 -0.3957  0.5234 -0.2343
 1106SOL    HW1 3896   0.424   6.245   9.857 -0.6340 -0.0223 -1.9833
 1106SOL    HW2 3897   0.504   6.315   9.749  0.9874  1.0071 -0.1743
 1107SOL     OW 3898   3.926   2.892   9.649  0.7683  1.1265 -0.2073
 1107SOL    HW1 3899   3.891   2.929   9.569  0.3251  1.9742  0.3614
 1107SOL    HW2 3900   3.992   2.829   9.620 -1.7754 -1.2209 -1.3548
 1108SOL     OW 3901   4.780   9.373   3.884  0.1790  0.0621 -0.0943
 1108SOL    HW1 3902   4.710   9.432   3.912  0.3939  0.6784 -0.8422
 1108SOL    HW2 3903   4.860   9.422   3.899  0.3263  0.2491 -1.3856
 1109SOL     OW 3904   1.143   6.621   2.113 -0.0672 -0.4515 -0.0242
 1109SOL    HW1 3905   1.226   6.596   2.152  0.5738  0.1203 -0.9978
 1109SOL    HW2 3906   1.077   6.585   2.173  0.8608  1.3484  2.2438
 1110SOL     OW 3907   3.859   4.302   5.464 -0.3798 -0.2956 -0.0137
 1110SOL    HW1 3908   3.787   4.348   5.505  0.2978  0.8301 -0.0483
 1110SOL    HW2 3909   3.831   4.289   5.373  0.7198  3.1815 -1.0193
 1111SOL     OW 3910   0.293   9.476   1.216 -0.1220 -0.2998 -0.8654
 1111SOL    HW1 3911   0.297   9.484   1.311 -0.4918 -0.3342 -0.8472
 1111SOL    HW2 3912   0.385   9.481   1.188 -0.0898  0.9505 -0.6079
 1112SOL     OW 3913   1.010   0.599   1.821  0.3557 -0.4244  0.3530
 1112SOL    HW1 3914   0.934   0.545   1.843  0.9482 -0.7581  1.7092
 1112SOL    HW2 3915   1.009   0.605   1.726  0.0611 -2.5240  0.1847
 1113SOL     OW 3916   9.795   9.948   1.988 -0.4709 -0.0655 -0.4903
 1113SOL    HW1 3917   9.731  10.017   1.970 -1.4016 -1.0202 -0.9557
 1113SOL    HW2 3918   9.758   9.870   1.946  1.1579 -0.5784 -1.0433
 1114SOL     OW 3919   2.034   2.475   3.742  0.4751  0.1669 -0.1377
 1114SOL    HW1 3920   1.971   2.544   3.722 -1.1907 -1.4266 -0.6579
 1114SOL    HW2 3921   2.071   2.451   3.657  1.0196  0.3793  0.0353
 1115SOL     OW 3922   2.227   3.271   0.282  0.0113 -0.2869  0.0626
 1115SOL    HW1 3923   2.210   3.177   0.268  1.1412 -0.4908 -0.0504
 1115SOL    HW2 3924   2.240   3.279   0.376  0.2591 -0.3086  0.0310
 1116SOL     OW 3925   8.683   5.393   1.972 -0.6154 -0.1054  0.1879
 1116SOL    HW1 3926   8.630   5.456   1.923  0.7869  1.1053  0.1859
 1116SOL    HW2 3927   8.627   5.315   1.978 -1.7956  0.5940 -1.1299
 1117SOL     OW 3928   8.907   5.208   8.184 -0.2549  0.2804 -0.0590
 1117SOL    HW1 3929   8.985   5.193   8.238  0.3118 -1.2774 -1.2320
 1117SOL    HW2 3930   8.936   5.268   8.115 -0.6867  1.3860  0.6917
 1118SOL     OW 3931   6.557   7.032   7.277 -0.0781  0.4090  0.4094
 1118SOL    HW1 3932   6.584   6.945   7.246  0.3727  0.6943 -0.0123
 1118SOL    HW2 3933   6.510   7.015   7.358 -0.8576 -0.3154 -0.1847
 1119SOL     OW 3934   8.174   6.266   8.235  1.0357 -0.3545  0.0618
 1119SOL    HW1 3935   8.189   6.346   8.185 -0.0942  0.5997  1.2062
 1119SOL    HW2 3936   8.081   6.267   8.255  0.7503 -2.5309 -0.8329
 1120SOL     OW 3937   6.300   4.172   5.568 -0.3064  0.4574  0.3994
 1120SOL    HW1 3938   6.362   4.100   5.581  0.5535  1.3047  1.1694
 1120SOL    HW2 3939   6.253   4.179   5.651 -0.2616  0.8850  0.3932
 1121SOL     OW 3940   1.312   6.893   3.555 -0.3920 -0.2072  0.5021
 1121SOL    HW1 3941   1.345   6.850   3.475 -0.1847  0.2120  0.3603
 1121SOL    HW2 3942   1.362   6.852   3.626 -0.3207 -0.3257  0.3856
 1122SOL     OW 3943   9.098   4.447   9.221 -0.2139 -0.1008  0.4760
 1122SOL    HW1 3944   9.158   4.518   9.198 -0.9620  1.2679  2.4640
 1122SOL    HW2 3945   9.032   4.449   9.152  0.9529 -0.3885 -0.7022
 1123SOL     OW 3946   9.003   9.278   6.552 -0.1401  0.7909 -0.6134
 1123SOL    HW1 3947   9.030   9.219   6.482  1.7593  0.8862 -0.0109
 1123SOL    HW2 3948   9.069   9.267   6.620 -0.9538  2.0025  0.4182
 1124SOL     OW 3949   7.245   2.092   1.158  0.4007 -0.0515  0.2066
 1124SOL    HW1 3950   7.272   2.067   1.070  1.4410 -0.3102  0.5906
 1124SOL    HW2 3951   7.187   2.020   1.186  1.0860 -0.6119  0.2150
 1125SOL     OW 3952   7.489   6.898   8.470  0.2535 -0.7576 -0.6123
 1125SOL    HW1 3953   7.538   6.974   8.440  0.0085 -0.4800 -0.3055
 1125SOL    HW2 3954   7.399   6.915   8.443  0.2302 -1.0288 -0.7109
 1126SOL     OW 3955   3.452   9.383   6.737 -0.0755 -0.1530  0.5278
 1126SOL    HW1 3956   3.470   9.344   6.822  0.3174  0.1633  0.5916
 1126SOL    HW2 3957   3.530   9.366   6.685 -0.6997 -1.2253 -0.1073
 1127SOL     OW 3958   7.395   5.519  -0.005  0.3139 -0.0775 -0.2666
 1127SOL    HW1 3959   7.326   5.545   0.057  0.9571  0.5781  0.1892
 1127SOL    HW2 3960   7.366   5.434  -0.038  0.1409 -0.6301  1.2226
 1128SOL     OW 3961   6.384   2.813   2.588  0.3507  0.3909  0.4669
 1128SOL    HW1 3962   6.426   2.771   2.663 -0.6231 -0.9944  0.2709
 1128SOL    HW2 3963   6.291   2.817   2.612 -0.3815 -2.0853 -1.4656
 1129SOL     OW 3964   0.887   8.790   3.399  0.2197 -0.2212 -0.0396
 1129SOL    HW1 3965   0.935   8.843   3.335  1.0783 -2.4175 -1.3284
 1129SOL    HW2 3966   0.817   8.749   3.349  0.4433 -1.3979  0.5884
 1130SOL     OW 3967   3.052   6.870   5.824 -0.2484 -0.3373  0.0791
 1130SOL    HW1 3968   3.062   6.783   5.862  2.2623  0.5160  1.6005
 1130SOL    HW2 3969   2.975   6.907   5.867 -1.0873 -1.5938 -0.2761
 1131SOL     OW 3970   6.439   1.581   6.504  0.6804  0.3832  0.3023
 1131SOL    HW1 3971   6.519   1.534   6.529  1.0088  0.7495 -0.0481
 1131SOL    HW2 3972   6.452   1.670   6.537  0.1726  0.3060  0.7323
 1132SOL     OW 3973   9.261   1.541   3.768 -0.1369  0.4456  0.0282
 1132SOL    HW1 3974   9.233   1.618   3.719  1.7858  0.9262 -0.3830
 1132SOL    HW2 3975   9.292   1.480   3.701 -0.5440 -0.2287  0.4417
 1133SOL     OW 3976   6.727   6.063   7.259 -0.1130  0.1454 -0.2648
 1133SOL    HW1 3977   6.821   6.066   7.281 -0.1143 -1.8707  0.1875
 1133SOL    HW2 3978   6.719   5.987   7.201 -1.3779  0.7517 -0.9126
 1134SOL     OW 3979   2.292   5.707   5.387  0.0646  0.4304 -0.9734
 1134SOL    HW1 3980   2.261   5.677   5.301 -1.2085 -1.2596  0.0111
 1134SOL    HW2 3981   2.217   5.754   5.424 -0.5957 -1.5800  0.4333
 1135SOL     OW 3982   1.658   8.358   5.081  0.2456 -0.0847  0.0599
 1135SOL    HW1 3983   1.731   8.309   5.119  1.4607  2.3630  1.1241
 1135SOL    HW2 3984   1.627   8.415   5.152 -0.8279  0.9550 -1.1781
 1136SOL     OW 3985   4.489   9.962   0.635 -0.4080 -0.1826  0.3343
 1136SOL    HW1 3986   4.481   9.951   0.540  0.1458  1.9575 -0.0025
 1136SOL    HW2 3987   4.582   9.947   0.652 -0.2061  0.9071  0.2818
 1137SOL     OW 3988   9.298   0.387   5.134 -0.0183  0.2822  0.2735
 1137SOL    HW1 3989   9.273   0.296   5.121 -1.3915  0.7188 -0.3326
 1137SOL    HW2 3990   9.279   0.405   5.226 -1.1873  0.3591  0.0326
 1138SOL     OW 3991   2.778   1.817   0.342  0.2831 -0.3525  0.3143
 1138SOL    HW1 3992   2.842   1.880   0.310  0.8020 -0.0536  1.8658
 1138SOL    HW2 3993   2.744   1.856   0.422 -0.2512 -1.5093  0.6734
 1139SOL     OW 3994   2.281   6.554   6.715 -0.2819 -0.4569 -0.0082
 1139SOL    HW1 3995   2.193   6.522   6.736 -0.4114  0.3959  0.7814
 1139SOL    HW2 3996   2.336   6.475   6.716 -0.6668 -0.7351  1.4965
 1140SOL     OW 3997   0.706   1.463   8.331  0.7556  0.5258  0.5091
 1140SOL    HW1 3998   0.680   1.462   8.423 -0.2050 -1.7327  0.2871
 1140SOL    HW2 3999   0.626   1.444   8.283  1.6599 -0.6148 -0.6133
 1141SOL     OW 4000   9.249   0.034   2.578 -0.1867  0.0612 -0.3666
 1141SOL    HW1 4001   9.323   0.057   2.633 -2.2143 -0.3068  2.7519
 1141SOL    HW2 4002   9.207   0.118   2.558 -0.1853  0.0922 -0.2376
 1142SOL     OW 4003   2.148   6.211   1.742  0.2475  0.0938 -0.9577
 1142SOL    HW1 4004   2.155   6.269   1.666  1.8048 -1.0402 -1.7286
 1142SOL    HW2 4005   2.105   6.133   1.708 -0.2289  0.0808 -0.3472
 1143SOL     OW 4006   3.534   9.646   5.662  0.4740  0.2100 -0.0362
 1143SOL    HW1 4007   3.478   9.711   5.619 -0.9311 -1.8039 -1.4781
 1143SOL    HW2 4008   3.508   9.650   5.754 -0.6050  0.7086 -0.3391
 1144SOL     OW 4009   6.109   5.218   0.878  0.3760  0.0966  0.8625
 1144SOL    HW1 4010   6.027   5.248   0.839  2.2195  1.0305 -2.7530
 1144SOL    HW2 4011   6.105   5.122   0.874 -1.4816 -0.0330  3.2495
 1145SOL     OW 4012   5.036   7.123   6.623 -0.0478 -0.1742  0.2920
 1145SOL    HW1 4013   5.077   7.072   6.553 -1.3281 -1.1067  0.1743
 1145SOL    HW2 4014   5.087   7.103   6.701  1.2242  0.6589 -0.3026
 1146SOL     OW 4015   4.855   0.871   7.179 -0.0110 -0.1909 -0.2835
 1146SOL    HW1 4016   4.885   0.861   7.269 -1.7028 -1.8283  0.1589
 1146SOL    HW2 4017   4.849   0.781   7.146  0.8407  0.3841 -2.1517
 1147SOL     OW 4018   6.494   8.319   2.667  0.1477  0.3350 -0.5749
 1147SOL    HW1 4019   6.472   8.226   2.659  1.9428 -0.2177  0.4197
 1147SOL    HW2 4020   6.517   8.346   2.578  0.0121 -0.2715 -0.8015
 1148SOL     OW 4021   2.529   1.384   9.851 -0.8047 -0.4749 -0.0079
 1148SOL    HW1 4022   2.469   1.434   9.907  0.3535  1.3965 -0.3429
 1148SOL    HW2 4023   2.570   1.321   9.910 -0.6912  0.4741  0.9685
 1149SOL     OW 4024   8.750   7.055   1.906 -0.1126 -0.5070  0.4289
 1149SOL    HW1 4025   8.818   7.027   1.967 -0.8519 -1.8360  0.6988
 1149SOL    HW2 4026   8.696   6.976   1.894  1.0028 -0.8518 -3.3203
 1150SOL     OW 4027   1.181   5.444   3.442  0.1427 -0.4178 -0.2821
 1150SOL    HW1 4028   1.197   5.400   3.525 -0.2854  2.0031  1.1782
 1150SOL    HW2 4029   1.087   5.430   3.426 -0.5299  1.7556  1.3709
 1151SOL     OW 4030   8.764   2.018   2.294  0.3550  0.3150 -0.4685
 1151SOL    HW1 4031   8.754   2.101   2.247 -0.8612  0.5504  0.1720
 1151SOL    HW2 4032   8.745   1.951   2.228  0.7235  0.5579 -0.8296
 1152SOL     OW 4033   1.504   1.759   7.007 -0.6659 -0.5565  0.0091
 1152SOL    HW1 4034   1.515   1.847   6.973  0.7551 -0.3810  0.8528
 1152SOL    HW2 4035   1.454   1.770   7.088  3.0596  0.1026  2.4815
 1153SOL     OW 4036   5.413   0.442   0.865  0.0877 -0.4056 -0.1761
 1153SOL    HW1 4037   5.428   0.427   0.771 -2.7520 -0.1484 -0.7678
 1153SOL    HW2 4038   5.426   0.536   0.877 -1.1742 -0.1446 -0.7131
 1154SOL     OW 4039   1.189   9.037   6.596 -0.3258 -0.2019  0.2125
 1154SOL    HW1 4040   1.247   9.026   6.670  1.0503 -0.7280 -0.9021
 1154SOL    HW2 4041   1.173   9.132   6.591  0.3898 -0.0578  0.5668
 1155SOL     OW 4042   6.142   7.544   2.456  0.0760 -0.3031 -0.0656
 1155SOL    HW1 4043   6.164   7.597   2.532 -1.7415  0.9406 -0.3379
 1155SOL    HW2 4044   6.078   7.481   2.489 -0.8405  0.3468 -0.5667
 1156SOL     OW 4045   1.427   0.716   6.096  0.1799  0.2519  0.4348
 1156SOL    HW1 4046   1.392   0.627   6.102 -0.5594  0.2016 -2.6409
 1156SOL    HW2 4047   1.463   0.721   6.007  1.4125  2.6322  0.9780
 1157SOL     OW 4048   6.970   0.889   8.541  0.4053  0.0456 -0.0405
 1157SOL    HW1 4049   6.924   0.955   8.593 -0.3447  1.5961 -2.4801
 1157SOL    HW2 4050   6.918   0.810   8.553 -1.0422  0.9388 -0.1632
 1158SOL     OW 4051   1.953   0.156   3.180 -0.0026 -0.3819  0.1550
 1158SOL    HW1 4052   1.888   0.222   3.158  0.7815  1.0820  1.9684
 1158SOL    HW2 4053   2.015   0.158   3.108  1.0131  2.2730  0.9948
 1159SOL     OW 4054   8.079   5.427   0.411 -0.1000  0.2198 -0.2618
 1159SOL    HW1 4055   7.997   5.457   0.371  0.1432 -0.6642 -1.4877
 1159SOL    HW2 4056   8.088   5.480   0.489 -1.5132  0.7944 -0.4539
 1160SOL     OW 4057   2.446   0.230   0.322 -0.1686  0.4068 -0.4581
 1160SOL    HW1 4058   2.365   0.211   0.369  0.0216 -0.4145 -0.4498
 1160SOL    HW2 4059   2.515   0.215   0.387 -0.0245  1.9872 -0.1832
 1161SOL     OW 4060   3.021   0.401   3.073  0.0669 -0.3721  0.6323
 1161SOL    HW1 4061   3.084   0.343   3.030  2.6970  1.2890  1.9358
 1161SOL    HW2 4062   2.946   0.345   3.094  0.7158 -2.2674 -1.7526
 1162SOL     OW 4063   8.784   8.351   7.819  0.4598  0.2112 -0.2667
 1162SOL    HW1 4064   8.759   8.264   7.788  0.9003  0.1178 -0.3607
 1162SOL    HW2 4065   8.728   8.411   7.769 -0.5523 -0.0583  0.5115
 1163SOL     OW 4066   3.232   4.655   5.402 -0.1597 -0.0591 -0.5894
 1163SOL    HW1 4067   3.274   4.712   5.338  1.2116  0.9062  1.0958
 1163SOL    HW2 4068   3.219   4.711   5.479 -1.6805 -1.2042  0.0342
 1164SOL     OW 4069   2.510   9.430   6.837  0.2182 -0.2690  0.0201
 1164SOL    HW1 4070   2.591   9.385   6.811 -1.5231 -3.8617  0.2301
 1164SOL    HW2 4071   2.503   9.414   6.932 -2.0065 -2.5432 -0.4193
 1165SOL     OW 4072   6.078   3.729   0.942 -0.2533  0.4013  0.1695
 1165SOL    HW1 4073   5.986   3.741   0.963 -0.5002  0.1832 -0.7278
 1165SOL    HW2 4074   6.121   3.809   0.972 -0.7169  0.4634  0.6718
 1166SOL     OW 4075   6.947   9.996   3.885  0.8079 -0.6984  0.1962
 1166SOL    HW1 4076   6.950   9.924   3.947  0.4893 -1.5469 -0.7465
 1166SOL    HW2 4077   7.003   9.968   3.813 -1.5832 -1.3438 -1.5338
 1167SOL     OW 4078   7.966   3.241   4.893 -0.4436  0.4385 -0.5379
 1167SOL    HW1 4079   8.045   3.217   4.941 -0.6373  1.0643  0.1023
 1167SOL    HW2 4080   7.911   3.285   4.957 -1.7701 -0.8881 -0.7054
 1168SOL     OW 4081   7.169   8.891   8.225  0.1729 -0.3513  0.3921
 1168SOL    HW1 4082   7.163   8.971   8.174  1.6078 -0.3024  0.2746
 1168SOL    HW2 4083   7.259   8.889   8.256 -0.3213 -1.0212  1.8782
 1169SOL     OW 4084   3.768   8.512   9.799  0.0088  0.3788 -0.2452
 1169SOL    HW1 4085   3.715   8.558   9.734  0.3606 -0.2692 -1.0053
 1169SOL    HW2 4086   3.858   8.540   9.782  0.4700 -1.7632 -1.8190
 1170SOL     OW 4087   6.834   9.553   6.939 -0.2662  0.0920  0.1820
 1170SOL    HW1 4088   6.927   9.532   6.932 -0.5266 -1.6324  1.2881
 1170SOL    HW2 4089   6.801   9.540   6.850  0.0944 -1.9364  0.2811
 1171SOL     OW 4090   3.841   0.645   5.251  0.6543  0.4609  0.1251
 1171SOL    HW1 4091   3.924   0.635   5.205  0.0704  0.6102 -0.9774
 1171SOL    HW2 4092   3.797   0.561   5.240  0.7765  0.2800  0.9621
 1172SOL     OW 4093   6.450   8.564   6.266  0.6939 -0.2211 -0.2789
 1172SOL    HW1 4094   6.412   8.554   6.353  0.1781 -0.5242 -0.5345
 1172SOL    HW2 4095   6.542   8.541   6.277  0.5132 -0.7924  0.0796
 1173SOL     OW 4096   7.183   1.317   6.974 -0.1115 -0.0936 -0.1432
 1173SOL    HW1 4097   7.251   1.286   7.035 -1.8315 -2.2581  0.8226
 1173SOL    HW2 4098   7.199   1.267   6.893  0.8993  1.2353 -0.7973
 1174SOL     OW 4099   5.139   7.978   1.368 -0.0729  0.0459 -0.2235
 1174SOL    HW1 4100   5.181   7.904   1.412 -0.7264 -0.3982 -0.3304
 1174SOL    HW2 4101   5.051   7.946   1.345 -0.9853  1.3779  1.1937
 1175SOL     OW 4102   6.715   2.571   8.875  0.0847  0.4884 -0.5103
 1175SOL    HW1 4103   6.698   2.620   8.955  1.8891  0.1881  0.1062
 1175SOL    HW2 4104   6.689   2.481   8.895 -0.6450  0.6429 -0.7155
 1176SOL     OW 4105   5.146   0.304   3.662 -0.1463  0.2823  0.3862
 1176SOL    HW1 4106   5.136   0.272   3.572 -0.0252  0.8263  0.1719
 1176SOL    HW2 4107   5.057   0.329   3.688 -0.3945 -1.0519  0.8834
 1177SOL     OW 4108   2.501   9.955   9.324  0.6221 -0.2850  0.2384
 1177SOL    HW1 4109   2.502   9.974   9.230  0.0179  2.5374  0.6922
 1177SOL    HW2 4110   2.591   9.972   9.353  0.4208  0.5359  0.4120
 1178SOL     OW 4111   7.620   8.944   0.667  0.7711 -0.2149  0.5253
 1178SOL    HW1 4112   7.541   8.967   0.716  0.8203  0.7063  0.1904
 1178SOL    HW2 4113   7.589   8.926   0.578  0.8787 -0.3256  0.5093
 1179SOL     OW 4114   7.857   5.939   1.539 -0.3053  0.3978  0.3127
 1179SOL    HW1 4115   7.920   5.872   1.512 -0.5264  0.9178 -1.5731
 1179SOL    HW2 4116   7.772   5.901   1.519 -0.5404  0.4471  1.1597
 1180SOL     OW 4117   5.942   0.347   0.228 -0.0731 -0.2134  0.5359
 1180SOL    HW1 4118   5.974   0.276   0.284 -1.7819  0.4818  2.4931
 1180SOL    HW2 4119   5.848   0.351   0.245 -0.2427  1.6205 -0.5702
 1181SOL     OW 4120   0.823   5.021   5.025 -0.0614  0.0459  0.5543
 1181SOL    HW1 4121   0.760   4.952   5.043  0.3550 -0.1452  1.3454
 1181SOL    HW2 4122   0.828   5.025   4.930 -0.5417 -0.6023  0.4958
 1182SOL     OW 4123   0.911   3.770   1.975  0.2535  0.7216 -0.2116
 1182SOL    HW1 4124   0.965   3.739   2.048 -0.3460  0.0371 -0.0376
 1182SOL    HW2 4125   0.967   3.829   1.926  1.2749 -0.2757 -0.2632
 1183SOL     OW 4126   4.843   0.265   4.982 -0.1578 -0.0846 -0.1527
 1183SOL    HW1 4127   4.899   0.195   5.017 -1.1059 -0.0004  1.6633
 1183SOL    HW2 4128   4.772   0.219   4.938 -0.8280 -0.3145  1.1166
 1184SOL     OW 4129   6.476   6.146   1.146  0.4316  0.0760  0.3405
 1184SOL    HW1 4130   6.436   6.186   1.069  0.6154 -0.2377  0.0797
 1184SOL    HW2 4131   6.477   6.215   1.212  1.0156  0.5829 -0.1960
 1185SOL     OW 4132   3.658   9.351   8.397 -0.1458 -0.3452  0.4057
 1185SOL    HW1 4133   3.663   9.262   8.432 -0.3451 -0.6090 -0.2161
 1185SOL    HW2 4134   3.658   9.339   8.302  2.1528  0.4514  0.2621
 1186SOL     OW 4135   3.495   7.300   5.459 -0.0488  0.3403 -0.5097
 1186SOL    HW1 4136   3.474   7.390   5.432  0.1832  0.9987  1.3851
 1186SOL    HW2 4137   3.587   7.289   5.435  0.5062  1.3473  1.0112
 1187SOL     OW 4138   9.060   0.523   4.987  0.4108 -0.2810 -0.3598
 1187SOL    HW1 4139   9.139   0.494   5.032 -0.4298 -0.8806  0.7841
 1187SOL    HW2 4140   9.077   0.615   4.965  1.1741 -0.2148  0.4624
 1188SOL     OW 4141   6.671   1.790   8.185 -0.2412 -0.5340  0.1482
 1188SOL    HW1 4142   6.712   1.813   8.102  1.4279 -2.8178  0.2271
 1188SOL    HW2 4143   6.581   1.769   8.163 -0.0278 -0.3679 -0.9465
 1189SOL     OW 4144   6.711   1.359   4.573  0.2934 -0.8870  0.3257
 1189SOL    HW1 4145   6.651   1.323   4.638 -0.2120  0.5052  0.6817
 1189SOL    HW2 4146   6.711   1.453   4.590 -0.4592 -0.3596 -2.1813
 1190SOL     OW 4147   8.948   6.347   9.253  0.3006  0.3576  0.9829
 1190SOL    HW1 4148   8.958   6.391   9.169 -2.8432  0.0999  0.3409
 1190SOL    HW2 4149   8.928   6.256   9.231  0.6917 -0.0177  2.0829
 1191SOL     OW 4150   8.525   4.661   5.365  0.8146  0.4651 -0.0596
 1191SOL    HW1 4151   8.456   4.726   5.349 -0.7271 -1.3356 -1.1763
 1191SOL    HW2 4152   8.589   4.707   5.420 -1.3065  2.1847  1.1266
 1192SOL     OW 4153   3.774   4.735   6.748  0.0298 -0.1731  0.0231
 1192SOL    HW1 4154   3.761   4.683   6.670  0.1413 -0.0877 -0.0531
 1192SOL    HW2 4155   3.694   4.723   6.799  0.7945 -1.9530  0.9074
 1193SOL     OW 4156   9.973   5.798   8.426  0.6224 -0.2247 -0.5495
 1193SOL    HW1 4157  10.026   5.834   8.497  0.2069  0.2665 -0.4740
 1193SOL    HW2 4158   9.888   5.842   8.436  0.4788 -0.3421 -1.1911
 1194SOL     OW 4159   0.557   6.024   0.972  0.1295  0.5405  0.5124
 1194SOL    HW1 4160   0.467   6.002   0.946  0.5349 -0.5703 -0.0329
 1194SOL    HW2 4161   0.555   6.022   1.068 -0.7944  2.1756  0.5638
 1195SOL     OW 4162   0.454   9.319   7.272 -0.6821 -0.2375  0.3304
 1195SOL    HW1 4163   0.509   9.315   7.194 -1.4912  1.0988 -0.3455
 1195SOL    HW2 4164   0.477   9.401   7.314 -2.1120  0.3380  0.0413
 1196SOL     OW 4165   9.702   6.792   1.745 -0.4396  0.1811  0.3371
 1196SOL    HW1 4166   9.658   6.875   1.763 -0.6137  0.4352 -1.0727
 1196SOL    HW2 4167   9.633   6.726   1.753 -1.0951  0.5514 -1.6187
 1197SOL     OW 4168   4.623   5.818   9.403 -0.2607 -0.3883 -0.0386
 1197SOL    HW1 4169   4.595   5.901   9.441 -0.2879 -0.7578  0.7745
 1197SOL    HW2 4170   4.653   5.766   9.478  1.7963 -0.3437 -0.7557
 1198SOL     OW 4171   1.835   4.043   0.302  0.0611  0.3146  0.6183
 1198SOL    HW1 4172   1.833   4.065   0.208  2.9028 -1.7509 -0.0436
 1198SOL    HW2 4173   1.785   3.962   0.308  1.3859 -0.5269  0.5338
 1199SOL     OW 4174   6.862   3.525   7.650  0.3370  0.2257 -0.2390
 1199SOL    HW1 4175   6.952   3.493   7.646 -0.3516 -1.6827 -1.5885
 1199SOL    HW2 4176   6.823   3.479   7.724  0.4501  1.1008  0.3871
 1200SOL     OW 4177   3.864   7.851   8.894 -0.1303 -0.1606  0.1553
 1200SOL    HW1 4178   3.898   7.882   8.978  1.2084  1.3222 -0.8579
 1200SOL    HW2 4179   3.943   7.829   8.843 -0.9340 -1.5930 -0.5258
 1201SOL     OW 4180   0.306   6.897   4.896 -0.0796 -0.2436 -0.2820
 1201SOL    HW1 4181   0.227   6.949   4.883 -0.4550 -0.8550 -0.4866
 1201SOL    HW2 4182   0.323   6.857   4.810 -0.1795 -0.9810  0.0283
 1202SOL     OW 4183   6.022   9.331   7.169  0.3138 -0.4829 -0.1461
 1202SOL    HW1 4184   5.993   9.407   7.119 -0.2177 -1.3583 -1.2410
 1202SOL    HW2 4185   6.115   9.323   7.150  0.3200 -0.2362 -0.2145
 1203SOL     OW 4186   6.675   0.514   2.075  0.4453  0.4706 -0.4680
 1203SOL    HW1 4187   6.723   0.446   2.026  2.3116  1.8246 -0.6514
 1203SOL    HW2 4188   6.655   0.580   2.009 -0.5090  0.5362 -0.1162
 1204SOL     OW 4189   3.742   3.397   0.170  0.0321  0.9389  0.3252
 1204SOL    HW1 4190   3.816   3.444   0.207  0.8000 -1.0042  1.4340
 1204SOL    HW2 4191   3.779   3.349   0.096 -0.1423  0.1332  0.7459
 1205SOL     OW 4192   6.268   4.217   5.832 -0.4612 -0.3335  0.4853
 1205SOL    HW1 4193   6.300   4.291   5.883 -1.4238 -0.6884  1.6343
 1205SOL    HW2 4194   6.173   4.222   5.838 -0.5550 -1.3008  0.0402
 1206SOL     OW 4195   4.012   7.737   8.705  0.4264 -1.0300  0.1102
 1206SOL    HW1 4196   3.953   7.689   8.648  0.6742  1.7457 -2.7858
 1206SOL    HW2 4197   4.097   7.693   8.695 -0.1710 -2.3988  0.8393
 1207SOL     OW 4198   3.359   6.043   5.896  0.2536  0.1099  0.1481
 1207SOL    HW1 4199   3.276   6.086   5.872 -0.9374 -0.6576  2.5753
 1207SOL    HW2 4200   3.391   6.006   5.814 -2.0363  0.0535 -0.8009
 1208SOL     OW 4201   4.571   2.705   3.585  0.3311 -0.0505 -0.0989
 1208SOL    HW1 4202   4.600   2.732   3.672  0.7993  1.1175 -0.5953
 1208SOL    HW2 4203   4.606   2.772   3.526  2.8519 -2.5369 -1.6336
 1209SOL     OW 4204   5.993   6.067   7.505 -0.4176 -1.0928 -0.3585
 1209SOL    HW1 4205   5.987   6.090   7.412 -0.3434  1.1710  0.1389
 1209SOL    HW2 4206   5.953   6.141   7.551  0.9509 -1.4241  1.4907
 1210SOL     OW 4207   1.843   1.497   9.711 -0.0001  0.0648 -0.2983
 1210SOL    HW1 4208   1.932   1.475   9.685 -0.4484 -0.9817 -1.0023
 1210SOL    HW2 4209   1.818   1.429   9.773 -0.8554 -0.5979 -1.3268
 1211SOL     OW 4210   0.968   1.620   1.777  0.0852 -0.2124 -0.1236
 1211SOL    HW1 4211   0.876   1.603   1.800  0.4457 -0.9559  0.7893
 1211SOL    HW2 4212   0.962   1.663   1.691 -1.2074  1.3394  0.6778
 1212SOL     OW 4213   4.804   1.015   2.731  0.6687  0.2255  0.1419
 1212SOL    HW1 4214   4.753   1.055   2.801  0.5888  1.5150 -0.6210
 1212SOL    HW2 4215   4.894   1.040   2.750  0.9785 -1.4489  1.0882
 1213SOL     OW 4216   1.991   3.840   7.870 -0.6378 -0.5851 -0.3451
 1213SOL    HW1 4217   1.999   3.750   7.902 -1.5079 -0.5260  0.0618
 1213SOL    HW2 4218   1.897   3.853   7.859 -0.5238  0.3093 -0.3121
 1214SOL     OW 4219   9.698   5.369   2.290 -0.0170  0.2768  0.1440
 1214SOL    HW1 4220   9.607   5.399   2.285 -1.3195 -3.2080 -0.8005
 1214SOL    HW2 4221   9.734   5.388   2.204 -0.1110  0.9600  0.2526
 1215SOL     OW 4222   7.408   3.456   5.735 -0.2319 -0.0365  0.2013
 1215SOL    HW1 4223   7.346   3.435   5.666  0.0651  1.2311 -0.4721
 1215SOL    HW2 4224   7.428   3.371   5.776 -0.5256 -0.7910 -1.1623
 1216SOL     OW 4225   8.080   5.504   6.546  0.3288  0.4958 -0.0737
 1216SOL    HW1 4226   8.168   5.480   6.577  0.0519 -1.1126 -0.4686
 1216SOL    HW2 4227   8.064   5.589   6.587  0.7415 -0.6536  2.7757
 1217SOL     OW 4228   6.116   3.355   5.502  0.8045  0.2270 -0.2430
 1217SOL    HW1 4229   6.203   3.342   5.542  0.4678 -0.1330  0.3931
 1217SOL    HW2 4230   6.058   3.297   5.552  0.2336  0.3125 -0.7980
 1218SOL     OW 4231   8.983   6.293   5.385  0.2387 -0.0559  0.3786
 1218SOL    HW1 4232   8.962   6.206   5.351  0.5640  0.1800 -0.4560
 1218SOL    HW2 4233   9.075   6.287   5.410 -0.9311 -1.5693  5.5097
 1219SOL     OW 4234   8.280   9.407   5.163  0.7118 -0.2993 -0.0215
 1219SOL    HW1 4235   8.215   9.351   5.120 -0.3410  0.4055  0.6178
 1219SOL    HW2 4236   8.237   9.492   5.172  2.6578  0.9956 -1.9462
 1220SOL     OW 4237   2.740   6.354   7.682  0.0262  0.6083 -0.0383
 1220SOL    HW1 4238   2.698   6.342   7.597 -2.0099 -1.8829  1.1711
 1220SOL    HW2 4239   2.672   6.330   7.745  1.8804  1.0782  2.2705
 1221SOL     OW 4240   8.829   9.323   3.549  0.6826 -0.0995  0.2866
 1221SOL    HW1 4241   8.792   9.388   3.608 -0.3850  0.2932 -0.7876
 1221SOL    HW2 4242   8.905   9.289   3.596  0.4587  0.9328  1.4440
 1222SOL     OW 4243   3.194   2.498   2.759  0.2511 -0.2585 -0.3816
 1222SOL    HW1 4244   3.283   2.532   2.773 -0.3672  2.1097 -1.6041
 1222SOL    HW2 4245   3.203   2.403   2.766  2.4304  0.0015  1.8291
 1223SOL     OW 4246   0.000   4.431   7.779 -0.0492 -0.1904 -0.2407
 1223SOL    HW1 4247   0.006   4.526   7.777  0.9986 -0.2472 -0.6845
 1223SOL    HW2 4248   0.092   4.402   7.781 -0.3628 -1.1782  0.2052
 1224SOL     OW 4249   2.174   9.603   3.631  0.2833  0.4622  0.3452
 1224SOL    HW1 4250   2.166   9.576   3.722 -0.7033  2.1304  0.7947
 1224SOL    HW2 4251   2.092   9.648   3.612  1.2137  1.7572 -0.7915
 1225SOL     OW 4252   4.504   0.895   9.075 -0.4574 -0.1131  0.6981
 1225SOL    HW1 4253   4.416   0.870   9.104 -0.2177 -0.5507  1.0613
 1225SOL    HW2 4254   4.557   0.894   9.155 -0.2711  0.8420  0.5965
 1226SOL     OW 4255   2.569   1.063   9.260  0.2663 -0.4328 -0.2774
 1226SOL    HW1 4256   2.571   0.980   9.308  0.2342 -0.2026  0.1292
 1226SOL    HW2 4257   2.626   1.121   9.311 -0.1261 -0.0505 -0.2734
 1227SOL     OW 4258   9.343   0.205   5.634 -0.0038 -0.5462  0.4900
 1227SOL    HW1 4259   9.277   0.272   5.616  0.5369  0.4765  2.2146
 1227SOL    HW2 4260   9.422   0.253   5.658  1.8210 -1.7011 -2.5491
 1228SOL     OW 4261   3.084   9.879   7.803  0.4118 -0.1088 -0.6262
 1228SOL    HW1 4262   3.089   9.972   7.782  2.1206  0.3949  1.5759
 1228SOL    HW2 4263   3.001   9.869   7.848  1.1950  0.8897  1.1414
 1229SOL     OW 4264   5.698   2.278   7.345  0.8301 -0.2286  0.4448
 1229SOL    HW1 4265   5.604   2.296   7.354  0.9964  1.6025 -0.9105
 1229SOL    HW2 4266   5.738   2.320   7.420  0.6538 -0.2947  0.5769
 1230SOL     OW 4267   8.093   7.584   9.143 -0.3642  0.2914  0.1920
 1230SOL    HW1 4268   8.136   7.630   9.215 -1.5239  0.8800  0.5375
 1230SOL    HW2 4269   8.026   7.530   9.185  0.7244 -1.4544 -0.2505
 1231SOL     OW 4270   2.205   6.970   1.497 -0.0833  0.8122  0.1428
 1231SOL    HW1 4271   2.269   7.006   1.558  0.1149  2.5610 -1.0074
 1231SOL    HW2 4272   2.252   6.962   1.414 -0.9886  0.9029 -0.3986
 1232SOL     OW 4273   1.744   6.097   1.851  0.4996  0.1453 -0.2486
 1232SOL    HW1 4274   1.753   6.015   1.900  1.2097  0.2032 -0.2698
 1232SOL    HW2 4275   1.698   6.071   1.771 -2.3056  0.3642  1.1865
 1233SOL     OW 4276   1.658   8.756   9.815  0.4353 -0.2016 -0.0003
 1233SOL    HW1 4277   1.583   8.736   9.760  0.4572  2.2601 -1.0797
 1233SOL    HW2 4278   1.636   8.719   9.901 -2.7180  1.6255  0.1210
 1234SOL     OW 4279   5.041   2.799   4.994 -1.0247  0.3593 -0.3826
 1234SOL    HW1 4280   5.011   2.721   5.040 -1.1378 -0.4452 -1.7758
 1234SOL    HW2 4281   5.095   2.845   5.058 -0.0990 -1.3987  0.1629
 1235SOL     OW 4282   3.649   0.587   6.978  0.4267  0.0856 -0.3868
 1235SOL    HW1 4283   3.705   0.535   6.920  2.0495 -0.6497  1.6997
 1235SOL    HW2 4284   3.686   0.574   7.065 -0.7127  2.6894  0.6006
 1236SOL     OW 4285   3.402   2.170   4.155 -0.2682 -0.2566 -0.0663
 1236SOL    HW1 4286   3.358   2.253   4.136  0.0152  0.2112  1.1799
 1236SOL    HW2 4287   3.486   2.176   4.110 -0.0906  0.3115  0.3258
 1237SOL     OW 4288   1.783   7.629   8.014 -0.0614  0.0110 -0.6494
 1237SOL    HW1 4289   1.789   7.686   8.091 -0.9828  0.4425 -0.8912
 1237SOL    HW2 4290   1.708   7.573   8.032  0.7252 -1.0225 -0.4975
 1238SOL     OW 4291   9.602   7.134   5.033  0.2267  0.3973  0.0454
 1238SOL    HW1 4292   9.538   7.072   4.998 -0.8992  1.2935  0.4504
 1238SOL    HW2 4293   9.566   7.220   5.012 -0.0569  0.9707  2.5483
 1239SOL     OW 4294   4.256   1.825   5.019  0.0693 -0.7630 -0.0650
 1239SOL    HW1 4295   4.172   1.802   5.059 -0.2292  1.0945  0.4709
 1239SOL    HW2 4296   4.303   1.742   5.012 -2.0292 -1.9675 -0.9263
 1240SOL     OW 4297   7.853   5.724   5.134 -0.3901 -0.0279  0.0828
 1240SOL    HW1 4298   7.772   5.698   5.089  0.1987  0.4225 -1.2935
 1240SOL    HW2 4299   7.823   5.768   5.214 -1.4685 -0.8912  0.1735
 1241SOL     OW 4300   6.012   6.042   4.980  0.3400 -0.6872 -0.3557
 1241SOL    HW1 4301   6.072   6.115   4.968  1.5074 -1.4762  0.4234
 1241SOL    HW2 4302   6.010   5.998   4.895  1.1250 -0.8186 -0.3152
 1242SOL     OW 4303   3.175   9.260   0.660 -0.2797 -0.2500 -0.4482
 1242SOL    HW1 4304   3.151   9.191   0.722 -1.8885 -1.2656 -2.1111
 1242SOL    HW2 4305   3.146   9.341   0.703  0.7554 -0.6519  1.1022
 1243SOL     OW 4306   1.239   1.366   3.089  0.8505  0.2111 -0.6002
 1243SOL    HW1 4307   1.223   1.422   3.165  0.4130 -1.3204  0.4971
 1243SOL    HW2 4308   1.180   1.399   3.021  1.6561  1.9588 -0.4836
 1244SOL     OW 4309   7.988   8.430   8.009 -0.7749  0.1585  0.1561
 1244SOL    HW1 4310   8.032   8.480   8.078 -0.6453  1.1276 -0.5860
 1244SOL    HW2 4311   8.010   8.339   8.027 -0.8062  0.3810  1.4177
 1245SOL     OW 4312   2.908   1.396   7.836 -0.1185 -1.0679 -0.1330
 1245SOL    HW1 4313   2.901   1.491   7.840 -2.4218 -1.1207 -1.3386
 1245SOL    HW2 4314   2.907   1.368   7.927 -1.2351 -0.0051  0.2092
 1246SOL     OW 4315   8.114   9.471   6.691 -0.2099  0.1491 -0.0661
 1246SOL    HW1 4316   8.144   9.556   6.724 -0.2765 -0.0964  0.6544
 1246SOL    HW2 4317   8.184   9.440   6.634 -0.9037  1.4519 -1.7213
 1247SOL     OW 4318   0.228   3.512   9.026 -0.0715 -0.2256 -0.1062
 1247SOL    HW1 4319   0.132   3.510   9.027 -0.1172  0.5872 -1.0234
 1247SOL    HW2 4320   0.250   3.605   9.029  0.7077 -0.4196  0.4491
 1248SOL     OW 4321   8.530   6.773   0.330 -0.0374  0.1585  0.0190
 1248SOL    HW1 4322   8.496   6.721   0.403  0.1221 -0.2926 -0.2237
 1248SOL    HW2 4323   8.551   6.858   0.369  1.0871 -0.4227  0.7452
 1249SOL     OW 4324   6.313   6.402   7.257 -0.0623  0.0165 -0.1062
 1249SOL    HW1 4325   6.384   6.427   7.197 -0.0160  1.2985  0.4607
 1249SOL    HW2 4326   6.322   6.462   7.331 -0.2564 -1.4027  1.1012
 1250SOL     OW 4327   4.428   0.518   7.897  0.5681 -0.3364 -0.1350
 1250SOL    HW1 4328   4.436   0.548   7.988 -0.0665  1.1840 -0.5474
 1250SOL    HW2 4329   4.503   0.461   7.884  3.0359  2.5793  0.1921
 1251SOL     OW 4330   1.688   2.182   3.283  0.0838  0.5196 -0.1736
 1251SOL    HW1 4331   1.665   2.155   3.372  1.2578  1.9659  0.6142
 1251SOL    HW2 4332   1.684   2.102   3.232  0.8041 -0.6448  1.4927
 1252SOL     OW 4333   3.125   2.199   5.330 -0.4568 -0.0245 -0.1941
 1252SOL    HW1 4334   3.065   2.160   5.266 -0.2780  0.2040 -0.5083
 1252SOL    HW2 4335   3.204   2.217   5.279 -0.4124  0.4136  0.0324
 1253SOL     OW 4336   8.700   5.898   1.800  0.0842 -0.4664  0.3745
 1253SOL    HW1 4337   8.761   5.968   1.824 -0.0735  0.7307 -2.4098
 1253SOL    HW2 4338   8.756   5.830   1.763  0.1847 -1.7376  2.6563
 1254SOL     OW 4339   7.090   2.398   0.036 -0.1547  0.2559 -0.5453
 1254SOL    HW1 4340   7.094   2.302   0.034 -0.2536  0.2615 -1.5645
 1254SOL    HW2 4341   7.058   2.422  -0.051  2.5890  1.3430 -1.3659
 1255SOL     OW 4342   2.558   1.299   9.049  0.4196  0.1983  0.4239
 1255SOL    HW1 4343   2.619   1.318   9.120 -0.4246  0.5467  1.0657
 1255SOL    HW2 4344   2.559   1.204   9.040  3.3255  0.2753 -1.6098
 1256SOL     OW 4345   1.405   1.633   2.905 -0.4324  0.1151 -0.2249
 1256SOL    HW1 4346   1.476   1.686   2.941  0.8232 -1.2935 -0.5244
 1256SOL    HW2 4347   1.348   1.697   2.861  1.9064  1.1148 -2.0725
 1257SOL     OW 4348   6.626   4.812   9.610 -0.1512 -0.2210 -0.1000
 1257SOL    HW1 4349   6.619   4.723   9.643  2.4178 -1.1404 -1.7539
 1257SOL    HW2 4350   6.585   4.808   9.523  0.5480  0.0171 -0.4469
 1258SOL     OW 4351   2.654   4.527   0.752  0.0242  0.2044 -0.0992
 1258SOL    HW1 4352   2.636   4.436   0.728  2.2943 -0.5863  0.9229
 1258SOL    HW2 4353   2.618   4.579   0.680 -3.9995 -1.1970  0.6505
 1259SOL     OW 4354   6.409   6.858   5.463  0.1027  0.4094  0.7658
 1259SOL    HW1 4355   6.430   6.927   5.526  0.3475  0.2165  0.8920
 1259SOL    HW2 4356   6.476   6.792   5.475  0.5318  0.6597 -0.1408
 1260SOL     OW 4357   4.205   3.684   2.605  0.1421 -0.6636 -0.1439
 1260SOL    HW1 4358   4.207   3.757   2.667 -2.7493 -1.1159  0.6156
 1260SOL    HW2 4359   4.254   3.715   2.530 -1.0240  2.1211  0.1269
 1261SOL     OW 4360   5.685   3.572   7.547  0.0350 -0.2876 -0.0192
 1261SOL    HW1 4361   5.648   3.614   7.625  0.9545  0.9817 -0.2407
 1261SOL    HW2 4362   5.724   3.492   7.579  1.6626  0.9014  1.1070
 1262SOL     OW 4363   1.600   3.253   9.592  0.1761 -0.6719 -0.4275
 1262SOL    HW1 4364   1.602   3.265   9.687 -2.8840 -2.6416  0.0281
 1262SOL    HW2 4365   1.655   3.176   9.577 -1.3492 -1.9185  0.1502
 1263SOL     OW 4366   2.413   6.125   4.847  0.3971  0.3263 -0.6761
 1263SOL    HW1 4367   2.468   6.065   4.797  0.9392  0.3131 -0.0769
 1263SOL    HW2 4368   2.471   6.198   4.869  0.5568 -0.2942  1.0773
 1264SOL     OW 4369   5.690   3.026   8.506  0.7065 -0.3542 -0.0483
 1264SOL    HW1 4370   5.685   3.094   8.439  1.9485  0.2114  0.3965
 1264SOL    HW2 4371   5.751   2.961   8.470  0.5282 -0.5935  0.0785
 1265SOL     OW 4372   5.077   7.789   2.858  0.4693  0.2111  0.4724
 1265SOL    HW1 4373   5.147   7.726   2.843 -0.1259 -0.2969 -0.3197
 1265SOL    HW2 4374   5.101   7.864   2.804  0.8385  0.3863  0.8802
 1266SOL     OW 4375   7.199   2.934   2.835 -0.5264 -0.0534  0.0852
 1266SOL    HW1 4376   7.275   2.880   2.812 -0.7016 -0.1656 -0.2372
 1266SOL    HW2 4377   7.232   3.023   2.834 -0.2452 -0.1445  0.5743
 1267SOL     OW 4378   5.917   6.372   8.054 -0.3315  0.3637 -0.0869
 1267SOL    HW1 4379   5.953   6.458   8.078  0.0802 -0.4981  2.8885
 1267SOL    HW2 4380   5.990   6.311   8.066 -1.1764 -0.6557  0.0650
 1268SOL     OW 4381   0.171   3.190   0.226  0.0787  0.4140  0.3391
 1268SOL    HW1 4382   0.115   3.212   0.300  0.0810 -0.9912  0.7700
 1268SOL    HW2 4383   0.146   3.253   0.158 -2.0900 -0.2229  0.4778
 1269SOL     OW 4384   2.454   7.757   2.016  0.0852  0.1134 -0.0235
 1269SOL    HW1 4385   2.408   7.684   1.976 -2.3490  1.0327  0.8637
 1269SOL    HW2 4386   2.546   7.732   2.015 -0.4214 -1.9437 -1.7463
 1270SOL     OW 4387   6.550   6.370   8.989 -0.1567  0.4531 -0.3823
 1270SOL    HW1 4388   6.618   6.372   9.056  0.1834  1.5760 -0.7411
 1270SOL    HW2 4389   6.468   6.379   9.038  0.0376  0.4373 -0.0536
 1271SOL     OW 4390   4.983   1.001   9.503 -0.3576  0.0186 -0.1013
 1271SOL    HW1 4391   4.988   0.941   9.428  0.7335 -1.9199  1.4284
 1271SOL    HW2 4392   4.935   1.077   9.470  0.4934 -0.5470 -2.8891
 1272SOL     OW 4393   6.181   6.307   1.712  0.1936 -0.4203  0.1710
 1272SOL    HW1 4394   6.124   6.328   1.638 -1.1729 -2.5523  0.5225
 1272SOL    HW2 4395   6.178   6.386   1.767  2.4859  1.8383 -2.6298
 1273SOL     OW 4396   4.536   8.720   6.435  0.0893 -0.2020  0.2929
 1273SOL    HW1 4397   4.457   8.679   6.468 -0.1415 -1.9250 -2.1651
 1273SOL    HW2 4398   4.607   8.686   6.490 -0.6633  0.1441  1.5069
 1274SOL     OW 4399   5.371   4.427   1.304  0.0348  1.1350 -0.3330
 1274SOL    HW1 4400   5.288   4.403   1.262 -0.0781  1.6653 -0.4192
 1274SOL    HW2 4401   5.348   4.499   1.363  0.0849  0.0507  1.0670
 1275SOL     OW 4402   1.972   2.657   1.139 -0.5081  0.1804  0.2705
 1275SOL    HW1 4403   1.931   2.726   1.192 -0.7405  0.4151 -0.2010
 1275SOL    HW2 4404   1.951   2.682   1.049  0.2104 -0.0035  0.0504
 1276SOL     OW 4405   4.308   2.820   4.640  0.5068  0.3548 -0.1518
 1276SOL    HW1 4406   4.290   2.882   4.569 -1.9914  0.5379  0.5408
 1276SOL    HW2 4407   4.283   2.735   4.604  0.4195  0.2759  0.0965
 1277SOL     OW 4408   9.322   0.561   3.730  0.3466 -0.6732 -0.3260
 1277SOL    HW1 4409   9.325   0.465   3.738  0.6569 -0.8502 -2.1108
 1277SOL    HW2 4410   9.353   0.578   3.641 -3.4317  0.8488 -1.5464
 1278SOL     OW 4411   3.443   9.367   0.323 -0.4316 -0.2707 -0.5896
 1278SOL    HW1 4412   3.431   9.290   0.379  0.3440 -0.5101 -0.7397
 1278SOL    HW2 4413   3.522   9.349   0.273 -0.4864  0.4353 -0.9549
 1279SOL     OW 4414   4.666   5.508   3.113  0.3730  0.4251  0.4711
 1279SOL    HW1 4415   4.756   5.536   3.123  0.7306 -0.6874  0.5322
 1279SOL    HW2 4416   4.672   5.415   3.089 -0.7610  0.1356  1.2309
 1280SOL     OW 4417   1.887   3.070   2.952 -0.4183 -0.2876  0.0131
 1280SOL    HW1 4418   1.807   3.074   2.900 -1.8396  1.2428  2.1443
 1280SOL    HW2 4419   1.859   3.091   3.041  2.5003  1.1722  0.7091
 1281SOL     OW 4420   3.420   8.670   4.435 -0.0164 -0.0452 -0.1963
 1281SOL    HW1 4421   3.396   8.668   4.343 -1.2509  0.1313  0.1053
 1281SOL    HW2 4422   3.344   8.708   4.479  0.3164 -0.6825  0.9695
 1282SOL     OW 4423   6.164   4.121   3.230 -0.4580 -0.2576  0.3962
 1282SOL    HW1 4424   6.086   4.170   3.257 -0.8399 -0.6958  0.0918
 1282SOL    HW2 4425   6.166   4.128   3.135 -0.1747 -0.3289  0.3952
 1283SOL     OW 4426   3.590   4.093   6.898 -0.1927  0.0689 -0.0124
 1283SOL    HW1 4427   3.673   4.064   6.935 -0.0207  0.8835  0.2601
 1283SOL    HW2 4428   3.587   4.187   6.916 -2.3022 -0.3123  2.2662
 1284SOL     OW 4429   0.341   3.956   1.743 -0.0047 -0.2636  0.0267
 1284SOL    HW1 4430   0.346   3.992   1.831  0.0010  0.0916 -0.1166
 1284SOL    HW2 4431   0.432   3.934   1.721 -0.1179 -1.2171  0.4576
 1285SOL     OW 4432   6.153   9.435   6.804  0.4206 -0.9934 -0.0447
 1285SOL    HW1 4433   6.086   9.367   6.818 -1.2403  0.4537 -0.5498
 1285SOL    HW2 4434   6.167   9.434   6.709  0.7195 -0.9338 -0.0007
 1286SOL     OW 4435   4.438   4.837   6.213  0.8981 -0.5088  0.0584
 1286SOL    HW1 4436   4.412   4.768   6.153  0.5057 -1.1529  0.9406
 1286SOL    HW2 4437   4.412   4.918   6.170  0.6392 -0.9535 -0.6397
 1287SOL     OW 4438   3.738   8.791   9.300  0.2037 -0.4357 -0.6327
 1287SOL    HW1 4439   3.796   8.766   9.372  0.5580 -0.0949 -0.7980
 1287SOL    HW2 4440   3.712   8.708   9.261 -0.5687 -0.6687  0.3315
 1288SOL     OW 4441   9.612   6.715   2.057 -0.0545 -0.1614 -0.5637
 1288SOL    HW1 4442   9.668   6.788   2.082 -0.2007 -0.3285  0.2867
 1288SOL    HW2 4443   9.614   6.656   2.133 -0.7811 -0.5262 -0.8194
 1289SOL     OW 4444   6.510   8.900   2.900 -0.0484 -0.0467 -0.6041
 1289SOL    HW1 4445   6.416   8.884   2.909  0.1323 -1.4351 -0.9873
 1289SOL    HW2 4446   6.530   8.875   2.810  0.1602  3.1863 -1.5713
 1290SOL     OW 4447   1.043   3.998   9.653  0.1472  0.6363  0.3997
 1290SOL    HW1 4448   1.073   4.024   9.566  2.1263 -1.6140  0.3441
 1290SOL    HW2 4449   0.985   3.923   9.638  0.0597  0.5750  0.9969
 1291SOL     OW 4450   1.607   8.986   9.478 -0.4530  0.3322 -0.1850
 1291SOL    HW1 4451   1.650   9.056   9.527 -1.4656 -0.2622  1.6182
 1291SOL    HW2 4452   1.675   8.953   9.418  0.6483  1.4418  0.4317
 1292SOL     OW 4453   0.203   9.878   2.196 -0.7932 -0.2874  0.7342
 1292SOL    HW1 4454   0.171   9.859   2.108 -2.0306  0.5743  0.9748
 1292SOL    HW2 4455   0.261   9.805   2.216  1.1980  0.5214 -1.5975
 1293SOL     OW 4456   6.334   4.209   2.073  0.3309 -0.0516  0.5217
 1293SOL    HW1 4457   6.347   4.204   1.978  0.3611 -0.1002  0.5284
 1293SOL    HW2 4458   6.246   4.174   2.087 -0.1898  1.1559  0.3768
 1294SOL     OW 4459   7.809   6.727   5.212  0.5221 -0.4442  0.2519
 1294SOL    HW1 4460   7.842   6.789   5.147  2.1843  0.0433  1.4923
 1294SOL    HW2 4461   7.888   6.694   5.255 -0.5311 -0.6799  2.0900
 1295SOL     OW 4462   8.921   9.699   7.106  0.7245  0.2654  0.4057
 1295SOL    HW1 4463   8.999   9.744   7.073  0.4713 -0.4859 -1.3420
 1295SOL    HW2 4464   8.872   9.767   7.152  1.8800  1.0072  0.5852
 1296SOL     OW 4465   2.546   9.588   6.155 -0.3215  0.8663 -0.4116
 1296SOL    HW1 4466   2.641   9.579   6.151 -0.0608  2.2839  1.2796
 1296SOL    HW2 4467   2.531   9.683   6.159 -1.8471  0.6946 -1.1300
 1297SOL     OW 4468   9.024   8.822   9.038  0.3130 -0.2858  0.7032
 1297SOL    HW1 4469   8.929   8.836   9.034  0.4580  0.6195  0.3005
 1297SOL    HW2 4470   9.055   8.887   9.100  1.1778  2.3725 -2.2753
 1298SOL     OW 4471   3.094   1.644   5.981  0.6588  1.0375 -0.1665
 1298SOL    HW1 4472   3.026   1.665   6.045  0.3417 -0.0011 -0.1443
 1298SOL    HW2 4473   3.103   1.549   5.986  1.6061  1.0838 -0.6882
 1299SOL     OW 4474   2.340   8.810   0.687  0.0221 -0.7102 -0.0168
 1299SOL    HW1 4475   2.313   8.791   0.597  1.2640  1.7760 -1.0157
 1299SOL    HW2 4476   2.257   8.825   0.733 -0.6187  0.7627 -1.4956
 1300SOL     OW 4477   3.831   3.450   1.890 -0.8267 -0.3331  0.2550
 1300SOL    HW1 4478   3.883   3.372   1.872 -0.3160  0.1192 -0.2616
 1300SOL    HW2 4479   3.885   3.523   1.860 -0.2693  0.4263  2.8464
 1301SOL     OW 4480   8.928   6.384   5.625 -0.3027 -0.3157  0.5898
 1301SOL    HW1 4481   9.016   6.364   5.657  0.1695  1.5464  0.5444
 1301SOL    HW2 4482   8.923   6.342   5.539  0.5543 -0.3573  0.5573
 1302SOL     OW 4483   5.920   1.084   9.659  0.3280 -0.2535 -0.1903
 1302SOL    HW1 4484   5.929   1.018   9.728  2.9184 -0.2960 -0.4544
 1302SOL    HW2 4485   5.872   1.039   9.589  0.8030 -1.4265  0.2024
 1303SOL     OW 4486   5.511   3.077   5.445 -0.0022  0.7431 -0.1857
 1303SOL    HW1 4487   5.464   3.125   5.512  1.6629  1.2733  0.6682
 1303SOL    HW2 4488   5.549   3.145   5.389  1.0601  0.3969  0.0937
 1304SOL     OW 4489   8.295   7.218   0.799 -0.1164  0.0206  0.4078
 1304SOL    HW1 4490   8.256   7.234   0.713 -0.4006  0.6006  0.6434
 1304SOL    HW2 4491   8.328   7.303   0.827 -2.6756  0.5622  2.1704
 1305SOL     OW 4492   8.563   0.465   3.692  0.4182 -0.1077  0.4119
 1305SOL    HW1 4493   8.522   0.536   3.741 -1.6613 -1.7151  1.1378
 1305SOL    HW2 4494   8.602   0.409   3.758 -1.1279 -1.5127  0.2055
 1306SOL     OW 4495   4.851   1.215   3.155 -0.1905  0.5464  0.6578
 1306SOL    HW1 4496   4.768   1.171   3.138 -0.3059  0.5941  1.0813
 1306SOL    HW2 4497   4.874   1.256   3.072  1.4579 -2.7909 -0.6791
 1307SOL     OW 4498   0.818   2.926   7.521 -0.1953 -0.2187  0.1155
 1307SOL    HW1 4499   0.731   2.888   7.509 -1.4915  2.5286  0.0103
 1307SOL    HW2 4500   0.848   2.944   7.432 -0.3961  0.5722  0.1971
 1308SOL     OW 4501   1.032   9.428   3.176 -0.1162 -0.1044  0.0565
 1308SOL    HW1 4502   1.054   9.518   3.202 -2.2612  0.2873  0.7537
 1308SOL    HW2 4503   1.114   9.380   3.185  0.4818  1.1894  2.4570
 1309SOL     OW 4504   1.709   6.513   3.071  0.0407 -0.0874  0.4867
 1309SOL    HW1 4505   1.755   6.585   3.026  0.7551 -1.1860 -0.6089
 1309SOL    HW2 4506   1.616   6.538   3.066  0.3497  1.2473  1.0412
 1310SOL     OW 4507   9.892   7.166   2.571  0.6991  0.2777 -0.7150
 1310SOL    HW1 4508   9.920   7.208   2.489 -1.9083  0.9958 -1.3214
 1310SOL    HW2 4509   9.838   7.231   2.614 -0.7873 -1.3015 -0.0805
 1311SOL     OW 4510   1.750   0.992   2.732 -0.1619 -0.2003 -0.2715
 1311SOL    HW1 4511   1.788   1.025   2.813  0.4524  0.4469 -0.8070
 1311SOL    HW2 4512   1.725   0.902   2.752  0.5347 -0.2442  0.4614
 1312SOL     OW 4513   7.444   8.513   5.405  0.0455  0.0971  0.5903
 1312SOL    HW1 4514   7.413   8.559   5.483 -1.6486 -0.9624  0.6051
 1312SOL    HW2 4515   7.398   8.557   5.333 -2.0277 -1.7836  0.6488
 1313SOL     OW 4516   6.408   6.564   3.571  0.3050 -0.1187 -0.0881
 1313SOL    HW1 4517   6.445   6.633   3.627 -2.3655  0.7576  0.7263
 1313SOL    HW2 4518   6.428   6.592   3.482  0.3607  1.0692  0.2812
 1314SOL     OW 4519   2.685   6.505   9.180 -0.1297  0.5520  0.2010
 1314SOL    HW1 4520   2.669   6.458   9.098  0.1045 -0.1606  0.5572
 1314SOL    HW2 4521   2.641   6.454   9.247 -1.7026  1.9892  0.3298
 1315SOL     OW 4522   8.069   4.532   6.082  0.6380  0.3996  0.2479
 1315SOL    HW1 4523   7.990   4.545   6.136  0.0476 -1.6918 -0.0471
 1315SOL    HW2 4524   8.109   4.619   6.078 -0.9813  1.2590  1.4441
 1316SOL     OW 4525   1.421   4.381   0.833 -0.7380 -0.1439  0.1534
 1316SOL    HW1 4526   1.404   4.351   0.922 -0.0137  0.5319  0.5249
 1316SOL    HW2 4527   1.341   4.359   0.785 -0.1778 -2.8567  0.3264
 1317SOL     OW 4528   0.661   7.299   6.519  0.4039 -0.6030 -0.5374
 1317SOL    HW1 4529   0.619   7.308   6.434  0.7892  1.0282 -0.5778
 1317SOL    HW2 4530   0.752   7.280   6.499  0.3110 -1.1189 -0.4762
 1318SOL     OW 4531   5.905   1.832   3.781  0.6441  0.2697 -0.1407
 1318SOL    HW1 4532   5.862   1.769   3.840  0.0229  0.5546 -0.2748
 1318SOL    HW2 4533   5.835   1.892   3.756  0.9060  0.1805 -1.1300
 1319SOL     OW 4534   8.125   5.664   9.309  0.1412 -0.2240  0.0529
 1319SOL    HW1 4535   8.060   5.661   9.379  0.2699  0.3355  0.2038
 1319SOL    HW2 4536   8.201   5.705   9.349  0.3648 -0.2953 -0.2985
 1320SOL     OW 4537   7.060   6.439   4.322 -0.4051  0.6976 -0.3353
 1320SOL    HW1 4538   7.152   6.458   4.306  0.1246 -1.8734 -0.7599
 1320SOL    HW2 4539   7.016   6.462   4.241 -0.2473  2.3153  0.0028
 1321SOL     OW 4540   0.838   0.047   5.776  0.1314  0.4748 -0.0702
 1321SOL    HW1 4541   0.799   0.126   5.740 -0.8803  0.4316  0.8816
 1321SOL    HW2 4542   0.776   0.018   5.844  0.5755 -1.0108 -0.2550
 1322SOL     OW 4543   4.244   9.683   3.152  0.5041  0.3818  0.7902
 1322SOL    HW1 4544   4.187   9.691   3.229  1.4347  0.6077  1.4721
 1322SOL    HW2 4545   4.227   9.763   3.102  0.7143  0.7710  1.3287
 1323SOL     OW 4546   4.077   8.396   6.207  0.7241 -0.2530  0.4768
 1323SOL    HW1 4547   4.110   8.388   6.296 -0.2905  0.5989  0.9550
 1323SOL    HW2 4548   4.004   8.457   6.214  1.3077  0.7008 -1.1083
 1324SOL     OW 4549   6.466   3.953   4.672  0.7202  0.2962  0.5000
 1324SOL    HW1 4550   6.427   4.007   4.603  0.6335  1.1370  1.1948
 1324SOL    HW2 4551   6.439   3.864   4.651 -0.6351  0.7258  0.3236
 1325SOL     OW 4552   1.606   8.512   4.010  0.0254  0.0339  0.6055
 1325SOL    HW1 4553   1.669   8.468   4.068  1.6738 -0.0030 -1.1267
 1325SOL    HW2 4554   1.615   8.605   4.031  3.1799  0.4351 -1.7808
 1326SOL     OW 4555   6.007   4.457   9.160 -0.3216  0.1888  0.6511
 1326SOL    HW1 4556   6.042   4.544   9.180 -0.8190  0.6901 -0.5728
 1326SOL    HW2 4557   5.989   4.418   9.246  2.8346  0.0316  1.3682
 1327SOL     OW 4558   8.398   7.896   1.964 -0.2692 -0.0857  0.0449
 1327SOL    HW1 4559   8.309   7.879   1.993 -0.4278 -1.0158 -0.9488
 1327SOL    HW2 4560   8.398   7.876   1.870  0.6134  1.3465 -0.3036
 1328SOL     OW 4561   0.638   4.955   2.371 -0.2715  0.3901  0.3481
 1328SOL    HW1 4562   0.638   4.972   2.466  2.1242  0.0609  0.4652
 1328SOL    HW2 4563   0.729   4.935   2.350 -1.0178 -1.1007 -1.7837
 1329SOL     OW 4564   2.282   3.636   6.854 -0.4231 -0.3598  0.2490
 1329SOL    HW1 4565   2.261   3.730   6.855  1.5826  0.1297  0.5127
 1329SOL    HW2 4566   2.291   3.612   6.946 -0.6900 -0.7619  0.1740
 1330SOL     OW 4567   4.863   5.416   9.910 -0.1483  0.6875 -0.0414
 1330SOL    HW1 4568   4.876   5.464   9.992  0.5495 -0.3426  0.4678
 1330SOL    HW2 4569   4.828   5.331   9.937  0.1135  0.3268 -0.8126
 1331SOL     OW 4570   6.848   5.408   8.927 -0.6566  0.3534  0.6139
 1331SOL    HW1 4571   6.833   5.502   8.933 -0.6972  0.4361 -0.6159
 1331SOL    HW2 4572   6.897   5.396   8.846  0.2711 -0.5923  1.2744
 1332SOL     OW 4573   8.950   1.800   5.068  0.4369 -0.3780  0.3653
 1332SOL    HW1 4574   8.974   1.854   4.993  1.1787 -1.9855 -0.6107
 1332SOL    HW2 4575   8.883   1.741   5.034 -0.9449  0.3918  1.6194
 1333SOL     OW 4576   3.843   1.277   4.990 -0.3150  0.2684  0.7933
 1333SOL    HW1 4577   3.759   1.320   4.972  0.3178  1.6184  0.9199
 1333SOL    HW2 4578   3.889   1.281   4.906 -0.5110 -0.8413  0.6134
 1334SOL     OW 4579   8.255   1.500   5.173  0.1481 -0.2005  0.5277
 1334SOL    HW1 4580   8.241   1.517   5.266  0.1608  2.2182  0.1580
 1334SOL    HW2 4581   8.334   1.445   5.169 -0.0797 -0.6522  1.9359
 1335SOL     OW 4582   9.102   9.908   6.430  0.4212 -0.1389 -0.2744
 1335SOL    HW1 4583   9.023   9.961   6.439  0.3251  0.0314 -1.8231
 1335SOL    HW2 4584   9.119   9.874   6.518 -0.9171  0.4687  0.2366
 1336SOL     OW 4585   9.226   2.983   6.033 -0.2151 -0.7001 -0.0690
 1336SOL    HW1 4586   9.278   3.036   6.094 -2.5910  1.1309  0.5419
 1336SOL    HW2 4587   9.245   3.021   5.947  1.2538 -1.6664 -0.2063
 1337SOL     OW 4588   7.163   7.458   2.051 -0.1998  0.3823 -0.1658
 1337SOL    HW1 4589   7.248   7.440   2.011 -0.2411 -1.7803  0.6061
 1337SOL    HW2 4590   7.105   7.389   2.018 -0.3882 -1.1818  3.0067
 1338SOL     OW 4591   5.589   1.320   2.380 -0.5711 -0.2197  0.2154
 1338SOL    HW1 4592   5.643   1.373   2.438 -1.6692 -0.0808  1.1417
 1338SOL    HW2 4593   5.604   1.357   2.293  0.6367 -0.0518  0.4764
 1339SOL     OW 4594   3.412   6.164   9.311 -0.6152 -0.1309 -0.0150
 1339SOL    HW1 4595   3.321   6.192   9.314 -1.2608 -2.0629  0.1693
 1339SOL    HW2 4596   3.434   6.162   9.218 -0.8518  0.0984 -0.0759
 1340SOL     OW 4597   2.483   5.914   6.681 -0.1202  0.1939  0.0908
 1340SOL    HW1 4598   2.534   5.990   6.654 -0.4098  0.7690  1.1442
 1340SOL    HW2 4599   2.523   5.886   6.763 -0.6604 -0.1739  0.2326
 1341SOL     OW 4600   2.305   4.938   6.842  0.3595 -0.4128 -0.5175
 1341SOL    HW1 4601   2.390   4.929   6.800 -0.1296  1.4721 -2.0334
 1341SOL    HW2 4602   2.304   5.028   6.875 -0.6906 -0.7139  0.3209
 1342SOL     OW 4603   9.269   8.957   0.341  1.1013 -0.1534 -0.3025
 1342SOL    HW1 4604   9.182   8.922   0.319  0.2828  1.9995 -0.7825
 1342SOL    HW2 4605   9.267   8.970   0.435  0.7580  0.2069 -0.3564
 1343SOL     OW 4606   2.700   0.326   1.377  0.2537  0.5310  0.1382
 1343SOL    HW1 4607   2.743   0.254   1.331 -0.6654 -0.2771  0.5178
 1343SOL    HW2 4608   2.757   0.344   1.452  0.8815  0.7292 -0.3721
 1344SOL     OW 4609   5.580   8.290   3.553 -0.1723  0.1323 -0.3520
 1344SOL    HW1 4610   5.576   8.324   3.642  1.2144 -0.5172 -0.0219
 1344SOL    HW2 4611   5.609   8.199   3.562 -0.9233 -0.2307 -1.4066
 1345SOL     OW 4612   0.216   2.915   1.504 -0.6868  0.4059 -0.1533
 1345SOL    HW1 4613   0.144   2.977   1.517 -0.8930  0.0094  0.6864
 1345SOL    HW2 4614   0.278   2.961   1.448 -0.8843  1.3358  0.3813
 1346SOL     OW 4615   6.920   5.952   1.769  0.1434  1.0432 -0.1957
 1346SOL    HW1 4616   7.004   5.929   1.730 -0.0813  0.9214 -0.6070
 1346SOL    HW2 4617   6.936   5.948   1.864  0.4982  0.6459 -0.2693
 1347SOL     OW 4618   8.586   8.732   2.427 -0.2340  0.4116  0.0566
 1347SOL    HW1 4619   8.677   8.710   2.404 -0.8830 -1.4104 -0.9096
 1347SOL    HW2 4620   8.580   8.826   2.411  1.2334  0.4048 -0.7555
 1348SOL     OW 4621   5.283   9.592   5.507  0.0464  0.4045  0.3216
 1348SOL    HW1 4622   5.346   9.596   5.435 -0.2122  1.7681  0.1448
 1348SOL    HW2 4623   5.328   9.633   5.581  0.3947 -1.1856  1.0430
 1349SOL     OW 4624   4.845   1.759   6.054  0.2385 -0.4359 -0.0700
 1349SOL    HW1 4625   4.833   1.849   6.083  1.6846  0.3393 -1.7150
 1349SOL    HW2 4626   4.758   1.719   6.062 -1.0134  1.7943 -1.5327
 1350SOL     OW 4627   5.151   7.658   8.304 -0.1975 -0.0994  0.3394
 1350SOL    HW1 4628   5.120   7.649   8.214 -0.5264  0.0757  0.4318
 1350SOL    HW2 4629   5.235   7.613   8.305 -1.5296 -2.7776  0.6737
 1351SOL     OW 4630   1.150   8.232   8.033 -1.1973 -0.3238 -0.3797
 1351SOL    HW1 4631   1.184   8.240   8.122 -0.6802  1.6581 -0.7238
 1351SOL    HW2 4632   1.062   8.270   8.037 -0.0909  2.5877 -1.2682
 1352SOL     OW 4633   0.248   6.157   5.927 -0.4101  0.1578 -0.3720
 1352SOL    HW1 4634   0.269   6.248   5.949 -1.0290 -0.0555  1.2525
 1352SOL    HW2 4635   0.237   6.157   5.832 -0.9850  1.9206 -0.3480
 1353SOL     OW 4636   3.631   2.152   0.951  0.2356 -0.2121  0.5104
 1353SOL    HW1 4637   3.655   2.096   0.878 -0.4130 -1.2645  1.0707
 1353SOL    HW2 4638   3.595   2.231   0.911 -0.9911 -1.1545 -0.3373
 1354SOL     OW 4639   8.656   1.008   3.941 -0.1283 -0.6419  0.0500
 1354SOL    HW1 4640   8.626   0.974   3.856  2.0305  0.0062 -1.0406
 1354SOL    HW2 4641   8.749   1.026   3.928  0.3136 -0.6946  2.6398
 1355SOL     OW 4642   0.189   5.512   3.819 -0.2795  0.1156 -0.3517
 1355SOL    HW1 4643   0.217   5.577   3.754 -0.4785 -0.7980 -1.3768
 1355SOL    HW2 4644   0.100   5.540   3.843 -0.6245 -0.1257 -1.2885
 1356SOL     OW 4645   1.956   4.896   5.495 -0.1112  0.2463  0.3603
 1356SOL    HW1 4646   1.946   4.980   5.451  0.6880  0.4558  0.5594
 1356SOL    HW2 4647   1.916   4.833   5.435 -1.9845  0.9243  0.8472
 1357SOL     OW 4648   6.210   0.632   4.693  0.3331 -0.0676  0.0420
 1357SOL    HW1 4649   6.296   0.669   4.711  0.7016 -0.6204 -0.5296
 1357SOL    HW2 4650   6.192   0.574   4.767  1.2085 -1.2384 -0.6198
 1358SOL     OW 4651   3.978   5.094   6.953  0.1953  0.0495 -0.4675
 1358SOL    HW1 4652   3.889   5.101   6.920 -0.2355  0.5333  0.7298
 1358SOL    HW2 4653   3.976   5.020   7.013  0.4903  0.3050 -0.1350
 1359SOL     OW 4654   9.421   6.834   7.273 -0.3668 -0.1745 -0.0505
 1359SOL    HW1 4655   9.352   6.839   7.340  0.5846  1.1745  0.8688
 1359SOL    HW2 4656   9.399   6.903   7.211 -0.8776 -0.9967 -0.8231
 1360SOL     OW 4657   6.612   8.458   9.585  0.1881 -0.6708  0.0693
 1360SOL    HW1 4658   6.519   8.435   9.580 -0.4955  1.9845 -2.0366
 1360SOL    HW2 4659   6.652   8.408   9.514  0.4144 -1.8416  0.9974
 1361SOL     OW 4660   5.101   3.223   7.974 -0.2730  0.0794 -0.2430
 1361SOL    HW1 4661   5.182   3.274   7.974 -1.7048  2.7699  3.1865
 1361SOL    HW2 4662   5.037   3.280   7.932 -1.1754 -0.3689  0.4854
 1362SOL     OW 4663   6.656   8.608   0.580 -0.1897 -0.1470  0.0752
 1362SOL    HW1 4664   6.737   8.606   0.530  0.4808  0.6371  1.0674
 1362SOL    HW2 4665   6.604   8.535   0.547  0.4213  0.0562 -1.3917
 1363SOL     OW 4666   0.591   8.709   3.136 -0.3080  0.2672 -0.6695
 1363SOL    HW1 4667   0.550   8.697   3.050  1.3738  1.8003 -1.7683
 1363SOL    HW2 4668   0.625   8.798   3.134  0.3921  0.0984  1.3391
 1364SOL     OW 4669   8.269   7.597   8.319 -0.2006  0.1648 -0.0201
 1364SOL    HW1 4670   8.270   7.616   8.413  1.0480  1.1690 -0.2078
 1364SOL    HW2 4671   8.357   7.564   8.300 -0.4607 -0.1021 -0.8365
 1365SOL     OW 4672   1.949   9.867   3.264 -0.2580 -0.7218  0.0937
 1365SOL    HW1 4673   1.873   9.837   3.213  0.4056 -1.0654 -0.7219
 1365SOL    HW2 4674   1.987   9.938   3.212 -1.1963  0.8780  1.5060
 1366SOL     OW 4675   9.583   2.559   1.953 -0.3795  0.2590  0.1361
 1366SOL    HW1 4676   9.530   2.630   1.990 -0.0972  0.3651  0.3399
 1366SOL    HW2 4677   9.638   2.530   2.026 -0.0822  0.2234 -0.1011
 1367SOL     OW 4678   6.085   8.542   6.521  0.5896  0.0949 -0.5038
 1367SOL    HW1 4679   6.148   8.613   6.514  3.1194 -1.8824  0.7954
 1367SOL    HW2 4680   6.067   8.516   6.431  0.3828  1.6540 -0.9463
 1368SOL     OW 4681   3.066   6.168   7.221 -0.4304  0.5403  0.4967
 1368SOL    HW1 4682   3.135   6.233   7.211 -0.0635  0.5234  2.4619
 1368SOL    HW2 4683   2.986   6.219   7.232 -0.4793  0.5976 -0.1028
 1369SOL     OW 4684   8.082   6.454   2.448  0.1633  0.5257  0.1638
 1369SOL    HW1 4685   8.083   6.436   2.354  0.3720  0.6653  0.1370
 1369SOL    HW2 4686   8.021   6.391   2.485  1.7201 -1.0262  0.2269
 1370SOL     OW 4687   9.265   3.329   7.891 -0.1089  0.1788  0.1754
 1370SOL    HW1 4688   9.308   3.412   7.869 -0.1663 -0.0192 -0.7113
 1370SOL    HW2 4689   9.193   3.355   7.948  0.0753  0.7069  0.1788
 1371SOL     OW 4690   5.689   3.014   1.442  0.3822 -0.7186  0.3676
 1371SOL    HW1 4691   5.735   2.999   1.359 -0.1388  1.1523 -0.3426
 1371SOL    HW2 4692   5.618   2.950   1.442 -0.3703  0.0523 -1.2957
 1372SOL     OW 4693   9.166   2.492   9.606 -0.7930 -0.3675  0.0542
 1372SOL    HW1 4694   9.151   2.579   9.570 -1.4269 -0.0712  0.9990
 1372SOL    HW2 4695   9.139   2.498   9.697  0.6093 -1.1413  0.5673
 1373SOL     OW 4696   9.518   0.852   3.715  0.4815  0.3396 -0.2453
 1373SOL    HW1 4697   9.468   0.876   3.637 -0.7259 -1.1358  0.0106
 1373SOL    HW2 4698   9.468   0.889   3.788  1.4985  1.5427 -0.1268
 1374SOL     OW 4699   4.554   3.131   6.492  0.2280  0.2335  0.7209
 1374SOL    HW1 4700   4.628   3.120   6.432  0.1040  2.7506  0.0054
 1374SOL    HW2 4701   4.484   3.168   6.438 -0.0752  2.0571  2.2642
 1375SOL     OW 4702   5.198   7.657   2.044  0.6825  0.0636 -0.2926
 1375SOL    HW1 4703   5.206   7.750   2.025 -0.3218  0.6517  1.9351
 1375SOL    HW2 4704   5.249   7.643   2.123 -1.1965 -0.7170  0.8668
 1376SOL     OW 4705   7.526   3.217   7.602  0.0525 -0.3928 -0.1576
 1376SOL    HW1 4706   7.435   3.189   7.608 -0.5462  1.5455  0.5973
 1376SOL    HW2 4707   7.577   3.137   7.620 -1.4939 -1.3229  0.2832
 1377SOL     OW 4708   8.497   4.533   6.046  0.5375 -0.3436 -0.1189
 1377SOL    HW1 4709   8.489   4.627   6.027  6.1780  0.5749  0.3099
 1377SOL    HW2 4710   8.441   4.519   6.123 -2.1983  1.9987 -1.4872
 1378SOL     OW 4711   3.624   8.445   1.619  0.3440 -0.3769  0.7347
 1378SOL    HW1 4712   3.537   8.476   1.593  0.1637 -0.3453  1.3656
 1378SOL    HW2 4713   3.674   8.443   1.537  0.3159  1.4348  0.6166
 1379SOL     OW 4714   5.968   2.063   4.194  0.1842  0.3760 -0.3523
 1379SOL    HW1 4715   6.027   2.026   4.128 -0.3734  0.8345 -1.1265
 1379SOL    HW2 4716   6.023   2.125   4.242  0.5576  0.1645 -0.4998
 1380SOL     OW 4717   8.346   0.955   1.313 -0.1780 -0.6155  0.4506
 1380SOL    HW1 4718   8.430   0.913   1.294  0.5397  1.8150 -2.8573
 1380SOL    HW2 4719   8.366   1.017   1.383  0.6217 -0.6508  0.2736
 1381SOL     OW 4720   4.322   7.664   1.178  0.2525 -0.1297  0.0103
 1381SOL    HW1 4721   4.322   7.583   1.128 -0.3670  0.7081 -1.4167
 1381SOL    HW2 4722   4.414   7.679   1.201  0.4018 -1.0709  0.0451
 1382SOL     OW 4723   3.716   6.566   1.682  0.1527 -0.2853  0.0064
 1382SOL    HW1 4724   3.697   6.472   1.686  0.1215 -0.2849 -0.1097
 1382SOL    HW2 4725   3.801   6.576   1.724  0.0383 -0.3312  0.2491
 1383SOL     OW 4726   8.728   6.210   4.742 -0.2797  0.3035 -0.6790
 1383SOL    HW1 4727   8.639   6.208   4.778  0.1910  0.8708  0.6049
 1383SOL    HW2 4728   8.719   6.182   4.652 -1.4742 -1.6448 -0.0029
 1384SOL     OW 4729   6.608   3.104   1.879  1.0745  0.4093  0.5260
 1384SOL    HW1 4730   6.541   3.086   1.813  0.9486  0.4813  0.6351
 1384SOL    HW2 4731   6.559   3.122   1.959  1.2298  0.2116  0.6665
 1385SOL     OW 4732   9.928   8.463   5.799 -0.5310 -0.0341  0.0557
 1385SOL    HW1 4733   9.947   8.407   5.874  1.3044  1.6554  0.9520
 1385SOL    HW2 4734   9.928   8.552   5.835  1.7911  0.9662 -2.1157
 1386SOL     OW 4735   0.124   3.819   6.408 -0.2792  0.0853  0.2114
 1386SOL    HW1 4736   0.198   3.838   6.350 -0.6001  0.1383 -0.1846
 1386SOL    HW2 4737   0.068   3.761   6.356 -0.9616  0.7709  0.1703
 1387SOL     OW 4738   1.709   2.580   9.773 -0.2102  0.1261  0.2225
 1387SOL    HW1 4739   1.755   2.575   9.689  0.8134 -0.6022  0.8059
 1387SOL    HW2 4740   1.724   2.495   9.814 -1.2083  0.2513  0.8984
 1388SOL     OW 4741   2.234   3.969   1.461  0.5078 -0.2691  0.3680
 1388SOL    HW1 4742   2.279   4.051   1.480 -0.3768  0.6570 -1.3398
 1388SOL    HW2 4743   2.303   3.903   1.457  1.2341  0.3852  1.6537
 1389SOL     OW 4744   1.914   2.533   2.300  0.3521  0.6585  0.4209
 1389SOL    HW1 4745   1.941   2.613   2.345 -1.3916  1.2413  0.5258
 1389SOL    HW2 4746   1.915   2.466   2.367 -1.9327  1.4588  1.3767
 1390SOL     OW 4747   7.926   0.246   5.757 -0.0702  0.6100 -0.0542
 1390SOL    HW1 4748   7.996   0.306   5.730  1.9061 -2.1485 -1.6675
 1390SOL    HW2 4749   7.969   0.186   5.818 -2.0100  0.8623  1.6475
 1391SOL     OW 4750   3.503   1.444   3.634 -0.0334  0.3615 -0.3214
 1391SOL    HW1 4751   3.580   1.388   3.624 -0.8710 -0.4907 -2.4137
 1391SOL    HW2 4752   3.534   1.516   3.689  1.2019 -1.8801  2.2264
 1392SOL     OW 4753   5.457   5.345   8.874 -0.4641 -0.3816 -0.8143
 1392SOL    HW1 4754   5.453   5.437   8.899  0.6913 -0.8298  1.3205
 1392SOL    HW2 4755   5.491   5.301   8.952  0.5981 -2.3920 -2.3215
 1393SOL     OW 4756   3.517   2.739   4.216 -0.0779 -0.0634  0.5278
 1393SOL    HW1 4757   3.438   2.774   4.175 -0.0344 -0.7180 -0.1344
 1393SOL    HW2 4758   3.495   2.649   4.238  0.1130  0.0907  1.3907
 1394SOL     OW 4759   2.167   9.431   7.278 -0.3231  0.1460  0.3840
 1394SOL    HW1 4760   2.106   9.495   7.316 -0.3759  0.0852  0.4034
 1394SOL    HW2 4761   2.112   9.355   7.258 -0.3173  0.2264  0.0663
 1395SOL     OW 4762   9.990   8.671   0.070  0.3153 -0.3602 -0.2158
 1395SOL    HW1 4763   9.895   8.684   0.069  0.2785 -0.5877 -1.3413
 1395SOL    HW2 4764  10.022   8.733   0.135 -0.5429  0.1839 -0.2929
 1396SOL     OW 4765   9.191   1.224   8.294 -0.1204  0.2904 -0.2951
 1396SOL    HW1 4766   9.146   1.221   8.210 -0.3689  0.2542 -0.1640
 1396SOL    HW2 4767   9.241   1.142   8.298 -0.9468 -0.2097  0.0458
 1397SOL     OW 4768   9.199   1.418   1.535 -0.3201 -0.1916  0.4266
 1397SOL    HW1 4769   9.201   1.513   1.542 -1.1410 -0.1624  0.3872
 1397SOL    HW2 4770   9.275   1.396   1.481  2.4622  0.0782  3.8151
 1398SOL     OW 4771   5.150   2.187   5.298  0.4067 -0.2758  0.3323
 1398SOL    HW1 4772   5.184   2.258   5.244 -0.9988 -0.5344 -0.9537
 1398SOL    HW2 4773   5.121   2.121   5.236 -1.4427 -0.5062  1.3590
 1399SOL     OW 4774   4.785   8.223   9.961  0.0832 -0.0017 -0.2618
 1399SOL    HW1 4775   4.707   8.277   9.947  0.0428  0.1403  0.4598
 1399SOL    HW2 4776   4.842   8.243   9.887 -0.0376  0.8620 -0.1404
 1400SOL     OW 4777   3.768   3.989   7.796  0.5224  0.6661  0.3253
 1400SOL    HW1 4778   3.705   3.918   7.784  0.6130  0.7832 -0.9595
 1400SOL    HW2 4779   3.715   4.064   7.821  0.0920  0.8235 -0.9761
 1401SOL     OW 4780   7.793   9.943   7.643 -0.1763  0.1436 -0.3596
 1401SOL    HW1 4781   7.745   9.864   7.618 -0.8896  0.0628  1.1545
 1401SOL    HW2 4782   7.727  10.001   7.680  0.4704  1.1449 -0.7273
 1402SOL     OW 4783   0.317   8.128   9.219  0.2838  0.4281 -0.2658
 1402SOL    HW1 4784   0.368   8.126   9.138  0.1333  1.6837 -0.4093
 1402SOL    HW2 4785   0.373   8.172   9.282 -0.0864  0.5742 -0.0361
 1403SOL     OW 4786   8.354   9.651   7.859  0.2314 -0.6307 -0.0225
 1403SOL    HW1 4787   8.276   9.684   7.904 -0.2464 -1.8432  0.1002
 1403SOL    HW2 4788   8.387   9.582   7.917  1.5615  0.0466  0.0518
 1404SOL     OW 4789   6.624   0.505   0.874 -0.1277  0.8176  0.4508
 1404SOL    HW1 4790   6.672   0.580   0.911  0.0220  0.9911 -0.0796
 1404SOL    HW2 4791   6.539   0.542   0.849 -0.3558  0.6226  0.9392
 1405SOL     OW 4792   9.088   7.635   3.731  0.3062  0.1881  0.1852
 1405SOL    HW1 4793   9.153   7.644   3.662  1.1944 -1.2168  0.7880
 1405SOL    HW2 4794   9.007   7.669   3.693  1.1053  0.7829 -1.0223
 1406SOL     OW 4795   5.360   6.478   1.219 -0.1926  0.0212  0.3216
 1406SOL    HW1 4796   5.443   6.436   1.201  1.4641  3.7461 -2.0093
 1406SOL    HW2 4797   5.380   6.542   1.288 -1.9426 -1.0353  1.9005
 1407SOL     OW 4798   9.349   9.331   6.428  0.1348  0.7067  0.0436
 1407SOL    HW1 4799   9.412   9.272   6.470  1.3734  1.7289 -0.3125
 1407SOL    HW2 4800   9.278   9.274   6.401  0.2951 -0.3129  1.5916
 1408SOL     OW 4801   9.249   7.505   8.456 -0.3222 -0.2277 -0.2183
 1408SOL    HW1 4802   9.309   7.579   8.449 -2.3486  1.5837  0.2178
 1408SOL    HW2 4803   9.276   7.458   8.534  0.2565  0.7795  0.2016
 1409SOL     OW 4804   2.010   3.577   0.704 -0.4529 -0.0801 -0.0904
 1409SOL    HW1 4805   2.003   3.641   0.634 -0.1346 -0.6078 -0.6096
 1409SOL    HW2 4806   2.006   3.492   0.661 -1.1718 -0.4253  0.6227
 1410SOL     OW 4807   4.399   8.059   8.572 -0.0274 -0.2370  0.0402
 1410SOL    HW1 4808   4.428   8.016   8.651  1.1804  0.9945  0.3065
 1410SOL    HW2 4809   4.354   8.138   8.603 -1.7045 -0.9607 -0.4468
 1411SOL     OW 4810   2.493   9.136   3.419 -0.2762  0.3382  0.4797
 1411SOL    HW1 4811   2.412   9.118   3.372 -0.3687  0.0159  0.7648
 1411SOL    HW2 4812   2.526   9.216   3.378  0.9412 -1.2322 -1.8474
 1412SOL     OW 4813   9.550   5.131   4.693  0.5981  0.1972 -0.4170
 1412SOL    HW1 4814   9.560   5.046   4.652 -2.7555  0.3539 -1.9592
 1412SOL    HW2 4815   9.575   5.194   4.625 -1.5003  0.4118 -1.0625
 1413SOL     OW 4816   8.482   8.672   5.707  0.1313 -0.6233 -0.1399
 1413SOL    HW1 4817   8.465   8.580   5.724  0.3899 -0.5846  0.3257
 1413SOL    HW2 4818   8.442   8.688   5.621  0.0398 -1.1510 -0.1987
 1414SOL     OW 4819   3.028   5.444   6.101 -0.8468 -0.5531  0.0531
 1414SOL    HW1 4820   3.049   5.353   6.081  1.5558 -0.3436  1.3118
 1414SOL    HW2 4821   2.965   5.439   6.173 -1.5730 -1.1838 -0.6059
 1415SOL     OW 4822   3.561   3.699   5.220  0.4527 -0.4228  0.0884
 1415SOL    HW1 4823   3.595   3.631   5.161 -1.0086 -0.6674 -0.5199
 1415SOL    HW2 4824   3.494   3.655   5.272  0.0349  0.3637  0.2320
 1416SOL     OW 4825   2.364   6.965   9.959  0.3767 -0.2786  0.3002
 1416SOL    HW1 4826   2.287   6.912   9.942  1.8773 -2.2131 -0.8290
 1416SOL    HW2 4827   2.422   6.908  10.010  1.4998  0.7343  0.2047
 1417SOL     OW 4828   8.066   9.764   6.065 -0.4538 -0.1459 -0.2824
 1417SOL    HW1 4829   8.130   9.816   6.114 -1.3372 -0.2263  0.9927
 1417SOL    HW2 4830   8.043   9.692   6.124 -1.1346 -0.5695 -1.0367
 1418SOL     OW 4831   9.058   5.279   6.563 -0.1498 -0.2701 -0.3087
 1418SOL    HW1 4832   8.965   5.289   6.543  0.0853 -1.0316 -1.8856
 1418SOL    HW2 4833   9.081   5.361   6.608 -1.6496 -0.2306  0.4670
 1419SOL     OW 4834   2.719   2.212   0.413 -0.1430 -0.1429  0.0612
 1419SOL    HW1 4835   2.763   2.293   0.440  0.5387 -0.6172  0.4256
 1419SOL    HW2 4836   2.626   2.234   0.408  0.0293  0.6305  0.2545
 1420SOL     OW 4837   5.186   6.114   1.531  0.2464 -0.0605 -0.0356
 1420SOL    HW1 4838   5.186   6.177   1.459 -1.1290 -0.4676 -0.4190
 1420SOL    HW2 4839   5.105   6.065   1.520 -0.2450  0.2006  2.0987
 1421SOL     OW 4840   4.472   3.823   2.727 -0.6844 -0.1934  0.1530
 1421SOL    HW1 4841   4.539   3.882   2.693 -2.2483  0.6053 -1.7274
 1421SOL    HW2 4842   4.392   3.849   2.681 -1.3064 -4.4025 -1.5639
 1422SOL     OW 4843   1.084   6.093   1.686  0.1777  0.3495 -0.3822
 1422SOL    HW1 4844   1.122   6.074   1.772  0.5429  1.7057 -0.2318
 1422SOL    HW2 4845   1.090   6.010   1.639  0.6348 -0.2213  0.6492
 1423SOL     OW 4846   1.068   9.663   1.553  0.2684 -0.2906 -0.3127
 1423SOL    HW1 4847   1.085   9.623   1.639  3.2470  0.1485 -0.5993
 1423SOL    HW2 4848   1.042   9.590   1.498  1.1755 -1.1021  0.2914
 1424SOL     OW 4849   3.179   3.613   8.127  0.3104 -0.3766  0.0016
 1424SOL    HW1 4850   3.149   3.540   8.074 -0.2066  0.8645 -1.4979
 1424SOL    HW2 4851   3.105   3.674   8.128  1.1726  0.7040  0.1251
 1425SOL     OW 4852   4.416   0.916   3.972 -0.0514  0.2029 -0.0198
 1425SOL    HW1 4853   4.397   0.826   3.945  0.2089  0.3009 -0.5631
 1425SOL    HW2 4854   4.361   0.970   3.915 -0.8153  0.3667  0.8567
 1426SOL     OW 4855   7.986   8.078   4.576  0.2541 -0.2972 -0.0101
 1426SOL    HW1 4856   8.079   8.101   4.587  0.3975 -0.2633 -1.2348
 1426SOL    HW2 4857   7.942   8.162   4.563 -0.1516 -0.1946  1.7059
 1427SOL     OW 4858   3.488   8.797   1.958  0.0213 -0.2803 -0.0401
 1427SOL    HW1 4859   3.556   8.812   1.893 -0.4101  0.7526 -0.2679
 1427SOL    HW2 4860   3.503   8.707   1.988  0.8010 -0.4434 -0.8781
 1428SOL     OW 4861   3.377   1.578   1.175 -0.4439 -0.2314  0.1501
 1428SOL    HW1 4862   3.418   1.607   1.257 -0.7100 -1.2932  0.6684
 1428SOL    HW2 4863   3.284   1.573   1.195 -0.6471  0.5340 -0.5394
 1429SOL     OW 4864   2.382   1.154   1.377  0.0494 -0.3180 -0.2614
 1429SOL    HW1 4865   2.390   1.118   1.465  1.0395  0.2749 -0.1037
 1429SOL    HW2 4866   2.306   1.109   1.340 -0.6831 -0.2206  1.0599
 1430SOL     OW 4867   6.263   6.175   4.885 -0.3062  0.4676  0.5399
 1430SOL    HW1 4868   6.243   6.215   4.969  0.1440  2.5977 -0.3048
 1430SOL    HW2 4869   6.221   6.231   4.820  0.9363 -0.0083 -0.7510
 1431SOL     OW 4870   3.184   4.081   5.803  0.2213  0.5720 -0.0200
 1431SOL    HW1 4871   3.268   4.121   5.826 -0.2285  2.2108 -1.0571
 1431SOL    HW2 4872   3.202   4.031   5.724  0.0515  1.8137 -0.8867
 1432SOL     OW 4873   0.964   5.680   7.223  0.1851  0.4111  0.3926
 1432SOL    HW1 4874   0.880   5.638   7.239  0.4011  0.0330  0.5382
 1432SOL    HW2 4875   0.957   5.715   7.134  0.6852 -1.6238 -0.4998
 1433SOL     OW 4876   4.198   7.253   4.325 -0.0577  0.0145 -0.0440
 1433SOL    HW1 4877   4.238   7.325   4.373 -0.3944  1.4287 -1.7702
 1433SOL    HW2 4878   4.159   7.294   4.248  1.3060 -2.2059 -2.0645
 1434SOL     OW 4879   7.772   1.945   6.293 -0.0779  0.4084 -0.0803
 1434SOL    HW1 4880   7.801   1.984   6.210 -1.8454 -0.3745 -1.1258
 1434SOL    HW2 4881   7.818   1.861   6.297 -0.6372  0.0538 -0.7416
 1435SOL     OW 4882   8.635   9.219   3.769 -0.6048  0.1564  0.2232
 1435SOL    HW1 4883   8.614   9.308   3.740  1.2255  0.3609 -0.6638
 1435SOL    HW2 4884   8.616   9.164   3.693 -0.8785 -0.0828  0.4635
 1436SOL     OW 4885   8.178   9.188   0.134 -0.3539  0.2055 -0.0363
 1436SOL    HW1 4886   8.266   9.183   0.171 -1.1558 -1.8045  1.8424
 1436SOL    HW2 4887   8.120   9.187   0.210 -2.0368  0.3953 -1.2506
 1437SOL     OW 4888   1.709   0.607   6.099  0.5853 -0.0293  0.8494
 1437SOL    HW1 4889   1.625   0.599   6.144  0.3291  0.2609  0.4326
 1437SOL    HW2 4890   1.768   0.644   6.165  0.0434  1.0275  0.7570
 1438SOL     OW 4891   8.317   2.197   0.078  0.1759  0.1404 -0.0029
 1438SOL    HW1 4892   8.273   2.268   0.125  0.1982  0.3036 -0.2288
 1438SOL    HW2 4893   8.264   2.185  -0.001 -1.2538 -1.7093  1.1511
 1439SOL     OW 4894   5.393   4.227   1.474  0.4309 -0.3254  0.3577
 1439SOL    HW1 4895   5.373   4.290   1.405  1.0455  0.8536  1.2049
 1439SOL    HW2 4896   5.362   4.269   1.555 -0.8334 -1.9422  0.7595
 1440SOL     OW 4897   6.439   5.018   4.743  0.1932 -0.2687  0.4301
 1440SOL    HW1 4898   6.438   4.970   4.826  0.5490 -0.2488  0.4497
 1440SOL    HW2 4899   6.365   4.983   4.693  1.0641 -1.5889  0.0200
 1441SOL     OW 4900   8.046   1.658   1.152  0.2946  0.0097 -0.3703
 1441SOL    HW1 4901   8.028   1.647   1.059  1.5777 -2.1646 -0.4225
 1441SOL    HW2 4902   7.959   1.659   1.193 -0.2392 -1.6186 -1.3696
 1442SOL     OW 4903   3.253   4.554   0.680 -0.2163 -0.1827  0.0094
 1442SOL    HW1 4904   3.241   4.583   0.590 -0.6941  0.0336  0.1382
 1442SOL    HW2 4905   3.185   4.601   0.730 -0.4019 -0.8140  0.3683
 1443SOL     OW 4906   7.391   8.671   2.273 -0.1029 -0.1580  0.2197
 1443SOL    HW1 4907   7.386   8.598   2.335 -1.2476 -0.2000  0.1076
 1443SOL    HW2 4908   7.349   8.744   2.318 -0.3330  0.0003 -0.2399
 1444SOL     OW 4909   5.756   3.752   7.350  0.7895  0.2805 -0.4163
 1444SOL    HW1 4910   5.763   3.694   7.425 -0.9493  0.7491  0.1545
 1444SOL    HW2 4911   5.669   3.735   7.315  1.1859  0.8159 -1.7112
 1445SOL     OW 4912   3.893   0.791   9.535 -0.0922  0.2393 -0.5756
 1445SOL    HW1 4913   3.934   0.756   9.614  2.2004  0.8071 -1.4476
 1445SOL    HW2 4914   3.841   0.865   9.566 -0.0732 -0.1855  0.5240
 1446SOL     OW 4915   0.627   8.848   6.460  0.2294 -0.2327  0.4051
 1446SOL    HW1 4916   0.680   8.922   6.428  1.0233 -0.5518  0.9447
 1446SOL    HW2 4917   0.575   8.886   6.531  0.4315 -0.1236  0.4974
 1447SOL     OW 4918   1.370   0.417   2.275 -0.2292  0.3077  0.3110
 1447SOL    HW1 4919   1.306   0.403   2.205  0.9591  0.9664 -0.9391
 1447SOL    HW2 4920   1.357   0.342   2.334 -2.6209  0.7829  0.5010
 1448SOL     OW 4921   1.069   9.202   0.516  0.5952 -0.3312  0.3260
 1448SOL    HW1 4922   1.052   9.109   0.501  2.0965 -1.0884  2.7484
 1448SOL    HW2 4923   1.080   9.210   0.611  2.0532  2.0239  0.0611
 1449SOL     OW 4924   5.735   5.274   4.507 -0.0572 -0.5313 -0.3025
 1449SOL    HW1 4925   5.688   5.349   4.543 -0.7833 -0.1871 -1.8784
 1449SOL    HW2 4926   5.808   5.260   4.568 -0.1832  1.1423  0.2908
 1450SOL     OW 4927   1.821   5.440   4.784  0.6129 -0.0890 -0.4562
 1450SOL    HW1 4928   1.783   5.353   4.795 -0.1167  0.3977  1.2665
 1450SOL    HW2 4929   1.863   5.437   4.698 -1.0955 -1.4987 -1.3267
 1451SOL     OW 4930   2.085   5.390   1.999 -0.3552  0.1675  0.0922
 1451SOL    HW1 4931   2.079   5.325   2.069  0.4829 -0.2379 -0.2016
 1451SOL    HW2 4932   2.076   5.474   2.044  1.2680 -0.0226  0.8803
 1452SOL     OW 4933   3.080   8.086   7.087  0.4338  0.5939 -0.0388
 1452SOL    HW1 4934   3.144   8.020   7.111 -1.2141 -1.2933 -0.5436
 1452SOL    HW2 4935   3.117   8.130   7.010  0.5222 -1.5204 -1.2954
 1453SOL     OW 4936   5.294   7.546   0.961 -0.1240 -0.6570  0.0515
 1453SOL    HW1 4937   5.302   7.537   0.866 -0.1522 -2.0684  0.1572
 1453SOL    HW2 4938   5.200   7.558   0.976 -0.3722 -2.3809  0.0114
 1454SOL     OW 4939   2.381   5.623   6.580  0.2123  0.2531 -0.5420
 1454SOL    HW1 4940   2.351   5.543   6.537  0.3603 -1.1472  1.8041
 1454SOL    HW2 4941   2.468   5.637   6.543  0.4822 -1.0932 -0.4914
 1455SOL     OW 4942   2.077   0.502   8.820 -0.0208  0.2349 -0.3605
 1455SOL    HW1 4943   2.008   0.561   8.849 -0.1949 -0.7815  1.4220
 1455SOL    HW2 4944   2.154   0.558   8.811 -1.4018  1.8742 -4.6367
 1456SOL     OW 4945   6.856   9.720   5.402  0.3786 -0.4284 -0.8299
 1456SOL    HW1 4946   6.883   9.698   5.313 -0.5247  0.4990 -1.3578
 1456SOL    HW2 4947   6.775   9.671   5.416  0.5092 -0.5603 -0.5148
 1457SOL     OW 4948   6.874   2.339   5.409 -0.2509  0.0448 -0.1524
 1457SOL    HW1 4949   6.910   2.259   5.447  0.5287  0.1626 -0.5950
 1457SOL    HW2 4950   6.796   2.358   5.460  0.7442  0.2052  1.3899
 1458SOL     OW 4951   5.479   1.315   2.638 -0.5725 -0.2991 -0.0778
 1458SOL    HW1 4952   5.493   1.302   2.544 -1.0084 -0.6204 -0.1002
 1458SOL    HW2 4953   5.451   1.229   2.670  0.0487 -0.3172  0.4368
 1459SOL     OW 4954   8.705   0.704   0.749  0.1581 -0.3226 -0.1845
 1459SOL    HW1 4955   8.748   0.620   0.733  0.0292 -0.3442 -0.4295
 1459SOL    HW2 4956   8.673   0.731   0.663 -0.1437 -0.2124 -0.0398
 1460SOL     OW 4957   4.198   8.551   7.760  0.0397  0.5505  0.4452
 1460SOL    HW1 4958   4.271   8.560   7.698 -0.0636  1.7777  0.4753
 1460SOL    HW2 4959   4.231   8.492   7.828  1.1311  1.3241  0.6168
 1461SOL     OW 4960   1.618   5.006   3.579  0.1708 -0.0373  0.0449
 1461SOL    HW1 4961   1.664   5.062   3.642  0.5767 -0.3518  0.0369
 1461SOL    HW2 4962   1.686   4.980   3.517 -0.4738  1.3160 -1.2908
 1462SOL     OW 4963   0.130   4.825   5.514  0.5237 -0.0688 -0.0838
 1462SOL    HW1 4964   0.136   4.912   5.553  0.4979  0.6126 -1.5139
 1462SOL    HW2 4965   0.070   4.836   5.440  0.0534 -1.4442  0.0719
 1463SOL     OW 4966   8.556   7.155   1.183 -0.0525  0.0118 -0.0838
 1463SOL    HW1 4967   8.525   7.241   1.213  1.3672  0.4215  0.2853
 1463SOL    HW2 4968   8.611   7.124   1.255 -0.8414 -1.3926 -0.0581
 1464SOL     OW 4969   4.064   4.692   6.288  0.1203  0.2030  0.0273
 1464SOL    HW1 4970   4.127   4.679   6.217  1.2253  1.4762  0.7253
 1464SOL    HW2 4971   4.115   4.678   6.368 -0.7498  0.2093  0.5986
 1465SOL     OW 4972   3.099   9.163   6.883 -0.4979 -0.0246  0.0970
 1465SOL    HW1 4973   3.148   9.243   6.863 -0.9496  0.3846  0.6078
 1465SOL    HW2 4974   3.140   9.131   6.964 -1.0431  0.2978  0.5046
 1466SOL     OW 4975   1.272   0.660   0.253 -0.6509  0.3182  0.1235
 1466SOL    HW1 4976   1.185   0.645   0.217 -0.9665  1.6187  0.2899
 1466SOL    HW2 4977   1.260   0.731   0.317  0.7332  1.4275 -0.7842
 1467SOL     OW 4978   8.566   7.603   5.982  0.3449 -0.6688  0.3153
 1467SOL    HW1 4979   8.509   7.588   5.906  0.7376 -0.5312 -0.0139
 1467SOL    HW2 4980   8.509   7.591   6.058 -0.1287 -0.5021 -0.0072
 1468SOL     OW 4981   6.229   4.559   0.676 -0.4603 -0.2233 -0.3272
 1468SOL    HW1 4982   6.171   4.483   0.664 -1.5559  0.7837 -1.7981
 1468SOL    HW2 4983   6.183   4.614   0.740 -0.7633  0.1981 -0.8940
 1469SOL     OW 4984   2.474   2.190   3.190 -0.0214 -0.2416  0.4859
 1469SOL    HW1 4985   2.442   2.244   3.118  0.2588  1.2100  1.4301
 1469SOL    HW2 4986   2.536   2.129   3.148 -0.3496  0.1404 -0.5859
 1470SOL     OW 4987   7.355   3.220   1.141 -0.2027  0.1775  0.2472
 1470SOL    HW1 4988   7.344   3.258   1.229 -1.3645  0.6525 -0.0762
 1470SOL    HW2 4989   7.266   3.194   1.116  0.6292 -3.8224  0.8777
 1471SOL     OW 4990   8.930   7.033   3.391  0.1179 -0.1009 -0.0908
 1471SOL    HW1 4991   8.876   7.112   3.403  0.3554 -0.0505  0.6952
 1471SOL    HW2 4992   8.873   6.973   3.344 -0.5821  0.0140  0.5802
 1472SOL     OW 4993   3.751   3.037   9.797 -0.4651 -0.5111  1.0643
 1472SOL    HW1 4994   3.801   3.086   9.862  0.8165 -0.4557  0.0665
 1472SOL    HW2 4995   3.810   2.969   9.766 -1.3212 -1.0223  0.5043
 1473SOL     OW 4996   5.779   4.439   1.952 -0.3255  0.1960  0.0113
 1473SOL    HW1 4997   5.767   4.461   1.859 -3.5438  2.2239  0.7488
 1473SOL    HW2 4998   5.735   4.355   1.963  0.9389 -0.5480 -0.4359
 1474SOL     OW 4999   6.853   1.598   9.007  0.0696 -0.2071 -0.1839
 1474SOL    HW1 5000   6.924   1.595   8.942  0.8589 -1.6375  0.6807
 1474SOL    HW2 5001   6.898   1.615   9.090 -0.8055  0.5894  0.1331
 1475SOL     OW 5002   9.566   6.776   0.538  0.5690 -0.0166 -0.0434
 1475SOL    HW1 5003   9.557   6.714   0.610 -0.2834  1.0917  0.8506
 1475SOL    HW2 5004   9.528   6.731   0.462 -0.0218 -0.5949  0.5857
 1476SOL     OW 5005   3.759   7.454   9.420  0.0681 -0.3612  0.7192
 1476SOL    HW1 5006   3.668   7.450   9.451 -0.0691 -0.9768  0.2458
 1476SOL    HW2 5007   3.763   7.390   9.349  0.5546  0.5624 -0.1056
 1477SOL     OW 5008   7.642   7.637   1.220  0.3985  0.0031 -0.3210
 1477SOL    HW1 5009   7.732   7.652   1.250  1.1922  0.9352 -2.8963
 1477SOL    HW2 5010   7.596   7.718   1.244  0.1889 -0.4912  1.0402
 1478SOL     OW 5011   2.917   2.809   3.198 -0.2861  0.1225  0.3674
 1478SOL    HW1 5012   2.994   2.753   3.188 -0.9754 -0.9241  0.8834
 1478SOL    HW2 5013   2.866   2.769   3.268 -3.6592 -1.9982 -2.9285
 1479SOL     OW 5014   0.866   4.518   8.800  0.0523  0.4873 -0.4068
 1479SOL    HW1 5015   0.876   4.559   8.886  1.0214 -1.7182  0.6110
 1479SOL    HW2 5016   0.949   4.533   8.756  0.6664 -0.8231  0.2287
 1480SOL     OW 5017   5.572   8.989   2.779  0.4254  0.4511  0.0080
 1480SOL    HW1 5018   5.535   9.047   2.846  1.4915  1.1448  0.0251
 1480SOL    HW2 5019   5.600   9.049   2.709  0.4559 -0.1622 -0.5109
 1481SOL     OW 5020   8.163   5.413   3.466 -0.0593 -0.0996  0.2282
 1481SOL    HW1 5021   8.239   5.378   3.512 -0.0699 -0.3648  0.0455
 1481SOL    HW2 5022   8.105   5.338   3.453  0.6188 -0.3751 -1.5658
 1482SOL     OW 5023   8.750   4.633   6.367  0.3110 -0.0373  0.2976
 1482SOL    HW1 5024   8.724   4.654   6.277 -0.1807 -2.3208 -0.1460
 1482SOL    HW2 5025   8.846   4.638   6.366  0.2491  1.6762  0.1475
 1483SOL     OW 5026   1.763   8.711   3.682  0.1622  0.0999  0.3252
 1483SOL    HW1 5027   1.710   8.632   3.669  1.1837 -0.2803 -2.2017
 1483SOL    HW2 5028   1.700   8.779   3.705 -0.9968 -0.9937  0.5067
 1484SOL     OW 5029   3.005   3.135   3.998 -0.0963  0.2841  0.5630
 1484SOL    HW1 5030   3.031   3.057   4.047 -1.1054  0.0311  0.7012
 1484SOL    HW2 5031   2.997   3.203   4.064 -0.0328  0.3002  0.5539
 1485SOL     OW 5032   9.666   1.063   4.888  0.0115  0.0614 -0.4098
 1485SOL    HW1 5033   9.621   1.145   4.868 -0.1050 -0.4998 -2.6769
 1485SOL    HW2 5034   9.610   0.995   4.851  0.8022 -0.9424  0.1890
 1486SOL     OW 5035   0.040   8.104   0.730  0.1748  0.0654  0.5351
 1486SOL    HW1 5036   0.110   8.066   0.676  0.7389  0.8056  0.7317
 1486SOL    HW2 5037   0.072   8.191   0.753 -1.0677  0.6396  0.1611
 1487SOL     OW 5038   9.917   9.611   7.620 -0.2874  0.0320  0.6999
 1487SOL    HW1 5039   9.892   9.673   7.551  0.7103 -2.0466 -1.7136
 1487SOL    HW2 5040   9.855   9.628   7.691 -1.8050  1.8986 -0.9284
 1488SOL     OW 5041   1.884   2.318   9.132 -0.3124  0.0822 -0.0058
 1488SOL    HW1 5042   1.818   2.338   9.065 -0.6015  0.4193  0.3796
 1488SOL    HW2 5043   1.836   2.269   9.199 -0.9454  2.9197  1.7794
 1489SOL     OW 5044   5.673   1.758   1.659  0.7116 -0.0937  0.2285
 1489SOL    HW1 5045   5.683   1.664   1.673  0.0542  0.0340  1.7088
 1489SOL    HW2 5046   5.720   1.799   1.732 -2.3067  0.6325  1.9422
 1490SOL     OW 5047   2.779   9.573   0.633  0.1002  0.9210  0.0602
 1490SOL    HW1 5048   2.696   9.594   0.590  0.4107 -1.3604 -1.8930
 1490SOL    HW2 5049   2.779   9.625   0.713 -2.5844  2.0139 -0.5513
 1491SOL     OW 5050   9.881   6.522   8.484 -0.1164  0.2118  0.0059
 1491SOL    HW1 5051   9.866   6.541   8.576 -1.5231 -1.6125  0.2177
 1491SOL    HW2 5052   9.937   6.444   8.484  0.3594  0.5417 -0.6871
 1492SOL     OW 5053   6.444   1.449   3.947  0.1752 -0.0042  0.1480
 1492SOL    HW1 5054   6.382   1.398   3.999 -0.6010  0.1729 -0.5788
 1492SOL    HW2 5055   6.414   1.539   3.955  0.1999  0.0546 -0.3981
 1493SOL     OW 5056   5.494   9.594   5.351  0.2802  0.4634 -0.2012
 1493SOL    HW1 5057   5.540   9.524   5.305  0.4775  0.8092 -0.5333
 1493SOL    HW2 5058   5.556   9.624   5.417  0.9837  1.7165 -1.4092
 1494SOL     OW 5059   9.565   9.964   5.877 -0.8637  0.3075 -0.5443
 1494SOL    HW1 5060   9.578   9.932   5.967 -2.4135  0.2441 -0.3095
 1494SOL    HW2 5061   9.640  10.022   5.861  1.1049 -2.0316 -0.3594
 1495SOL     OW 5062   3.724   0.998   4.073  0.1034 -0.0616  0.4008
 1495SOL    HW1 5063   3.788   0.998   4.144  0.7928 -1.1023 -0.2060
 1495SOL    HW2 5064   3.644   0.965   4.114  0.3712 -0.2054  0.8121
 1496SOL     OW 5065   8.649   9.445   4.115  0.0490  0.2201  0.1103
 1496SOL    HW1 5066   8.726   9.410   4.069  1.4199  2.6641  0.3694
 1496SOL    HW2 5067   8.670   9.436   4.208  0.0184  0.8074  0.1826
 1497SOL     OW 5068   4.133   9.770   9.600  0.1489 -0.3294  0.1074
 1497SOL    HW1 5069   4.214   9.718   9.602 -0.5794 -1.4886  1.0731
 1497SOL    HW2 5070   4.108   9.772   9.508  1.0452 -0.3254 -0.1455
 1498SOL     OW 5071   5.199   6.469   4.931 -0.4068  0.3796 -0.4293
 1498SOL    HW1 5072   5.178   6.382   4.898 -0.9282 -0.1824  1.2684
 1498SOL    HW2 5073   5.116   6.502   4.966 -0.2197  1.5783 -1.0641
 1499SOL     OW 5074   3.970   8.134   9.690 -0.6204 -0.3693  0.3318
 1499SOL    HW1 5075   3.973   8.212   9.635  1.4450 -1.1304 -0.7053
 1499SOL    HW2 5076   3.932   8.066   9.634  0.5608 -0.8975  0.1555
 1500SOL     OW 5077   6.222   3.711   7.153  0.2234 -0.7997  0.1837
 1500SOL    HW1 5078   6.174   3.661   7.219 -2.4566 -0.5913 -1.4399
 1500SOL    HW2 5079   6.221   3.655   7.075  0.7669  0.1180 -0.5055
 1501SOL     OW 5080   9.025   3.621   5.060  0.1650 -0.8589  0.3449
 1501SOL    HW1 5081   9.045   3.700   5.110  0.2843 -0.1491 -0.7865
 1501SOL    HW2 5082   8.989   3.560   5.124 -0.0008  0.1426  1.2262
 1502SOL     OW 5083   1.720   5.182   0.043 -0.2293 -0.8823 -0.2796
 1502SOL    HW1 5084   1.626   5.165   0.036 -0.2504 -1.2577  0.6662
 1502SOL    HW2 5085   1.739   5.244  -0.027 -1.4102  0.0892  0.2305
 1503SOL     OW 5086   5.925   4.246   6.252  0.3954  0.4830 -0.1995
 1503SOL    HW1 5087   5.888   4.186   6.187  2.6662  0.6122 -1.7339
 1503SOL    HW2 5088   5.953   4.190   6.324  0.3990 -0.0232 -0.5906
 1504SOL     OW 5089   5.676   2.914   8.752 -0.1625 -0.4166  0.2901
 1504SOL    HW1 5090   5.671   2.938   8.659  0.2602 -1.6305 -0.0665
 1504SOL    HW2 5091   5.741   2.975   8.788  0.0088 -0.2260 -0.3146
 1505SOL     OW 5092   7.706   4.155   7.363 -0.2993  0.0054  0.0574
 1505SOL    HW1 5093   7.797   4.183   7.363 -0.0411 -0.7995  0.8173
 1505SOL    HW2 5094   7.696   4.103   7.443 -1.4224  0.0733 -0.0110
 1506SOL     OW 5095   8.577   3.298   8.665 -0.0530 -0.3222 -0.1199
 1506SOL    HW1 5096   8.648   3.291   8.729  0.2177  0.9271 -0.2678
 1506SOL    HW2 5097   8.619   3.331   8.586 -0.6978 -0.1603 -0.3964
 1507SOL     OW 5098   2.674   3.586   5.768 -0.2111 -0.2637  0.4168
 1507SOL    HW1 5099   2.691   3.532   5.691  1.5655  1.7083 -0.6573
 1507SOL    HW2 5100   2.585   3.562   5.794 -0.6259 -1.4697 -1.8268
 1508SOL     OW 5101   2.513   3.108   1.165 -0.7351 -0.2455  0.1172
 1508SOL    HW1 5102   2.498   3.136   1.074 -1.0065  0.3387  0.3418
 1508SOL    HW2 5103   2.608   3.116   1.177 -0.5738 -1.1466 -0.3765
 1509SOL     OW 5104   6.087   8.388   1.425  0.3816 -0.2777  0.5111
 1509SOL    HW1 5105   6.131   8.311   1.389 -0.3282 -1.1463  1.4416
 1509SOL    HW2 5106   5.995   8.374   1.406 -0.0038 -0.7117  2.4967
 1510SOL     OW 5107   0.441   0.685   5.550  0.1194 -0.4834  0.0436
 1510SOL    HW1 5108   0.481   0.739   5.482  1.6901 -2.9733 -1.1499
 1510SOL    HW2 5109   0.374   0.634   5.504 -0.2758 -0.6552  0.7945
 1511SOL     OW 5110   3.062   9.690   4.318  0.0895  0.2918 -0.6991
 1511SOL    HW1 5111   3.020   9.620   4.269 -0.2632 -1.6562  2.1197
 1511SOL    HW2 5112   2.997   9.715   4.384  1.7330  0.2524  1.0103
 1512SOL     OW 5113   9.177   3.497   7.490  0.2338 -0.0893  0.0642
 1512SOL    HW1 5114   9.166   3.456   7.404  0.0777 -0.2207  0.1467
 1512SOL    HW2 5115   9.203   3.425   7.548  0.5941  0.0455  0.0752
 1513SOL     OW 5116   0.360   4.018   2.012  0.0919 -0.2659  0.4066
 1513SOL    HW1 5117   0.425   4.066   2.065  0.3471 -0.8023  0.5857
 1513SOL    HW2 5118   0.327   3.950   2.071 -2.2316  1.2954  1.0609
 1514SOL     OW 5119   7.527   2.366   5.731  0.1828 -0.3743 -0.3352
 1514SOL    HW1 5120   7.532   2.281   5.688 -2.5219 -1.0249  0.4748
 1514SOL    HW2 5121   7.475   2.421   5.672  0.7842  0.3345 -0.2304
 1515SOL     OW 5122   5.493   1.710   3.079 -0.3087  0.7383  0.3041
 1515SOL    HW1 5123   5.557   1.746   3.018  1.5055  0.1000  1.7378
 1515SOL    HW2 5124   5.501   1.615   3.069 -0.7136  0.6442  0.8054
 1516SOL     OW 5125   2.786   7.238   6.167  0.6711 -0.4184 -0.9500
 1516SOL    HW1 5126   2.719   7.174   6.143 -0.3714  0.6323 -0.9383
 1516SOL    HW2 5127   2.755   7.276   6.249  0.3095  1.3771 -1.8556
 1517SOL     OW 5128   7.547   7.744   3.300  0.3622  0.5094 -0.0044
 1517SOL    HW1 5129   7.485   7.817   3.305  0.8531  0.9147  0.2277
 1517SOL    HW2 5130   7.498   7.669   3.335  0.1758  0.9516  0.7145
 1518SOL     OW 5131   1.322   3.638   5.964 -0.0057  0.6411  0.0243
 1518SOL    HW1 5132   1.408   3.676   5.949 -1.4575  4.1287 -0.4987
 1518SOL    HW2 5133   1.280   3.638   5.878 -1.2262  1.0073  0.5989
 1519SOL     OW 5134   8.726   4.791   6.122  0.1772 -0.2916 -0.1964
 1519SOL    HW1 5135   8.631   4.788   6.110  0.2421  0.0362 -0.8855
 1519SOL    HW2 5136   8.761   4.780   6.033  0.7921 -0.8196  0.1088
 1520SOL     OW 5137   9.132   5.343   8.347 -0.2526  0.0035  0.2498
 1520SOL    HW1 5138   9.108   5.436   8.345 -1.1504 -0.2365 -0.5452
 1520SOL    HW2 5139   9.182   5.329   8.267 -0.5672 -0.3164  0.1076
 1521SOL     OW 5140   3.094   4.576   9.099  0.2987 -0.3096  0.4951
 1521SOL    HW1 5141   3.160   4.514   9.066  0.0839 -0.0739 -0.3981
 1521SOL    HW2 5142   3.146   4.647   9.137  0.6183  0.4174 -1.1971
 1522SOL     OW 5143   9.401   2.629   9.008 -0.0454 -0.6806 -0.2871
 1522SOL    HW1 5144   9.426   2.537   9.003 -1.2626 -1.1120  1.0498
 1522SOL    HW2 5145   9.323   2.630   9.063  1.7911  1.4957  2.5416
 1523SOL     OW 5146   4.208   9.886   1.156 -0.5058  0.6215 -0.2017
 1523SOL    HW1 5147   4.131   9.928   1.118  0.3423  2.7078  0.1973
 1523SOL    HW2 5148   4.236   9.947   1.225  1.4348 -0.0994 -0.2888
 1524SOL     OW 5149   4.396   1.721   1.369 -0.5449 -0.7193 -0.3877
 1524SOL    HW1 5150   4.447   1.654   1.415 -1.2318 -0.9825  0.0082
 1524SOL    HW2 5151   4.314   1.677   1.348 -0.8936 -0.0772 -0.3673
 1525SOL     OW 5152   2.054   5.591   5.948 -0.0786  0.3830 -0.0376
 1525SOL    HW1 5153   1.961   5.613   5.954 -0.6664 -0.9907 -2.6268
 1525SOL    HW2 5154   2.073   5.589   5.854  2.1230 -1.1111  0.3468
 1526SOL     OW 5155   6.050   4.541   6.520 -0.7066  0.1663  0.2136
 1526SOL    HW1 5156   5.962   4.546   6.558 -0.0510  0.7762  1.6890
 1526SOL    HW2 5157   6.077   4.450   6.534 -0.5495  0.3352  1.0516
 1527SOL     OW 5158   8.665   7.234   0.275 -0.3899  0.2810  0.1795
 1527SOL    HW1 5159   8.757   7.216   0.290  0.4569  2.7239 -1.5173
 1527SOL    HW2 5160   8.642   7.302   0.337 -1.3334 -0.8381  1.1231
 1528SOL     OW 5161   6.134   7.566   1.137  0.4924  0.0777 -0.1529
 1528SOL    HW1 5162   6.219   7.610   1.146  0.2528  0.3008  1.1249
 1528SOL    HW2 5163   6.107   7.586   1.047  1.8757 -0.1670 -0.6504
 1529SOL     OW 5164   5.076   7.721   8.561  0.3072 -0.2746  0.2183
 1529SOL    HW1 5165   5.120   7.711   8.477  1.2159  0.4981  0.5831
 1529SOL    HW2 5166   5.061   7.815   8.569 -0.9105 -0.4654  0.3715
 1530SOL     OW 5167   1.478   4.006   8.352  0.3244 -0.4298  0.2039
 1530SOL    HW1 5168   1.389   4.028   8.324 -0.1330 -3.1557 -0.7122
 1530SOL    HW2 5169   1.469   3.987   8.445 -0.2845 -1.7002 -0.1004
 1531SOL     OW 5170   3.179   1.681   5.719 -0.3356 -0.1831  0.6780
 1531SOL    HW1 5171   3.135   1.744   5.663 -0.4643 -0.9256 -0.0731
 1531SOL    HW2 5172   3.131   1.684   5.802 -0.1291  0.9299  0.7676
 1532SOL     OW 5173   7.113   2.809   2.559 -0.0763  0.1193 -0.0798
 1532SOL    HW1 5174   7.170   2.752   2.509  0.4538  0.6897 -0.1403
 1532SOL    HW2 5175   7.167   2.839   2.632 -0.8722 -0.7779  0.9025
 1533SOL     OW 5176   9.265   6.755   5.118  0.0993 -0.2485 -0.1155
 1533SOL    HW1 5177   9.258   6.717   5.030  0.0421 -1.0171  0.2141
 1533SOL    HW2 5178   9.351   6.727   5.150  0.2023  0.1932  0.0017
 1534SOL     OW 5179   8.620   6.664   2.985 -0.0778  0.4059  0.3987
 1534SOL    HW1 5180   8.586   6.637   2.899 -0.6856  0.5493  0.5871
 1534SOL    HW2 5181   8.615   6.759   2.984  0.4595  0.4352  0.3786
 1535SOL     OW 5182   3.317   7.332   3.780  0.2767 -0.3455  0.4545
 1535SOL    HW1 5183   3.336   7.327   3.687 -0.1145  0.2237  0.3370
 1535SOL    HW2 5184   3.337   7.244   3.814 -1.8080 -1.2875 -0.5974
 1536SOL     OW 5185   3.540   8.481   2.445 -0.2328 -0.2231  0.6587
 1536SOL    HW1 5186   3.502   8.424   2.378  0.8826  1.3339 -1.4305
 1536SOL    HW2 5187   3.511   8.569   2.421  0.3928  0.4162  2.1177
 1537SOL     OW 5188   0.965   9.363   7.203  0.5176 -0.1477 -0.7606
 1537SOL    HW1 5189   0.983   9.290   7.262  0.5374 -0.9759 -1.7596
 1537SOL    HW2 5190   0.994   9.440   7.251  2.0023 -0.9498 -0.2987
 1538SOL     OW 5191   5.389   3.622   1.103  0.2372  0.5669 -0.0571
 1538SOL    HW1 5192   5.385   3.659   1.014  0.9693 -0.8516 -0.7211
 1538SOL    HW2 5193   5.316   3.560   1.106  0.1092  0.7431  0.3944
 1539SOL     OW 5194   0.216   3.745   7.933 -0.4064  0.4405  0.1938
 1539SOL    HW1 5195   0.149   3.679   7.947 -2.0047  1.6863 -1.2288
 1539SOL    HW2 5196   0.294   3.710   7.978 -0.8807 -2.7908 -1.2514
 1540SOL     OW 5197   2.541   5.925   4.429 -0.0937  0.0277  0.0808
 1540SOL    HW1 5198   2.492   5.988   4.377  1.3907  0.4476 -0.8829
 1540SOL    HW2 5199   2.629   5.926   4.391  1.3621  1.0094  3.1127
 1541SOL     OW 5200   1.590   5.628   8.388 -0.1128  0.3435  0.0249
 1541SOL    HW1 5201   1.574   5.719   8.415 -1.4633  0.2332 -0.3378
 1541SOL    HW2 5202   1.664   5.600   8.443 -0.2130  1.3913  0.7396
 1542SOL     OW 5203   6.615   2.307   8.121  0.1323  0.4856 -0.2321
 1542SOL    HW1 5204   6.559   2.269   8.188  0.6503  1.6640  0.9192
 1542SOL    HW2 5205   6.645   2.390   8.159 -0.6297  1.8594 -2.4397
 1543SOL     OW 5206   0.635   3.278   1.872  0.5049  0.0323  0.5615
 1543SOL    HW1 5207   0.696   3.343   1.837  1.6562 -0.6829  1.1544
 1543SOL    HW2 5208   0.639   3.290   1.967 -1.3796  0.9086  0.5639
 1544SOL     OW 5209   5.460   5.656   0.481 -0.9063  0.4069  0.3504
 1544SOL    HW1 5210   5.500   5.711   0.549  1.3048 -0.3286 -0.2616
 1544SOL    HW2 5211   5.434   5.576   0.528 -1.8152  0.9383  0.7786
 1545SOL     OW 5212   4.237   0.843   9.571  0.3459 -0.3886  0.0290
 1545SOL    HW1 5213   4.194   0.927   9.588 -2.9398 -1.5465 -1.6423
 1545SOL    HW2 5214   4.283   0.823   9.653 -1.4599  1.5326  1.6565
 1546SOL     OW 5215   6.763   1.123   3.480 -0.1110  0.0791  0.1671
 1546SOL    HW1 5216   6.830   1.066   3.440  0.7022  0.9409  0.2512
 1546SOL    HW2 5217   6.719   1.067   3.544 -0.0756 -0.7583 -0.5189
 1547SOL     OW 5218   6.492   1.564   1.267 -0.3794 -0.0460 -0.2846
 1547SOL    HW1 5219   6.446   1.511   1.332  1.2512 -0.2908  0.7085
 1547SOL    HW2 5220   6.422   1.609   1.219 -1.8408 -2.8126 -0.9738
 1548SOL     OW 5221   9.471   1.625   2.381  0.6631 -0.6057  0.1676
 1548SOL    HW1 5222   9.425   1.703   2.411  0.1901 -1.7855  2.8168
 1548SOL    HW2 5223   9.401   1.561   2.364  1.0626 -0.6319 -1.6176
 1549SOL     OW 5224   4.299   7.499   2.576  0.2157  0.3687  0.3398
 1549SOL    HW1 5225   4.284   7.485   2.483 -1.0062 -2.1780  0.8293
 1549SOL    HW2 5226   4.291   7.411   2.615  1.7922  1.1780  2.7006
 1550SOL     OW 5227   1.447   0.025   6.286  0.1255 -0.9133  0.0670
 1550SOL    HW1 5228   1.486   0.031   6.373  1.0182 -1.0122 -0.3095
 1550SOL    HW2 5229   1.519  -0.005   6.230 -0.0316  0.5312 -0.9644
 1551SOL     OW 5230   5.083   1.600   2.476 -0.4306 -0.0682  0.4780
 1551SOL    HW1 5231   5.035   1.682   2.471  1.1696  0.8237 -2.3458
 1551SOL    HW2 5232   5.041   1.544   2.410  1.3689  0.2326 -1.0126
 1552SOL     OW 5233   2.035   7.037   9.601 -0.3803  0.2972  0.0039
 1552SOL    HW1 5234   2.046   7.132   9.605 -1.5598  0.4034  1.4233
 1552SOL    HW2 5235   2.040   7.008   9.692  1.0122 -1.1604 -0.4895
 1553SOL     OW 5236   8.617   3.866   6.044  0.2632 -0.1375  0.1698
 1553SOL    HW1 5237   8.618   3.834   6.134 -0.9862 -1.4151 -0.2422
 1553SOL    HW2 5238   8.587   3.957   6.051  0.3804 -0.1621  1.0528
 1554SOL     OW 5239   5.528   1.564   5.293  0.0380  0.0410 -0.7266
 1554SOL    HW1 5240   5.438   1.566   5.259  0.1021  0.4723 -0.8763
 1554SOL    HW2 5241   5.581   1.542   5.216 -0.2214 -3.7995 -0.0204
 1555SOL     OW 5242   3.809   8.465   3.623 -0.3515 -0.1544  0.2265
 1555SOL    HW1 5243   3.848   8.385   3.586 -0.8919  0.4158 -1.6679
 1555SOL    HW2 5244   3.885   8.520   3.644 -0.0174 -0.2053 -0.7564
 1556SOL     OW 5245   6.823   1.169   0.350 -0.7351  0.6495 -0.1706
 1556SOL    HW1 5246   6.915   1.195   0.342 -0.5265  0.7931  2.1500
 1556SOL    HW2 5247   6.776   1.233   0.295  0.3198  2.2448  0.6905
 1557SOL     OW 5248   0.051   9.368   3.254  0.4513 -0.3803 -0.1825
 1557SOL    HW1 5249   0.127   9.421   3.231  1.8183 -2.3285 -0.4350
 1557SOL    HW2 5250   0.088   9.286   3.286 -1.5550 -1.5184 -0.6014
 1558SOL     OW 5251   8.126   2.376   2.173 -0.2918 -0.4906 -0.5287
 1558SOL    HW1 5252   8.080   2.325   2.240 -0.3449  0.0396 -0.1498
 1558SOL    HW2 5253   8.150   2.458   2.217 -0.3523 -0.1179 -1.1649
 1559SOL     OW 5254   1.593   8.534   6.318 -0.3324  0.0155 -0.6214
 1559SOL    HW1 5255   1.614   8.572   6.404  3.0417 -0.4610 -1.1225
 1559SOL    HW2 5256   1.609   8.441   6.328 -1.3171 -0.2528 -1.4075
 1560SOL     OW 5257   6.360   2.141   0.293  0.2229  0.0351  0.7291
 1560SOL    HW1 5258   6.293   2.073   0.284  0.6954 -0.7947  3.0046
 1560SOL    HW2 5259   6.317   2.221   0.262 -0.5805 -1.1000 -1.3009
 1561SOL     OW 5260   8.467   5.486   0.723 -0.9209  0.2592  0.2130
 1561SOL    HW1 5261   8.444   5.415   0.662 -1.7958  0.4827  0.2785
 1561SOL    HW2 5262   8.482   5.441   0.807  0.0975 -0.0255 -0.0989
 1562SOL     OW 5263   0.688   4.636   2.746 -0.3254 -0.0335 -0.0995
 1562SOL    HW1 5264   0.597   4.659   2.724 -0.1748  0.8086  0.1205
 1562SOL    HW2 5265   0.706   4.557   2.695 -0.9089  0.2804 -0.8081
 1563SOL     OW 5266   8.609   8.354   8.520 -0.0165  0.1455 -0.0463
 1563SOL    HW1 5267   8.565   8.288   8.573  1.9232 -0.0249  1.4589
 1563SOL    HW2 5268   8.550   8.430   8.523 -0.0206  0.1249  2.3641
 1564SOL     OW 5269   9.846   3.633   4.116 -0.3826 -0.2882 -0.2594
 1564SOL    HW1 5270   9.875   3.641   4.025 -0.4551  1.4497 -0.1602
 1564SOL    HW2 5271   9.885   3.551   4.147  0.6953 -0.2561 -1.4729
 1565SOL     OW 5272   2.886   0.729   0.272  0.4202  0.5831  0.8088
 1565SOL    HW1 5273   2.825   0.726   0.198  1.0748 -0.0387  0.2847
 1565SOL    HW2 5274   2.850   0.667   0.335  1.7773 -1.7042 -0.5234
 1566SOL     OW 5275   5.844   5.729   6.889  0.3881 -0.7392  0.0678
 1566SOL    HW1 5276   5.749   5.730   6.890  0.3553  1.4212  0.0279
 1566SOL    HW2 5277   5.869   5.676   6.965 -0.8718  0.2165  1.1840
 1567SOL     OW 5278   3.568   7.133   0.320 -0.3711  0.2068  0.2051
 1567SOL    HW1 5279   3.526   7.216   0.343 -1.7024 -0.6297  0.9051
 1567SOL    HW2 5280   3.520   7.067   0.370  0.4389 -1.0303 -0.5962
 1568SOL     OW 5281   2.871   2.656   2.685  0.4501  1.0451 -0.3140
 1568SOL    HW1 5282   2.950   2.632   2.734 -0.0542 -0.9289 -0.3969
 1568SOL    HW2 5283   2.827   2.720   2.741  1.5047  1.2759  0.2779
 1569SOL     OW 5284   8.072   4.679   4.283 -0.0867 -0.4870 -0.3740
 1569SOL    HW1 5285   8.051   4.586   4.274  1.3681 -0.9676  0.7315
 1569SOL    HW2 5286   8.137   4.696   4.215  1.7635 -1.0434  1.1645
 1570SOL     OW 5287   1.252   7.304   3.134  0.1430  0.3460 -0.1806
 1570SOL    HW1 5288   1.273   7.278   3.223  3.5642  1.6092 -0.4904
 1570SOL    HW2 5289   1.271   7.398   3.131  0.6618  0.2217 -2.3535
 1571SOL     OW 5290   0.729   3.110   5.550 -0.0763 -0.4089 -0.3780
 1571SOL    HW1 5291   0.731   3.124   5.456  0.0995  1.1649 -0.1583
 1571SOL    HW2 5292   0.820   3.091   5.573  0.6511  2.8986 -0.0581
 1572SOL     OW 5293   2.724   7.354   1.912 -0.0254  0.3657 -0.0699
 1572SOL    HW1 5294   2.672   7.421   1.868  0.1533  0.4000 -0.2324
 1572SOL    HW2 5295   2.704   7.273   1.866  0.7767  0.5374 -0.7545
 1573SOL     OW 5296   7.476   9.385   8.800 -0.8218  0.1489 -0.0245
 1573SOL    HW1 5297   7.454   9.365   8.891  0.6808 -0.4472  0.2410
 1573SOL    HW2 5298   7.464   9.303   8.753  0.0168  0.0143 -0.0210
 1574SOL     OW 5299   8.685   2.046   4.196  0.0146  0.0536 -0.4997
 1574SOL    HW1 5300   8.695   1.955   4.167  0.9337 -0.6027  1.6857
 1574SOL    HW2 5301   8.757   2.092   4.152  2.1170 -1.1514  1.4596
 1575SOL     OW 5302   3.833   7.002   7.663  0.3953 -0.2966  0.2842
 1575SOL    HW1 5303   3.886   6.932   7.625 -0.1020  0.3389 -1.6398
 1575SOL    HW2 5304   3.871   7.083   7.630  0.6277  0.3701  2.0520
 1576SOL     OW 5305   7.499   6.814   3.473 -0.1973  0.1776 -0.1452
 1576SOL    HW1 5306   7.434   6.746   3.486  2.1425 -1.9705  1.2232
 1576SOL    HW2 5307   7.574   6.769   3.434  2.0548  1.4735  2.2900
 1577SOL     OW 5308   5.212   0.413   0.314 -0.0403 -0.0506  0.2756
 1577SOL    HW1 5309   5.193   0.394   0.222  1.1142  1.5914 -0.3569
 1577SOL    HW2 5310   5.128   0.440   0.351  0.0290  2.6146 -1.2465
 1578SOL     OW 5311   3.006   6.578   2.785 -0.3965 -0.3938  0.4695
 1578SOL    HW1 5312   2.937   6.512   2.784  0.2525 -1.2171  2.7460
 1578SOL    HW2 5313   2.986   6.632   2.862  0.9088 -0.0273  0.5702
 1579SOL     OW 5314   2.720   2.308   9.686  0.5759  0.1426 -0.0945
 1579SOL    HW1 5315   2.672   2.230   9.660 -1.5516  1.0568  0.7772
 1579SOL    HW2 5316   2.714   2.366   9.610 -0.4888  0.5727  0.2991
 1580SOL     OW 5317   3.409   4.947   1.284  0.2593 -0.2359  0.2819
 1580SOL    HW1 5318   3.319   4.918   1.273  0.6275 -0.6564 -2.1612
 1580SOL    HW2 5319   3.452   4.876   1.331 -0.5954 -0.1414  1.2353
 1581SOL     OW 5320   5.905   6.137   1.874 -0.2861  0.0577  0.3909
 1581SOL    HW1 5321   5.813   6.111   1.874 -1.0758  2.5612  0.0112
 1581SOL    HW2 5322   5.954   6.055   1.884 -2.4511 -1.5898 -1.5664
 1582SOL     OW 5323   5.971   7.180   7.581 -0.2596 -0.0612 -0.3086
 1582SOL    HW1 5324   6.039   7.158   7.517 -0.8745 -1.1737 -0.6118
 1582SOL    HW2 5325   5.987   7.271   7.603  1.7013 -0.4674  0.0778
 1583SOL     OW 5326   5.443   3.297   5.825  0.2911 -0.4255 -0.6680
 1583SOL    HW1 5327   5.535   3.289   5.851  0.3688 -2.5080 -1.3996
 1583SOL    HW2 5328   5.431   3.231   5.756 -1.1595  1.4313 -2.3513
 1584SOL     OW 5329   9.492   4.169   8.225  0.0640  0.2259 -0.3780
 1584SOL    HW1 5330   9.450   4.124   8.298 -0.1796  0.8620 -0.1128
 1584SOL    HW2 5331   9.544   4.238   8.267  0.3574  0.2502 -0.7783
 1585SOL     OW 5332   9.101   2.861   4.063 -0.4436  0.2162 -0.3764
 1585SOL    HW1 5333   9.139   2.849   4.150  0.1138  0.0015 -0.6475
 1585SOL    HW2 5334   9.082   2.955   4.058 -1.4866  0.0609  0.3849
 1586SOL     OW 5335   1.574   0.129   4.450 -0.3654  0.3503  0.0202
 1586SOL    HW1 5336   1.617   0.055   4.494 -0.2262  0.9486  0.9111
 1586SOL    HW2 5337   1.488   0.134   4.490 -0.7899 -0.0077 -0.8219
 1587SOL     OW 5338   9.666   5.844   6.344 -0.0861 -0.4698  0.0907
 1587SOL    HW1 5339   9.744   5.819   6.294  0.8213 -1.1935  1.7863
 1587SOL    HW2 5340   9.700   5.887   6.423 -1.4737  0.8076  0.0479
 1588SOL     OW 5341   3.607   5.936   5.997  0.0989 -1.0287  0.3269
 1588SOL    HW1 5342   3.528   5.989   5.986  0.9445  0.4955  1.3560
 1588SOL    HW2 5343   3.621   5.933   6.091  1.7130 -0.5986  0.1169
 1589SOL     OW 5344   8.798   0.142   6.770 -0.0751  0.5520 -0.2462
 1589SOL    HW1 5345   8.728   0.186   6.819 -1.2989 -0.8465 -0.6593
 1589SOL    HW2 5346   8.791   0.179   6.681 -0.6673  0.0094 -0.4281
 1590SOL     OW 5347   7.417   5.938   1.813 -0.1655  0.0759 -0.6537
 1590SOL    HW1 5348   7.503   5.980   1.819  0.3758 -0.9927 -0.7301
 1590SOL    HW2 5349   7.404   5.897   1.898 -0.6089  0.2310 -0.6423
 1591SOL     OW 5350   7.760   4.946   8.147  0.6428 -0.0389 -0.1433
 1591SOL    HW1 5351   7.794   5.003   8.216  2.2560 -1.6938  0.5023
 1591SOL    HW2 5352   7.732   5.007   8.078  3.8290  1.5916 -0.2149
 1592SOL     OW 5353   2.329   3.911   4.086 -0.2220  0.1298 -0.2812
 1592SOL    HW1 5354   2.378   3.845   4.037  1.6024  0.7756  0.5675
 1592SOL    HW2 5355   2.382   3.928   4.163 -2.1009  0.4953  0.9977
 1593SOL     OW 5356   1.898   7.066   4.604 -0.4677  0.0139 -0.4911
 1593SOL    HW1 5357   1.971   7.094   4.548 -0.7561 -1.3890 -1.6280
 1593SOL    HW2 5358   1.936   7.000   4.662 -0.2755  1.1377  0.6981
 1594SOL     OW 5359   7.207   5.082   3.544 -0.5027  0.0687 -0.3686
 1594SOL    HW1 5360   7.179   5.051   3.458  1.5669 -0.6822 -0.8188
 1594SOL    HW2 5361   7.127   5.084   3.596 -1.2639 -2.9290 -1.2514
 1595SOL     OW 5362   4.097   5.829   6.846  0.0739  0.5676 -0.3176
 1595SOL    HW1 5363   4.132   5.784   6.923  1.1670  1.0257 -0.5350
 1595SOL    HW2 5364   4.106   5.765   6.775 -0.2297  0.4174 -0.2215
 1596SOL     OW 5365   2.572   9.250   4.970 -0.5061  0.1558  0.4408
 1596SOL    HW1 5366   2.612   9.279   5.051  1.6139  1.5686 -0.9996
 1596SOL    HW2 5367   2.630   9.181   4.937 -1.4235 -0.5135  0.1701
 1597SOL     OW 5368   8.558   3.891   8.909 -0.4456  0.3317  0.2150
 1597SOL    HW1 5369   8.471   3.922   8.885  0.4808  2.8393 -0.2206
 1597SOL    HW2 5370   8.603   3.969   8.942  1.7321 -0.8150  0.1747
 1598SOL     OW 5371   4.936   9.366   8.734  0.2491  0.3442 -0.6032
 1598SOL    HW1 5372   4.885   9.441   8.706 -0.6580 -0.8527 -2.3812
 1598SOL    HW2 5373   4.891   9.291   8.695  1.5182 -1.0535  0.5090
 1599SOL     OW 5374   8.493   3.318   4.151  0.2256  0.0917 -0.2879
 1599SOL    HW1 5375   8.400   3.335   4.167  0.1949 -0.2624 -0.0829
 1599SOL    HW2 5376   8.497   3.293   4.059  0.0160 -0.5956 -0.1152
 1600SOL     OW 5377   4.430   9.718   9.994 -0.5020 -0.1924 -0.4222
 1600SOL    HW1 5378   4.343   9.724   9.954  0.2562  0.3932 -2.0671
 1600SOL    HW2 5379   4.488   9.696   9.921  1.0046  1.2913  0.2656
 1601SOL     OW 5380   7.373   7.927   2.695  0.1947  0.0740 -0.3174
 1601SOL    HW1 5381   7.283   7.958   2.695 -0.0777 -0.6600  0.7554
 1601SOL    HW2 5382   7.372   7.848   2.640 -0.0241 -0.4397  0.4017
 1602SOL     OW 5383   5.212   6.198   9.580  0.2520 -0.4808 -0.4004
 1602SOL    HW1 5384   5.211   6.244   9.663  0.0369 -2.1871  0.5814
 1602SOL    HW2 5385   5.287   6.138   9.587  1.5058  0.7417 -2.2609
 1603SOL     OW 5386   6.619   3.807   0.477  0.2427 -0.2577 -0.0214
 1603SOL    HW1 5387   6.580   3.850   0.553  0.2107  0.3989 -0.4034
 1603SOL    HW2 5388   6.686   3.750   0.514  0.9228  0.8155  0.4446
 1604SOL     OW 5389   1.839   1.878   5.811  0.1567 -0.6200 -0.3216
 1604SOL    HW1 5390   1.764   1.934   5.787 -1.1596 -1.8119  0.8094
 1604SOL    HW2 5391   1.824   1.797   5.763 -0.0481 -1.3609  0.9391
 1605SOL     OW 5392   0.195   6.874   6.150 -0.2413  0.0252  0.1110
 1605SOL    HW1 5393   0.286   6.869   6.122 -1.1481 -0.7880 -3.1246
 1605SOL    HW2 5394   0.168   6.783   6.161 -1.1490  0.1616 -0.8503
 1606SOL     OW 5395   1.368   7.201   0.375 -0.1186 -0.1652  0.0629
 1606SOL    HW1 5396   1.426   7.182   0.302  0.0547 -0.0704  0.1737
 1606SOL    HW2 5397   1.389   7.291   0.399  0.9797 -0.6887  1.2516
 1607SOL     OW 5398   6.262   8.872   1.645  0.2904  0.2335  0.2188
 1607SOL    HW1 5399   6.306   8.901   1.565 -0.6913  0.0724 -0.4002
 1607SOL    HW2 5400   6.278   8.942   1.708  1.8748 -0.0721  0.1913
 1608SOL     OW 5401   8.731   7.233   9.254  0.4310 -0.4388  0.0311
 1608SOL    HW1 5402   8.748   7.143   9.283  0.4561 -0.6732 -0.6979
 1608SOL    HW2 5403   8.771   7.238   9.167  0.9493  0.4609  0.3143
 1609SOL     OW 5404   9.342   7.013   1.569 -0.0799  0.3244 -0.0547
 1609SOL    HW1 5405   9.285   6.940   1.544  0.9515 -0.0958 -1.3216
 1609SOL    HW2 5406   9.341   7.013   1.665 -1.3386 -0.3461 -0.0555
 1610SOL     OW 5407   8.344   8.547   3.230  0.0176  0.1879  0.2476
 1610SOL    HW1 5408   8.260   8.559   3.186  1.2851  2.4252 -1.8181
 1610SOL    HW2 5409   8.408   8.539   3.160  1.7105 -0.0818  1.7299
 1611SOL     OW 5410   2.986   2.657   3.720  0.2160 -0.4266  0.1809
 1611SOL    HW1 5411   3.056   2.593   3.713 -0.5935 -1.4542  1.1145
 1611SOL    HW2 5412   2.906   2.610   3.695 -0.1667  0.7251 -0.8862
 1612SOL     OW 5413   1.410   3.301   8.527 -0.0133 -0.4502  0.4931
 1612SOL    HW1 5414   1.324   3.262   8.542 -0.0802 -0.1975  0.7644
 1612SOL    HW2 5415   1.410   3.323   8.433  0.1114 -1.3042  0.2867
 1613SOL     OW 5416   8.186   1.732   9.519  0.2707  0.3569  0.0805
 1613SOL    HW1 5417   8.204   1.785   9.441 -0.4053 -1.5626 -1.4742
 1613SOL    HW2 5418   8.264   1.678   9.530 -0.7222 -1.4669 -1.1438
 1614SOL     OW 5419   3.702   4.290   8.082 -0.0059  0.3814 -0.5426
 1614SOL    HW1 5420   3.701   4.208   8.132  2.7442  0.2432 -0.5623
 1614SOL    HW2 5421   3.696   4.359   8.148 -2.0692  0.2210 -0.5079
 1615SOL     OW 5422   0.381   8.350   7.729  0.6062  0.8055  0.4076
 1615SOL    HW1 5423   0.441   8.278   7.750 -1.2795 -1.4919 -1.4504
 1615SOL    HW2 5424   0.340   8.373   7.812  1.5512  0.0192  1.1108
 1616SOL     OW 5425   3.857   4.239   8.762 -0.0456  0.3932  0.3591
 1616SOL    HW1 5426   3.827   4.269   8.847 -0.0345  2.7246 -0.3974
 1616SOL    HW2 5427   3.903   4.157   8.780 -0.5594  0.5252  2.4858
 1617SOL     OW 5428   4.256   6.048   5.865  0.0869  0.1811  0.0904
 1617SOL    HW1 5429   4.224   5.980   5.806 -3.2005  0.9536  0.7831
 1617SOL    HW2 5430   4.292   6.115   5.807 -3.2819  1.0482 -1.2389
 1618SOL     OW 5431   1.197   7.045   2.570  0.7013  0.9077 -0.3181
 1618SOL    HW1 5432   1.193   6.959   2.528 -1.0696  2.3235 -3.3495
 1618SOL    HW2 5433   1.106   7.068   2.588  1.1332  2.1966  0.3834
 1619SOL     OW 5434   0.896   4.731   8.448 -0.6034 -0.0374  0.2333
 1619SOL    HW1 5435   0.972   4.717   8.505 -0.6455 -0.9199  0.0873
 1619SOL    HW2 5436   0.821   4.700   8.499 -0.6135 -1.0475 -0.3697
 1620SOL     OW 5437   4.643   0.261   0.304  0.5214 -0.1923 -0.4059
 1620SOL    HW1 5438   4.645   0.196   0.374 -0.9108 -0.5840 -0.7071
 1620SOL    HW2 5439   4.662   0.212   0.224 -2.8040 -0.7947 -0.9762
 1621SOL     OW 5440   0.518   3.268   6.781  0.1389 -0.3200 -0.1996
 1621SOL    HW1 5441   0.612   3.263   6.803  0.5972 -0.1985 -2.0144
 1621SOL    HW2 5442   0.486   3.344   6.830  0.7474 -0.9250  1.2013
 1622SOL     OW 5443   4.811   9.744   2.810  0.8802  0.5709 -0.0925
 1622SOL    HW1 5444   4.787   9.783   2.894  0.1357 -2.3211  1.1587
 1622SOL    HW2 5445   4.727   9.720   2.770  1.3147 -0.7409 -0.2576
 1623SOL     OW 5446   4.901   1.262   3.775  0.4094 -0.1851  0.1695
 1623SOL    HW1 5447   4.840   1.260   3.701 -0.0937  0.6265  0.5423
 1623SOL    HW2 5448   4.844   1.260   3.852  0.9477 -1.6869  0.5611
 1624SOL     OW 5449   3.968   2.152   3.503 -0.3420  0.1761 -0.6940
 1624SOL    HW1 5450   3.920   2.233   3.519  0.0669 -0.0052  1.7219
 1624SOL    HW2 5451   4.048   2.181   3.459  0.7659  1.4063  1.9398
 1625SOL     OW 5452   3.035   5.537   0.404  0.1490 -0.3794 -0.2374
 1625SOL    HW1 5453   3.086   5.611   0.369 -0.4740 -0.5176 -1.5242
 1625SOL    HW2 5454   3.100   5.473   0.432  0.7172  0.8304  1.3667
 1626SOL     OW 5455   4.707   4.403   0.528  0.1872 -0.2396 -0.1867
 1626SOL    HW1 5456   4.747   4.317   0.515 -0.2826 -0.6914  1.2379
 1626SOL    HW2 5457   4.703   4.414   0.623  2.4607  2.4151 -0.2707
 1627SOL     OW 5458   6.788   0.919   6.722 -0.0713  0.2839 -0.2335
 1627SOL    HW1 5459   6.825   0.886   6.804 -0.3983  0.9557  0.1850
 1627SOL    HW2 5460   6.801   0.847   6.660  0.5851 -0.0585  0.2852
 1628SOL     OW 5461   5.549   7.160   4.223 -0.1101 -0.2105 -0.0139
 1628SOL    HW1 5462   5.472   7.103   4.211 -0.7509  0.6736 -0.2189
 1628SOL    HW2 5463   5.519   7.228   4.283  2.0791 -2.7191  4.4573
 1629SOL     OW 5464   7.100   7.673   2.227 -0.0871 -0.0016  0.1074
 1629SOL    HW1 5465   7.117   7.752   2.175 -0.9222  0.3493  0.3520
 1629SOL    HW2 5466   7.136   7.602   2.174  2.9156  0.7427  0.9915
 1630SOL     OW 5467   6.591   6.287   6.402 -0.1315 -0.3350 -0.3470
 1630SOL    HW1 5468   6.619   6.349   6.470 -0.6546 -0.5426  0.0686
 1630SOL    HW2 5469   6.508   6.322   6.371  0.2758 -0.0540 -1.1326
 1631SOL     OW 5470   0.392   6.645   8.052  0.3301  0.4715  0.2239
 1631SOL    HW1 5471   0.339   6.721   8.029  0.9224  0.8074 -0.0616
 1631SOL    HW2 5472   0.478   6.682   8.075  1.2329 -0.2231 -1.7983
 1632SOL     OW 5473   8.404   7.824   2.710 -0.0374 -0.5712  0.2866
 1632SOL    HW1 5474   8.363   7.899   2.668 -0.1472 -0.6505  0.2523
 1632SOL    HW2 5475   8.334   7.759   2.718 -0.1771 -0.3414  1.1174
 1633SOL     OW 5476   7.361   3.505   3.819  0.3344 -0.1847  0.6511
 1633SOL    HW1 5477   7.316   3.563   3.880  0.9345  0.8267  0.1680
 1633SOL    HW2 5478   7.360   3.553   3.736  0.8585 -0.8712  0.2362
 1634SOL     OW 5479   9.638   2.101   8.768 -0.0705  0.0661  0.2739
 1634SOL    HW1 5480   9.560   2.155   8.757 -0.6849 -0.8556  0.1011
 1634SOL    HW2 5481   9.665   2.078   8.679 -1.4487 -2.2182  0.3711
 1635SOL     OW 5482   3.207   6.350   2.562 -0.2627 -0.0987  0.6156
 1635SOL    HW1 5483   3.235   6.301   2.639 -1.0741 -0.0651  0.9446
 1635SOL    HW2 5484   3.168   6.430   2.598  0.5215  0.5152  0.1083
 1636SOL     OW 5485   0.348   7.685   5.423 -0.5449 -0.6535 -0.2577
 1636SOL    HW1 5486   0.265   7.641   5.443 -0.1182 -1.8870 -1.0609
 1636SOL    HW2 5487   0.414   7.618   5.440  0.0776 -0.5727 -2.1639
 1637SOL     OW 5488   4.619   1.743   3.242 -0.3760 -0.3430  0.1713
 1637SOL    HW1 5489   4.560   1.755   3.316 -0.7496 -0.6517 -0.0700
 1637SOL    HW2 5490   4.630   1.648   3.235  1.7407 -0.2670  1.4469
 1638SOL     OW 5491   1.107   8.992   8.292  0.1230  0.2003 -0.3897
 1638SOL    HW1 5492   1.175   9.037   8.242  1.1096 -1.5942 -0.7230
 1638SOL    HW2 5493   1.126   9.013   8.383 -1.5891  3.3581 -0.6083
 1639SOL     OW 5494   0.247   8.512   6.999 -0.2368  0.0374  0.0088
 1639SOL    HW1 5495   0.270   8.486   7.088  0.3374  0.3472 -0.0513
 1639SOL    HW2 5496   0.286   8.444   6.944 -0.1418  0.1315 -0.0403
 1640SOL     OW 5497   3.282   7.020   9.487 -0.0232 -0.0884 -0.1115
 1640SOL    HW1 5498   3.209   7.082   9.487 -1.7286 -1.8518 -2.7772
 1640SOL    HW2 5499   3.343   7.055   9.422  0.2964  0.1011  0.2857
 1641SOL     OW 5500   0.321   7.183   7.135  0.1264  0.0215  0.3344
 1641SOL    HW1 5501   0.315   7.264   7.187 -1.1115  0.6955 -0.7897
 1641SOL    HW2 5502   0.386   7.203   7.068 -1.1721  0.6248 -0.7897
 1642SOL     OW 5503   6.150   6.793   2.798 -0.1911 -0.4574  0.2971
 1642SOL    HW1 5504   6.108   6.752   2.722 -0.4653 -1.0430  0.7577
 1642SOL    HW2 5505   6.137   6.887   2.784 -0.3759 -0.5614 -0.3009
 1643SOL     OW 5506   6.075   4.137   7.034 -0.0874  0.0012  0.1309
 1643SOL    HW1 5507   6.143   4.187   7.079 -0.6079  0.7603  0.0930
 1643SOL    HW2 5508   6.051   4.068   7.096  0.2304  0.1463  0.4169
 1644SOL     OW 5509   2.329   8.748   3.791 -0.5020  0.1927  0.0308
 1644SOL    HW1 5510   2.243   8.729   3.755 -0.2390  0.8869 -0.9920
 1644SOL    HW2 5511   2.379   8.783   3.717  0.7809 -0.5607  0.5075
 1645SOL     OW 5512   9.176   8.779   2.730  0.2386 -0.1048 -0.2375
 1645SOL    HW1 5513   9.135   8.695   2.711 -0.9893  0.2183  0.8297
 1645SOL    HW2 5514   9.144   8.802   2.818  2.5467  0.2842  0.5638
 1646SOL     OW 5515   5.467   5.994   3.412  0.3637 -0.1257 -0.2848
 1646SOL    HW1 5516   5.519   5.997   3.493  0.7941  2.5387 -0.5766
 1646SOL    HW2 5517   5.498   6.069   3.361 -1.9662  0.0206 -1.6107
 1647SOL     OW 5518   9.531   9.319   2.339  0.1916 -0.1247 -0.6167
 1647SOL    HW1 5519   9.571   9.314   2.426 -0.5316  1.5624 -0.1358
 1647SOL    HW2 5520   9.597   9.363   2.286 -0.4280  1.4239 -0.1656
 1648SOL     OW 5521   2.722   8.659   4.025 -0.0436  0.0577 -0.1229
 1648SOL    HW1 5522   2.626   8.655   4.018 -0.4226  1.7420  2.6020
 1648SOL    HW2 5523   2.743   8.596   4.094  0.2720  2.2293  1.9220
 1649SOL     OW 5524   3.004   8.348   7.990  0.3376 -0.3983  0.3741
 1649SOL    HW1 5525   2.929   8.406   7.999  0.8034  0.4874 -1.0558
 1649SOL    HW2 5526   3.054   8.360   8.070  0.9576  2.0295 -0.2906
 1650SOL     OW 5527   9.737   1.395   8.684  0.7265 -0.7303 -0.1700
 1650SOL    HW1 5528   9.731   1.479   8.640  1.8885 -0.1718  0.6911
 1650SOL    HW2 5529   9.719   1.330   8.616  2.5462  0.0992 -1.5203
 1651SOL     OW 5530   6.726   3.211   8.889  0.1386  0.0580 -0.4163
 1651SOL    HW1 5531   6.739   3.303   8.908 -0.3644  0.1912 -0.6933
 1651SOL    HW2 5532   6.632   3.202   8.874  0.1538 -0.5321 -0.2153
 1652SOL     OW 5533   6.623   5.454   5.396 -0.1393 -0.2349 -0.8830
 1652SOL    HW1 5534   6.684   5.406   5.451  0.2926  0.3280 -0.8593
 1652SOL    HW2 5535   6.595   5.528   5.450 -0.4204 -0.1893 -1.0899
 1653SOL     OW 5536   3.464   4.235   7.197 -0.1760  0.3943 -0.3660
 1653SOL    HW1 5537   3.439   4.315   7.242 -0.9187 -0.0200 -0.0203
 1653SOL    HW2 5538   3.419   4.239   7.113  1.5380  1.3610 -1.2678
 1654SOL     OW 5539   2.698   5.722   2.932  0.1905  0.3640  0.0216
 1654SOL    HW1 5540   2.690   5.633   2.968 -0.4469 -0.1190 -1.2573
 1654SOL    HW2 5541   2.727   5.775   3.006  0.7305 -0.9380  0.7755
 1655SOL     OW 5542   4.620   0.477   6.799  0.3594 -0.0422 -0.3429
 1655SOL    HW1 5543   4.534   0.485   6.758 -0.0468  0.0028  0.5087
 1655SOL    HW2 5544   4.661   0.402   6.755 -0.0133  0.0757 -0.9088
 1656SOL     OW 5545   3.959   8.593   7.886 -0.3998  0.0206  0.5320
 1656SOL    HW1 5546   4.037   8.584   7.832  0.1963 -0.9724  1.5088
 1656SOL    HW2 5547   3.908   8.514   7.868 -1.4342  0.8835 -0.4553
 1657SOL     OW 5548   0.109   2.996   4.717  0.3695  0.2767  0.3490
 1657SOL    HW1 5549   0.094   3.035   4.804 -0.2816 -0.8954  0.7877
 1657SOL    HW2 5550   0.065   3.055   4.656  1.0494  1.2491  0.7772
 1658SOL     OW 5551   5.482   9.739   8.982 -0.1853  0.6243  0.0008
 1658SOL    HW1 5552   5.571   9.720   9.012 -0.0838  1.5099  0.3064
 1658SOL    HW2 5553   5.439   9.777   9.059 -0.6920  0.6135 -0.2725
 1659SOL     OW 5554   2.049   6.279   0.224 -0.4405  0.0702  0.1693
 1659SOL    HW1 5555   2.028   6.207   0.165 -0.3020 -0.2653  0.5264
 1659SOL    HW2 5556   1.997   6.352   0.192 -2.3092 -0.7697  1.1110
 1660SOL     OW 5557   4.320   5.002   4.578 -0.1101 -0.2496  0.1873
 1660SOL    HW1 5558   4.342   4.989   4.486 -0.1886 -1.6276  0.3424
 1660SOL    HW2 5559   4.317   4.914   4.615 -0.5919  0.2455  1.3955
 1661SOL     OW 5560   8.441   9.804   7.464 -0.0675 -0.5918  0.0907
 1661SOL    HW1 5561   8.394   9.741   7.517 -0.0097 -1.0259 -0.3645
 1661SOL    HW2 5562   8.510   9.837   7.521  2.0329 -3.3756 -0.5876
 1662SOL     OW 5563   4.365   6.470   4.379 -0.5763 -0.3682 -0.2382
 1662SOL    HW1 5564   4.389   6.562   4.391 -2.0792  0.2082 -1.4794
 1662SOL    HW2 5565   4.416   6.441   4.304  0.7204 -0.9098  0.7986
 1663SOL     OW 5566   5.081   5.815   6.402 -0.3408  0.1491 -0.0341
 1663SOL    HW1 5567   5.119   5.903   6.396 -0.2748  0.0617 -1.1590
 1663SOL    HW2 5568   5.047   5.809   6.491 -0.6761  1.4480 -0.0643
 1664SOL     OW 5569   3.015   9.800   2.558  0.2139  0.1430  0.2263
 1664SOL    HW1 5570   3.060   9.883   2.542  0.7996 -0.2843 -0.3756
 1664SOL    HW2 5571   3.073   9.753   2.618  0.3017 -0.1785 -0.1086
 1665SOL     OW 5572   2.900   1.744   3.595  0.1198 -0.3291 -0.3365
 1665SOL    HW1 5573   2.894   1.717   3.503 -0.6478  0.1905 -0.4477
 1665SOL    HW2 5574   2.914   1.839   3.591  1.3327 -0.4790  0.0704
 1666SOL     OW 5575   6.224   4.090   4.240 -0.2636  0.7286 -0.2283
 1666SOL    HW1 5576   6.214   4.091   4.144  0.1617  1.2613 -0.2703
 1666SOL    HW2 5577   6.197   4.177   4.268 -2.7787 -0.1800  0.4058
 1667SOL     OW 5578   4.744   3.992   1.562 -0.4549 -0.1234  0.3092
 1667SOL    HW1 5579   4.804   3.977   1.634 -1.9252 -0.2099  1.5641
 1667SOL    HW2 5580   4.747   3.912   1.509  0.1868 -0.2952  0.6081
 1668SOL     OW 5581   7.542   4.557   5.587  0.1205 -0.2466 -0.1036
 1668SOL    HW1 5582   7.558   4.592   5.675  0.8041  0.7658 -0.5976
 1668SOL    HW2 5583   7.511   4.468   5.601 -0.6959  0.2158  1.1895
 1669SOL     OW 5584   0.569   7.379   2.811  0.2272  0.3560 -0.0398
 1669SOL    HW1 5585   0.499   7.414   2.755 -0.6405  0.7125  1.2206
 1669SOL    HW2 5586   0.620   7.456   2.837 -1.8839  0.9121  3.0107
 1670SOL     OW 5587   7.207   3.765   0.068  0.1974  0.4782 -0.1355
 1670SOL    HW1 5588   7.125   3.812   0.053 -0.6766 -1.2393 -1.0452
 1670SOL    HW2 5589   7.182   3.689   0.120  1.0333 -0.5216 -1.1322
 1671SOL     OW 5590   8.895   0.102   8.840  0.3078 -0.4125  0.9897
 1671SOL    HW1 5591   8.850   0.095   8.756  3.1560  2.6757 -1.0804
 1671SOL    HW2 5592   8.887   0.015   8.880 -2.3450 -1.6119 -1.7568
 1672SOL     OW 5593   6.235   3.064   9.342 -0.1454 -0.4630  0.4976
 1672SOL    HW1 5594   6.207   2.983   9.385  0.4345 -0.4644  0.8935
 1672SOL    HW2 5595   6.330   3.062   9.350 -0.1628  0.5728  1.1007
 1673SOL     OW 5596   2.445   0.243   5.341 -0.2247 -0.1711  0.0188
 1673SOL    HW1 5597   2.372   0.193   5.307 -2.3765  1.7632  1.4989
 1673SOL    HW2 5598   2.449   0.220   5.434 -0.3208  1.2346  0.4017
 1674SOL     OW 5599   7.827   1.287   9.723  0.1805 -0.2862  0.1516
 1674SOL    HW1 5600   7.759   1.254   9.782 -0.7059  0.5617 -0.3869
 1674SOL    HW2 5601   7.804   1.378   9.707  2.7103  0.7640  1.7808
 1675SOL     OW 5602   7.855   7.983   6.373  0.1273 -0.2127 -0.0736
 1675SOL    HW1 5603   7.805   7.979   6.454 -0.6426 -0.9091 -0.5641
 1675SOL    HW2 5604   7.828   8.065   6.332  1.6388  0.8960  1.0508
 1676SOL     OW 5605   1.439   7.442   5.881  0.8427 -0.3310 -0.1997
 1676SOL    HW1 5606   1.428   7.380   5.809 -1.2506 -0.9889  0.6077
 1676SOL    HW2 5607   1.397   7.522   5.850  0.6138 -0.3765 -0.0124
 1677SOL     OW 5608   8.965   4.259   1.784 -0.5740  0.3190  0.2025
 1677SOL    HW1 5609   8.904   4.223   1.847  1.2793 -1.1069  1.2852
 1677SOL    HW2 5610   8.946   4.212   1.703  0.8037 -2.1559  1.2162
 1678SOL     OW 5611   3.017   3.003   9.680 -0.3070 -0.1228  0.8700
 1678SOL    HW1 5612   2.959   3.079   9.672 -1.6621 -1.1188  0.9654
 1678SOL    HW2 5613   3.036   2.996   9.773 -0.1267  0.1258  0.8541
 1679SOL     OW 5614   6.481   3.482   9.503  0.2247  0.1204 -0.2845
 1679SOL    HW1 5615   6.553   3.454   9.447  1.1193 -0.5501  1.1672
 1679SOL    HW2 5616   6.404   3.441   9.465  0.4397  1.4333 -2.2959
 1680SOL     OW 5617   9.624   6.561   6.879  0.1312  0.0235  0.3968
 1680SOL    HW1 5618   9.564   6.557   6.805  0.2034  0.0585  0.3360
 1680SOL    HW2 5619   9.604   6.645   6.921 -0.0173 -0.0695  0.5094
 1681SOL     OW 5620   6.477   7.579   9.747 -0.0490 -0.0897 -0.1405
 1681SOL    HW1 5621   6.393   7.582   9.791 -0.3175 -0.7025 -0.5949
 1681SOL    HW2 5622   6.539   7.549   9.814 -0.1657  0.4814  0.2236
 1682SOL     OW 5623   7.734   0.967   5.877 -0.1691  0.4334  0.0066
 1682SOL    HW1 5624   7.737   1.060   5.856 -0.5066  0.2937 -0.6727
 1682SOL    HW2 5625   7.785   0.925   5.808 -1.2727 -0.0321 -0.5447
 1683SOL     OW 5626   9.140   3.914   6.257 -0.0690  0.6263  0.4300
 1683SOL    HW1 5627   9.090   3.889   6.179 -1.1228  1.7551  0.7075
 1683SOL    HW2 5628   9.224   3.944   6.223 -0.4002  0.8024 -0.2559
 1684SOL     OW 5629   5.230   9.759   5.976 -0.3271  0.4388 -0.6072
 1684SOL    HW1 5630   5.173   9.757   6.053 -0.4892  0.3788 -0.7276
 1684SOL    HW2 5631   5.306   9.707   6.002 -0.1103  0.9124 -0.2797
 1685SOL     OW 5632   7.404   6.100   2.144 -0.3582  0.3232  0.3158
 1685SOL    HW1 5633   7.402   6.005   2.127  0.6172  0.3017  0.2624
 1685SOL    HW2 5634   7.341   6.113   2.215 -0.9734 -0.2727 -0.1112
 1686SOL     OW 5635   3.948   7.561   2.367 -0.0976  0.1256 -0.4611
 1686SOL    HW1 5636   3.965   7.631   2.430  0.3548 -0.5562  0.1972
 1686SOL    HW2 5637   3.905   7.604   2.293  0.4368  1.1375 -0.1937
 1687SOL     OW 5638   6.792   5.490   8.399  0.4375 -0.7937 -0.4367
 1687SOL    HW1 5639   6.760   5.580   8.392 -0.6466 -1.1540 -0.2426
 1687SOL    HW2 5640   6.714   5.438   8.416  1.1753 -1.6563  0.4381
 1688SOL     OW 5641   4.692   5.338   1.357 -0.1926 -0.0063  0.1022
 1688SOL    HW1 5642   4.739   5.329   1.274 -1.6217  0.3528 -0.7920
 1688SOL    HW2 5643   4.749   5.298   1.422  1.1176  0.0080 -1.0009
 1689SOL     OW 5644   9.799   3.176   7.148  0.2285 -0.0577 -0.5641
 1689SOL    HW1 5645   9.890   3.152   7.165  0.1355 -0.2773 -0.3801
 1689SOL    HW2 5646   9.751   3.094   7.155  0.2747 -0.3142 -2.5951
 1690SOL     OW 5647   6.717   8.726   5.929  0.0533 -0.1504  0.3095
 1690SOL    HW1 5648   6.652   8.708   5.997  0.2260 -1.3130  0.1878
 1690SOL    HW2 5649   6.697   8.663   5.859  0.7356  0.0993 -0.1263
 1691SOL     OW 5650   2.512   3.680   7.330 -0.3628 -0.4853 -0.2316
 1691SOL    HW1 5651   2.597   3.669   7.372 -0.1375 -0.4855 -0.6805
 1691SOL    HW2 5652   2.479   3.764   7.364 -0.5283 -0.8429  0.5176
 1692SOL     OW 5653   0.042   2.162   5.173  0.0480  0.0480  0.3773
 1692SOL    HW1 5654   0.051   2.066   5.177  1.4154  0.0787 -0.9887
 1692SOL    HW2 5655   0.034   2.189   5.264  0.5964 -1.2941  0.8478
 1693SOL     OW 5656   6.701   0.836   7.812 -0.1691  0.1409 -0.3259
 1693SOL    HW1 5657   6.705   0.743   7.835 -1.4014  0.3957  1.0762
 1693SOL    HW2 5658   6.658   0.877   7.887  2.3159  2.2034  0.0799
 1694SOL     OW 5659   8.134   2.520   2.440 -0.1264  0.4020 -0.0911
 1694SOL    HW1 5660   8.200   2.568   2.390  0.7234  0.0745  0.6962
 1694SOL    HW2 5661   8.182   2.449   2.483 -1.0560 -0.0845  0.1906
 1695SOL     OW 5662   1.407   3.582   2.102  0.7533 -0.3436  0.2152
 1695SOL    HW1 5663   1.382   3.649   2.166 -1.6544 -0.7322 -0.2394
 1695SOL    HW2 5664   1.493   3.610   2.071  0.6943  1.4288  1.4950
 1696SOL     OW 5665   7.819   7.424   1.802  0.3070 -0.4188 -0.2956
 1696SOL    HW1 5666   7.792   7.462   1.886 -0.7872 -1.1903 -0.2887
 1696SOL    HW2 5667   7.814   7.498   1.740 -2.2193 -0.5774 -0.3712
 1697SOL     OW 5668   1.996   8.071   4.855 -0.0753 -0.1200 -0.4069
 1697SOL    HW1 5669   1.987   8.082   4.950  0.2780 -0.8434 -0.2811
 1697SOL    HW2 5670   1.908   8.088   4.821 -0.7094 -1.8642  0.2657
 1698SOL     OW 5671   3.763   7.926   7.156  0.4343  0.3491 -0.0637
 1698SOL    HW1 5672   3.781   7.979   7.234  0.9867  0.4130 -0.2292
 1698SOL    HW2 5673   3.764   7.836   7.186 -1.9297  0.4379  0.5142
 1699SOL     OW 5674   7.981   3.826   2.281 -0.0985  0.0993 -0.2396
 1699SOL    HW1 5675   7.900   3.804   2.327 -0.2671 -5.3504 -2.4779
 1699SOL    HW2 5676   7.958   3.901   2.226 -2.9524  0.0923  0.7938
 1700SOL     OW 5677   1.334   6.215   5.332  0.2387  0.1579 -0.0659
 1700SOL    HW1 5678   1.426   6.241   5.325  0.5630 -0.6964  0.7471
 1700SOL    HW2 5679   1.307   6.246   5.418 -0.2086  0.3131 -0.2585
 1701SOL     OW 5680   5.738   7.447   5.851 -0.0449 -0.4575  0.6149
 1701SOL    HW1 5681   5.654   7.415   5.819  0.8496 -1.2876 -1.1084
 1701SOL    HW2 5682   5.716   7.516   5.914 -2.0071  0.1539 -0.6291
 1702SOL     OW 5683   1.712   2.598   8.323  0.5401  0.2733 -0.0432
 1702SOL    HW1 5684   1.808   2.602   8.328  0.5019  0.4910  0.5075
 1702SOL    HW2 5685   1.692   2.638   8.238  1.0528 -1.7120 -1.1651
 1703SOL     OW 5686   1.943   6.522   0.712 -0.0436 -0.9935  0.6885
 1703SOL    HW1 5687   2.026   6.515   0.666 -1.2424 -0.8720 -1.6622
 1703SOL    HW2 5688   1.877   6.519   0.643 -1.9893 -0.6174  2.4206
 1704SOL     OW 5689   0.832   9.294   6.900 -0.4265 -0.8231 -0.1340
 1704SOL    HW1 5690   0.902   9.230   6.887 -0.6673 -1.0184 -0.4585
 1704SOL    HW2 5691   0.843   9.356   6.827 -1.1525 -1.3613 -0.7124
 1705SOL     OW 5692   8.921   2.935   5.647 -0.5205  0.0531 -0.0842
 1705SOL    HW1 5693   8.871   2.990   5.708 -1.1874 -1.4372  0.7562
 1705SOL    HW2 5694   8.862   2.921   5.573 -0.0586  1.0789 -0.6705
 1706SOL     OW 5695   2.835   4.394  -0.035  0.0556 -0.0185 -0.9381
 1706SOL    HW1 5696   2.790   4.474  -0.009 -0.1802 -0.1263 -1.0092
 1706SOL    HW2 5697   2.848   4.346   0.047 -0.2658 -0.1435 -0.9597
 1707SOL     OW 5698   1.796   8.438   5.906  0.5194  0.0620 -0.3006
 1707SOL    HW1 5699   1.756   8.458   5.821  0.2361  2.9804  0.4014
 1707SOL    HW2 5700   1.727   8.457   5.970  0.6988 -2.1770  0.6390
 1708SOL     OW 5701   5.271   3.834   8.517  0.0352  0.0535 -0.5178
 1708SOL    HW1 5702   5.181   3.824   8.548 -0.2858  0.0473 -1.4217
 1708SOL    HW2 5703   5.282   3.765   8.452 -0.2634  1.7642 -2.4956
 1709SOL     OW 5704   6.936   8.768   7.239  0.3456  0.4791 -0.2798
 1709SOL    HW1 5705   6.961   8.851   7.198 -1.3665  0.9129 -0.5344
 1709SOL    HW2 5706   7.010   8.710   7.224  0.6157  1.2522 -2.1633
 1710SOL     OW 5707   2.272   6.074   9.383 -0.1371  0.1189  0.3088
 1710SOL    HW1 5708   2.353   6.041   9.423 -0.4023  0.8635  1.5172
 1710SOL    HW2 5709   2.225   6.114   9.456 -1.2415  0.3847 -0.5369
 1711SOL     OW 5710   1.137   4.848   9.409  0.2356 -0.2361 -0.6823
 1711SOL    HW1 5711   1.145   4.785   9.337 -0.9697 -1.8219  0.5016
 1711SOL    HW2 5712   1.222   4.844   9.453 -0.1022 -1.7125 -0.1128
 1712SOL     OW 5713   2.384   9.183   7.604 -0.5427 -0.2565 -0.5749
 1712SOL    HW1 5714   2.383   9.227   7.519  0.7043  0.9549 -0.0108
 1712SOL    HW2 5715   2.477   9.164   7.620 -0.7941 -0.7674  0.3706
 1713SOL     OW 5716   8.617   4.008   7.371  0.2729 -1.0227  0.2042
 1713SOL    HW1 5717   8.588   4.100   7.375  0.3354 -0.8470 -1.8652
 1713SOL    HW2 5718   8.710   4.011   7.393  0.6795 -0.2969 -1.4401
 1714SOL     OW 5719   8.656   3.299   9.667 -0.0350 -0.6213 -0.9144
 1714SOL    HW1 5720   8.617   3.276   9.583  0.2845  1.6794 -1.7593
 1714SOL    HW2 5721   8.656   3.394   9.669 -0.1043 -0.5829  1.7520
 1715SOL     OW 5722   1.021   7.378   9.839  0.0468  0.2508  0.4706
 1715SOL    HW1 5723   0.970   7.399   9.761 -0.1778  0.0743  0.5684
 1715SOL    HW2 5724   1.065   7.460   9.862  0.1527  0.2909  0.1304
 1716SOL     OW 5725   0.456   3.926   1.203  0.3174  0.3467  0.3079
 1716SOL    HW1 5726   0.412   4.009   1.185 -1.4402 -0.9474 -1.9202
 1716SOL    HW2 5727   0.400   3.882   1.267 -0.4204 -0.3111 -0.7530
 1717SOL     OW 5728   5.653   5.466   2.986  0.2803 -0.0407 -0.0225
 1717SOL    HW1 5729   5.594   5.499   3.054  0.3077 -0.2543  0.1059
 1717SOL    HW2 5730   5.661   5.373   3.005 -1.5670 -0.6152 -1.6629
 1718SOL     OW 5731   3.130   7.411   1.686 -0.4211  0.9832 -0.2167
 1718SOL    HW1 5732   3.114   7.348   1.757 -0.8565 -0.4117 -1.4952
 1718SOL    HW2 5733   3.220   7.440   1.699 -0.5558  0.8993  1.0105
 1719SOL     OW 5734   6.017   2.644   5.172  0.2545 -0.2635 -0.2191
 1719SOL    HW1 5735   6.113   2.642   5.170  0.2687 -0.7728  0.7159
 1719SOL    HW2 5736   5.991   2.596   5.094  0.7713 -3.1212  1.2226
 1720SOL     OW 5737   6.924   5.207   0.574  0.6948  0.0158  1.1649
 1720SOL    HW1 5738   6.828   5.214   0.577  0.4508 -2.4305  1.4714
 1720SOL    HW2 5739   6.955   5.281   0.626 -0.9739  1.3072  0.4355
 1721SOL     OW 5740   1.481   0.536   1.840  0.0712  0.6541  0.0337
 1721SOL    HW1 5741   1.536   0.555   1.915 -1.0512  1.0099  0.7859
 1721SOL    HW2 5742   1.437   0.454   1.862  0.3039  0.3467 -0.5844
 1722SOL     OW 5743   8.256   7.541   5.488  0.1785 -0.2204 -0.1571
 1722SOL    HW1 5744   8.350   7.538   5.466 -0.4521  0.1279 -3.4057
 1722SOL    HW2 5745   8.235   7.450   5.512  1.3538 -0.2407  0.9488
 1723SOL     OW 5746   2.151   2.332   5.338  0.4767  0.0924  0.1398
 1723SOL    HW1 5747   2.136   2.421   5.369  1.4026  1.1239 -2.1719
 1723SOL    HW2 5748   2.120   2.332   5.248  3.0305 -1.0595 -0.8422
 1724SOL     OW 5749   0.380   1.519   6.764  0.5208 -0.2120 -0.0318
 1724SOL    HW1 5750   0.373   1.462   6.688  1.1493 -0.6913  0.2549
 1724SOL    HW2 5751   0.348   1.604   6.734 -2.5935 -1.2136  0.1505
 1725SOL     OW 5752   7.455   1.671   7.827 -0.0599 -0.1374  0.2906
 1725SOL    HW1 5753   7.496   1.721   7.897  0.7398 -0.4021  0.0200
 1725SOL    HW2 5754   7.519   1.604   7.804 -0.7403 -0.7115  0.0167
 1726SOL     OW 5755   7.035   5.730   7.505  0.4393 -0.1762  0.2178
 1726SOL    HW1 5756   7.065   5.739   7.414  1.0216  0.7669  0.4826
 1726SOL    HW2 5757   7.093   5.663   7.543  2.1818  1.4790  0.6659
 1727SOL     OW 5758   6.794   7.729   8.400 -0.1594  0.1736  0.3013
 1727SOL    HW1 5759   6.833   7.710   8.485  0.8416  0.2309 -0.1371
 1727SOL    HW2 5760   6.787   7.643   8.357  2.5598  0.4636 -0.9060
 1728SOL     OW 5761   0.923   2.088   3.589 -0.0182 -0.6036  0.2546
 1728SOL    HW1 5762   0.837   2.101   3.548  0.1590 -1.3774 -0.4070
 1728SOL    HW2 5763   0.908   2.020   3.655 -0.1654  0.1675  1.0269
 1729SOL     OW 5764   7.818   7.178   9.264 -0.5845  0.5497  0.0581
 1729SOL    HW1 5765   7.905   7.172   9.303 -1.1218 -1.1093  1.1107
 1729SOL    HW2 5766   7.813   7.268   9.230  1.1146  1.0251  0.9420
 1730SOL     OW 5767   6.901   6.632   7.243  0.2617 -0.0653  0.5788
 1730SOL    HW1 5768   6.809   6.659   7.248  1.0300  2.8811  0.7499
 1730SOL    HW2 5769   6.916   6.582   7.323 -0.8857  0.5815  1.2148
 1731SOL     OW 5770   2.437   3.022   4.531 -0.0838 -0.1330 -0.3246
 1731SOL    HW1 5771   2.475   2.953   4.476  0.8209  1.3587 -1.6555
 1731SOL    HW2 5772   2.388   3.077   4.470 -0.4383  0.6397  0.6324
 1732SOL     OW 5773   0.286   3.295   4.506 -0.4396  0.5500  0.3900
 1732SOL    HW1 5774   0.301   3.352   4.430 -1.0656  0.9929  0.5948
 1732SOL    HW2 5775   0.192   3.281   4.507 -0.1411 -2.4475 -1.0653
 1733SOL     OW 5776   6.674   3.222   3.463 -0.1565 -0.0090 -0.0120
 1733SOL    HW1 5777   6.598   3.175   3.496 -1.3254  0.1816 -2.2275
 1733SOL    HW2 5778   6.723   3.246   3.541 -1.7611 -1.1357  1.4234
 1734SOL     OW 5779   5.769   8.855   4.786 -0.5875  0.0066  0.0371
 1734SOL    HW1 5780   5.758   8.823   4.876  0.4736 -1.5231 -0.3495
 1734SOL    HW2 5781   5.811   8.940   4.796 -1.6570  0.4480  1.0216
 1735SOL     OW 5782   5.632   9.790   4.787 -0.1862 -0.0979 -0.4715
 1735SOL    HW1 5783   5.541   9.817   4.799 -0.5969 -1.8264  0.7031
 1735SOL    HW2 5784   5.641   9.777   4.693 -0.9692  0.6241 -0.6619
 1736SOL     OW 5785   9.827   1.860   9.414 -0.1173 -0.0831  0.7600
 1736SOL    HW1 5786   9.750   1.917   9.415  0.2693  0.4482  0.7321
 1736SOL    HW2 5787   9.795   1.776   9.448 -0.5506  0.3354  1.4070
 1737SOL     OW 5788   3.216   1.227   8.764 -0.1393 -0.1805 -0.1140
 1737SOL    HW1 5789   3.252   1.161   8.704 -1.6413 -0.8203 -0.3642
 1737SOL    HW2 5790   3.122   1.228   8.744 -0.5670  0.0858  1.7459
 1738SOL     OW 5791   9.968   0.346   4.508 -0.2376 -0.1893  0.6700
 1738SOL    HW1 5792   9.979   0.440   4.521 -2.1883  0.1435  0.1943
 1738SOL    HW2 5793   9.881   0.337   4.470 -0.1425 -2.2122  0.8236
 1739SOL     OW 5794   2.121   4.892   3.169  0.1229  0.1309 -0.4496
 1739SOL    HW1 5795   2.153   4.918   3.083  1.0537 -0.5541 -0.3250
 1739SOL    HW2 5796   2.122   4.796   3.167  1.1901  0.0911  0.6779
 1740SOL     OW 5797   1.873  10.002   9.178  0.6275 -0.3164 -0.0566
 1740SOL    HW1 5798   1.910   9.942   9.243  1.2636 -2.2150 -2.0595
 1740SOL    HW2 5799   1.781   9.976   9.172  0.4853  0.0951  0.3306
 1741SOL     OW 5800   4.932   6.002   1.266 -0.2509 -0.2401  0.1872
 1741SOL    HW1 5801   4.920   6.023   1.359  1.8075 -1.8389  0.8975
 1741SOL    HW2 5802   4.999   5.933   1.266  1.7833  1.5328 -2.6269
 1742SOL     OW 5803   9.839   5.475   3.782  0.0610  0.5272 -0.1926
 1742SOL    HW1 5804   9.823   5.381   3.785  0.6958  0.4421  1.3654
 1742SOL    HW2 5805   9.802   5.509   3.863 -2.6403  2.0927 -1.9352
 1743SOL     OW 5806   8.808   0.523   5.777  0.4284 -0.0204  0.5184
 1743SOL    HW1 5807   8.873   0.485   5.836 -0.6199  1.1656  2.5561
 1743SOL    HW2 5808   8.735   0.461   5.778  1.1917 -1.0142 -1.2303
 1744SOL     OW 5809   3.466   0.932   5.786 -0.9298 -0.1020  0.6020
 1744SOL    HW1 5810   3.562   0.933   5.790 -0.9651 -0.1764  2.0174
 1744SOL    HW2 5811   3.442   1.024   5.782 -0.7987 -0.1003 -0.6971
 1745SOL     OW 5812   4.867   7.318   1.527 -0.2506  0.8250 -0.7996
 1745SOL    HW1 5813   4.871   7.223   1.530  1.8987  0.8407 -1.4919
 1745SOL    HW2 5814   4.942   7.347   1.579 -1.7000  2.2081  0.6569
 1746SOL     OW 5815   8.186   4.287   8.821 -0.3670 -0.1000 -0.3141
 1746SOL    HW1 5816   8.256   4.278   8.886 -0.1298 -1.4102 -0.7016
 1746SOL    HW2 5817   8.182   4.380   8.802  1.6385 -0.0317 -0.6263
 1747SOL     OW 5818   1.591   4.421   5.821  0.1621 -0.8306  0.4049
 1747SOL    HW1 5819   1.590   4.473   5.901 -1.1363  1.5406 -1.0408
 1747SOL    HW2 5820   1.581   4.331   5.852  0.6594 -0.1144  2.9407
 1748SOL     OW 5821   0.733   3.212   2.594  0.2409 -0.2059  0.0543
 1748SOL    HW1 5822   0.769   3.135   2.551  0.2917 -1.4150  2.1316
 1748SOL    HW2 5823   0.639   3.195   2.599  0.2513 -0.1255  0.5201
 1749SOL     OW 5824   8.588   1.960   3.871 -0.0751 -0.5795 -0.0479
 1749SOL    HW1 5825   8.577   1.954   3.776  0.4396 -1.6835 -0.0492
 1749SOL    HW2 5826   8.678   1.989   3.883 -0.5254  0.8363  0.0991
 1750SOL     OW 5827   5.741   5.210   3.053 -0.4492  0.1902  0.7232
 1750SOL    HW1 5828   5.756   5.132   3.000 -1.6758  0.3963  0.0549
 1750SOL    HW2 5829   5.713   5.177   3.138  1.0413 -0.1250  1.1341
 1751SOL     OW 5830   2.677   0.402   2.644 -0.5221 -0.3973  0.6264
 1751SOL    HW1 5831   2.639   0.404   2.556  0.7228  0.9324  0.0850
 1751SOL    HW2 5832   2.687   0.309   2.664 -4.3525 -0.9101  0.9961
 1752SOL     OW 5833   5.059   5.453   8.755 -0.2699  0.3408  0.2570
 1752SOL    HW1 5834   5.002   5.416   8.822 -0.3453  0.1060  0.0645
 1752SOL    HW2 5835   5.075   5.543   8.784  0.3481  0.0037  1.0070
 1753SOL     OW 5836   7.441   7.977   2.391 -0.1685 -0.6706 -0.2890
 1753SOL    HW1 5837   7.433   8.050   2.330  0.3104 -1.7687 -1.7199
 1753SOL    HW2 5838   7.417   7.900   2.340 -1.0605 -1.4945  1.3013
 1754SOL     OW 5839   1.504   1.504   0.081 -0.1460  0.1786 -0.2550
 1754SOL    HW1 5840   1.463   1.567   0.141 -0.0674 -0.7631  0.8256
 1754SOL    HW2 5841   1.589   1.486   0.121 -0.1746 -0.6115 -0.5426
 1755SOL     OW 5842   8.192   4.577   8.113  0.0795  0.1682  0.3880
 1755SOL    HW1 5843   8.278   4.619   8.113  0.7165 -1.0681  0.6766
 1755SOL    HW2 5844   8.129   4.649   8.115  1.1160  1.0900  0.4605
 1756SOL     OW 5845   9.859   9.120   4.826  0.2725 -0.2311  0.3976
 1756SOL    HW1 5846   9.766   9.140   4.835  0.4998  0.9095  0.2616
 1756SOL    HW2 5847   9.884   9.085   4.912 -0.2617 -0.5111  0.4456
 1757SOL     OW 5848   3.375   0.783   0.482 -0.4404  0.2515 -0.2301
 1757SOL    HW1 5849   3.318   0.856   0.458 -0.6745  0.3391  0.5607
 1757SOL    HW2 5850   3.396   0.798   0.574 -1.5772 -1.3880  0.3426
 1758SOL     OW 5851   2.210   5.192   4.103  0.0218 -0.0330  0.0775
 1758SOL    HW1 5852   2.289   5.137   4.101 -0.0825 -0.1840 -1.3333
 1758SOL    HW2 5853   2.145   5.138   4.149  0.1540 -0.7967 -0.5921
 1759SOL     OW 5854   5.078   3.527   4.412  0.6337 -0.4384 -0.1909
 1759SOL    HW1 5855   5.096   3.588   4.340  2.1055  1.0011  1.3020
 1759SOL    HW2 5856   5.015   3.574   4.468  1.7487 -0.2362  0.9531
 1760SOL     OW 5857   9.251   6.746   8.444  0.0056  0.0709 -0.2422
 1760SOL    HW1 5858   9.182   6.736   8.509 -0.0735  1.6048 -0.0391
 1760SOL    HW2 5859   9.331   6.762   8.495  0.0076  0.9260 -0.4984
 1761SOL     OW 5860   0.349   3.374   1.776 -0.2680  0.1114 -0.5659
 1761SOL    HW1 5861   0.430   3.326   1.792 -0.5005 -0.7130 -1.7430
 1761SOL    HW2 5862   0.363   3.419   1.693 -1.1946 -0.4497 -1.0395
 1762SOL     OW 5863   6.640   9.038   6.209  0.6283 -0.2679 -0.2924
 1762SOL    HW1 5864   6.595   9.031   6.125  2.2547  1.4467 -1.4035
 1762SOL    HW2 5865   6.629   9.130   6.233  0.2559 -0.7241  1.3565
 1763SOL     OW 5866   6.848   5.265   6.893 -0.0172 -0.2712 -0.0061
 1763SOL    HW1 5867   6.895   5.251   6.975 -2.0330  0.7778  1.4371
 1763SOL    HW2 5868   6.886   5.346   6.857 -0.5242  0.4391  1.0174
 1764SOL     OW 5869   8.271   5.807   1.567 -0.5950  0.7435 -0.6822
 1764SOL    HW1 5870   8.229   5.863   1.633  1.8079  0.3709  1.2947
 1764SOL    HW2 5871   8.358   5.846   1.554  1.2270 -2.4404  0.8357
 1765SOL     OW 5872   8.449   2.673   3.474 -0.6754 -0.2003  0.4616
 1765SOL    HW1 5873   8.451   2.632   3.387 -1.1789 -0.4510  0.5657
 1765SOL    HW2 5874   8.438   2.600   3.535  1.2165 -0.2088  0.8728
 1766SOL     OW 5875   4.114   9.309   3.153 -0.0873 -0.1755 -0.4619
 1766SOL    HW1 5876   4.077   9.223   3.176 -0.1273  0.2054  1.0146
 1766SOL    HW2 5877   4.208   9.300   3.171  0.0125 -0.1024 -0.9367
 1767SOL     OW 5878   8.409   0.825   4.224 -0.1197 -0.4890 -0.2040
 1767SOL    HW1 5879   8.336   0.867   4.179 -0.8347  0.5146  1.7682
 1767SOL    HW2 5880   8.377   0.738   4.247  0.4591 -1.2437 -2.0360
 1768SOL     OW 5881   8.609   1.870   7.344  0.2161 -0.1008 -0.1770
 1768SOL    HW1 5882   8.573   1.838   7.427  0.6829 -0.1908 -0.0076
 1768SOL    HW2 5883   8.545   1.841   7.278 -0.1506 -0.0417  0.1454
 1769SOL     OW 5884   2.604   1.756   4.660 -0.4427 -0.5465  0.7835
 1769SOL    HW1 5885   2.675   1.751   4.597 -2.2141  0.3023 -1.4006
 1769SOL    HW2 5886   2.641   1.801   4.736  0.8020  1.8694 -1.1454
 1770SOL     OW 5887   4.818   4.015   5.449 -0.3978  0.0895 -0.2747
 1770SOL    HW1 5888   4.865   3.976   5.375 -1.9542 -1.3244 -0.5762
 1770SOL    HW2 5889   4.780   4.095   5.413  0.3868  0.3647 -0.4941
 1771SOL     OW 5890   3.099   1.325   8.291 -0.3857  0.0218 -0.1906
 1771SOL    HW1 5891   3.146   1.300   8.211 -0.2177  1.7867 -0.6986
 1771SOL    HW2 5892   3.168   1.333   8.357 -0.4538 -0.8828  0.0038
 1772SOL     OW 5893   4.370   0.134   7.807 -0.1479 -0.1617  0.3898
 1772SOL    HW1 5894   4.425   0.066   7.846 -0.2662  0.8857  2.5416
 1772SOL    HW2 5895   4.294   0.087   7.773  0.7221 -1.3054 -0.0619
 1773SOL     OW 5896   9.998   0.160   5.623 -0.2968  0.9167  0.2442
 1773SOL    HW1 5897   9.994   0.246   5.663  0.6796  1.1165 -0.0554
 1773SOL    HW2 5898   9.915   0.151   5.577  0.0264  2.1648 -0.6393
 1774SOL     OW 5899   6.233   6.606   5.464 -0.1893  0.0210  0.4188
 1774SOL    HW1 5900   6.234   6.673   5.395 -1.1570 -0.1386  0.2356
 1774SOL    HW2 5901   6.193   6.650   5.539 -0.2351 -0.1573  0.4991
 1775SOL     OW 5902   0.378   9.304   4.096 -0.5720  0.2967 -0.3890
 1775SOL    HW1 5903   0.349   9.333   4.182  1.0070 -3.7642  1.7676
 1775SOL    HW2 5904   0.458   9.355   4.079 -0.5735  0.7227  0.8300
 1776SOL     OW 5905   2.049   2.274   4.634  0.0647 -0.0296  0.3863
 1776SOL    HW1 5906   2.051   2.368   4.614 -1.1039  0.4834  2.4100
 1776SOL    HW2 5907   1.967   2.243   4.596  1.0030 -0.5457 -1.3236
 1777SOL     OW 5908   7.563   2.599   8.220  0.1647 -0.3996  0.4438
 1777SOL    HW1 5909   7.603   2.513   8.235  0.1827 -0.2690  1.1741
 1777SOL    HW2 5910   7.602   2.629   8.138 -0.5761 -1.5075 -0.3447
 1778SOL     OW 5911   0.496   9.453   9.530 -0.1557  0.3539 -0.6387
 1778SOL    HW1 5912   0.422   9.433   9.587 -0.8818 -1.6763 -2.1532
 1778SOL    HW2 5913   0.568   9.473   9.590 -0.9775 -1.3072  1.0049
 1779SOL     OW 5914   2.651   0.622   3.177  0.2950  0.0126  0.1499
 1779SOL    HW1 5915   2.660   0.709   3.137 -1.1659  0.1839  0.1425
 1779SOL    HW2 5916   2.621   0.640   3.266  0.8098 -0.4642  0.4230
 1780SOL     OW 5917   8.247   7.928   1.070 -0.1826  0.2156  0.1862
 1780SOL    HW1 5918   8.262   7.881   1.152  1.0414  0.9593  0.4003
 1780SOL    HW2 5919   8.266   8.019   1.090  3.7395  0.0238 -1.7305
 1781SOL     OW 5920   9.151   1.209   0.519 -0.1161 -0.1648 -0.2005
 1781SOL    HW1 5921   9.216   1.163   0.573 -1.1814 -2.9241 -1.1075
 1781SOL    HW2 5922   9.192   1.214   0.432 -0.7324 -1.2120 -0.5777
 1782SOL     OW 5923   2.874   4.549   8.609 -0.7423 -0.0067 -0.0175
 1782SOL    HW1 5924   2.944   4.606   8.576 -1.3728  1.9319  1.7452
 1782SOL    HW2 5925   2.908   4.513   8.690 -0.5986 -1.7077 -0.8050
 1783SOL     OW 5926   6.813   7.717   5.258 -0.5732  0.0020  0.0114
 1783SOL    HW1 5927   6.757   7.792   5.240 -1.2800 -0.6717 -0.6718
 1783SOL    HW2 5928   6.894   7.755   5.294 -1.0513  1.0523  0.0056
 1784SOL     OW 5929   3.144   1.999   6.739  0.2484 -0.3658  0.2393
 1784SOL    HW1 5930   3.090   1.937   6.688  1.1629  1.1306 -2.8193
 1784SOL    HW2 5931   3.084   2.071   6.760  0.2393 -0.2447 -0.1863
 1785SOL     OW 5932   3.685   2.811   4.566 -0.2436 -0.3870 -0.4433
 1785SOL    HW1 5933   3.717   2.732   4.523 -1.2412 -1.3575  0.5513
 1785SOL    HW2 5934   3.736   2.882   4.527  1.1753 -1.5892 -0.8458
 1786SOL     OW 5935   6.962   9.476   6.681  0.7535 -0.4864  0.5479
 1786SOL    HW1 5936   6.986   9.385   6.699  1.0665 -0.5443 -0.1291
 1786SOL    HW2 5937   7.038   9.527   6.710  0.1984 -0.3421  1.8268
 1787SOL     OW 5938   9.628   3.294   4.964 -0.3175 -0.3516 -0.2393
 1787SOL    HW1 5939   9.610   3.356   5.034 -0.9446 -1.8333  0.9745
 1787SOL    HW2 5940   9.677   3.223   5.007  0.2976 -0.7684 -1.5542
 1788SOL     OW 5941   9.056   0.817   2.298 -0.2165  0.2953  0.1624
 1788SOL    HW1 5942   9.117   0.876   2.254 -1.3581  0.4629 -1.2666
 1788SOL    HW2 5943   9.055   0.738   2.243 -0.4955 -0.1281  0.7570
 1789SOL     OW 5944   3.819   6.370   6.875  0.7324 -0.0346  0.3895
 1789SOL    HW1 5945   3.753   6.301   6.879  0.4607  0.2840  2.2533
 1789SOL    HW2 5946   3.868   6.362   6.956  2.6032  0.1620 -0.6523
 1790SOL     OW 5947   3.762   3.480   3.240  0.0138  0.2622 -0.6438
 1790SOL    HW1 5948   3.801   3.397   3.269  3.0114  1.9166  0.4581
 1790SOL    HW2 5949   3.718   3.514   3.318 -1.8891 -0.5218 -1.2934
 1791SOL     OW 5950   6.378   0.819   6.466  0.2572  0.0665 -0.2728
 1791SOL    HW1 5951   6.379   0.797   6.373  1.0377 -0.0323 -0.2483
 1791SOL    HW2 5952   6.285   0.822   6.489  0.0759 -1.2649 -0.7308
 1792SOL     OW 5953   0.714   0.471   5.569 -0.5974  0.6429 -0.2600
 1792SOL    HW1 5954   0.733   0.435   5.656 -0.4058 -1.3275 -1.0654
 1792SOL    HW2 5955   0.627   0.511   5.579 -2.2849 -2.7004  0.0601
 1793SOL     OW 5956   1.190   9.225   4.621 -0.0209 -0.1380  0.0437
 1793SOL    HW1 5957   1.232   9.311   4.626  0.8109 -0.4802 -0.7946
 1793SOL    HW2 5958   1.210   9.184   4.705  0.7051 -0.0114 -0.0630
 1794SOL     OW 5959   9.688   3.088   9.001 -0.3032  0.0329  0.1506
 1794SOL    HW1 5960   9.710   3.083   9.095  0.5392  0.1172 -0.0313
 1794SOL    HW2 5961   9.676   3.181   8.985 -0.5487  0.0088  0.1991
 1795SOL     OW 5962   6.416   4.866   2.129 -0.5707  0.0772 -0.8386
 1795SOL    HW1 5963   6.424   4.794   2.066 -1.8933  0.1359 -1.1042
 1795SOL    HW2 5964   6.322   4.885   2.131 -0.6466 -0.3367  1.6151
 1796SOL     OW 5965   6.675   8.385   8.806 -0.0448  0.5391 -0.2048
 1796SOL    HW1 5966   6.725   8.461   8.776  0.0760  0.7499  0.4953
 1796SOL    HW2 5967   6.700   8.375   8.898  1.1994 -1.3577 -0.6858
 1797SOL     OW 5968   0.778   6.813   5.193  0.8459 -0.1190  0.3460
 1797SOL    HW1 5969   0.783   6.907   5.213  0.8642  0.3868 -1.7500
 1797SOL    HW2 5970   0.697   6.804   5.142  0.7932 -1.2752  0.6059
 1798SOL     OW 5971   6.639   9.017   7.433 -0.5679  0.9253  0.1724
 1798SOL    HW1 5972   6.586   8.961   7.376  0.2811 -0.1607  0.4045
 1798SOL    HW2 5973   6.601   9.005   7.520 -0.1646  0.4018  0.2835
 1799SOL     OW 5974   2.633   7.543   1.734 -0.6368  0.2991 -0.2112
 1799SOL    HW1 5975   2.577   7.524   1.659  0.5289 -0.3710 -0.9378
 1799SOL    HW2 5976   2.710   7.586   1.697  0.6328 -1.3457  0.3623
 1800SOL     OW 5977   0.365   4.079   2.455 -0.3362  0.0477  0.2118
 1800SOL    HW1 5978   0.427   4.099   2.525  0.5328  0.8155 -0.7521
 1800SOL    HW2 5979   0.280   4.075   2.499  0.1368  0.9228  1.2441
 1801SOL     OW 5980   9.218   5.277   3.084  0.1796 -0.1201  0.0177
 1801SOL    HW1 5981   9.145   5.286   3.146  1.1964  1.3201  1.0576
 1801SOL    HW2 5982   9.260   5.195   3.108  0.6560  0.5028  1.3704
 1802SOL     OW 5983   2.208   8.025   6.697  0.3441  0.3200 -0.1703
 1802SOL    HW1 5984   2.159   8.062   6.770  1.0466  0.2252  0.3611
 1802SOL    HW2 5985   2.300   8.044   6.718  0.6159 -0.4954 -0.5826
 1803SOL     OW 5986   3.327   6.776   9.608 -0.5279  0.0586  0.0931
 1803SOL    HW1 5987   3.331   6.823   9.691 -0.3341  0.1979  0.0045
 1803SOL    HW2 5988   3.271   6.831   9.552 -0.0736  0.3262 -0.1008
 1804SOL     OW 5989   8.235   3.901   6.283 -0.4733 -0.2759  0.0018
 1804SOL    HW1 5990   8.268   3.877   6.369  0.3400 -0.4345 -0.3486
 1804SOL    HW2 5991   8.201   3.990   6.294 -2.5375 -1.1164  1.0484
 1805SOL     OW 5992   8.460   5.889   5.138  0.4511  0.6351 -0.2409
 1805SOL    HW1 5993   8.389   5.868   5.198  0.2602  1.1317 -0.2900
 1805SOL    HW2 5994   8.535   5.840   5.172 -0.0772 -0.4315 -0.5877
 1806SOL     OW 5995   5.368   8.321   9.022 -0.4657 -0.0915  0.1575
 1806SOL    HW1 5996   5.458   8.304   8.995 -0.4191 -0.0945  0.3130
 1806SOL    HW2 5997   5.368   8.306   9.117 -0.0326  2.3555  0.6106
 1807SOL     OW 5998   6.635   7.602   5.710  0.7166  0.1639 -0.3500
 1807SOL    HW1 5999   6.632   7.514   5.673  0.8254 -0.2074  0.4915
 1807SOL    HW2 6000   6.689   7.652   5.649  1.3979 -0.5819 -0.3810
 1808SOL     OW 6001   7.352   5.555   3.995 -0.2974 -0.0304  0.0292
 1808SOL    HW1 6002   7.345   5.584   4.086  1.2989 -1.0123  0.5219
 1808SOL    HW2 6003   7.423   5.491   3.996  0.4067  0.6266 -2.0892
 1809SOL     OW 6004   3.384   3.167   6.398  0.0724  0.3318 -0.1282
 1809SOL    HW1 6005   3.338   3.212   6.328 -0.2982  1.7035  0.9667
 1809SOL    HW2 6006   3.382   3.227   6.472  1.1013 -0.7694  0.8518
 1810SOL     OW 6007   9.835   9.329   6.905 -0.3648 -0.4805 -0.3613
 1810SOL    HW1 6008   9.803   9.371   6.984 -0.8673 -0.6683 -0.4627
 1810SOL    HW2 6009   9.916   9.375   6.884  0.7240 -1.5468  1.2424
 1811SOL     OW 6010   3.598   1.910   7.276 -0.0706  0.1128  0.7130
 1811SOL    HW1 6011   3.678   1.857   7.274  0.0672  0.2213  2.0779
 1811SOL    HW2 6012   3.532   1.851   7.312 -0.4274  0.2534  0.2936
 1812SOL     OW 6013   1.784   4.110   6.177 -0.1568 -0.0350 -0.6077
 1812SOL    HW1 6014   1.837   4.078   6.104  0.6020 -1.3848  0.4744
 1812SOL    HW2 6015   1.705   4.055   6.176 -0.6056  0.6124 -1.0049
 1813SOL     OW 6016   1.126   5.308   8.707 -0.7846  0.3667 -0.0357
 1813SOL    HW1 6017   1.155   5.227   8.666  0.7440  1.1925 -0.7029
 1813SOL    HW2 6018   1.097   5.282   8.794  0.0595 -0.8568 -0.0875
 1814SOL     OW 6019   8.132   5.020   0.189 -0.2717 -0.5438  0.5784
 1814SOL    HW1 6020   8.202   4.966   0.152 -0.4361  0.9926 -2.1765
 1814SOL    HW2 6021   8.158   5.034   0.280  1.2272 -2.8044  0.5730
 1815SOL     OW 6022   6.277   0.609   1.116  0.2283 -0.1342 -0.3875
 1815SOL    HW1 6023   6.345   0.676   1.109 -0.9223  1.0555 -0.6635
 1815SOL    HW2 6024   6.213   0.648   1.176 -1.5140 -0.0301 -2.2214
 1816SOL     OW 6025   3.406   6.028   6.177  0.7035  0.2129 -0.1937
 1816SOL    HW1 6026   3.339   6.058   6.239  1.6027  1.1536  0.3509
 1816SOL    HW2 6027   3.374   6.056   6.091 -0.5074 -1.0170 -0.1863
 1817SOL     OW 6028   6.341   0.895   1.423  0.2866 -0.3312 -0.2174
 1817SOL    HW1 6029   6.301   0.980   1.443 -0.0644 -0.6091  0.2641
 1817SOL    HW2 6030   6.427   0.899   1.465 -0.4012 -0.8702  1.3219
 1818SOL     OW 6031   7.759   4.561   9.837 -0.3405 -0.6001  0.0487
 1818SOL    HW1 6032   7.730   4.485   9.787 -0.0498 -0.3441 -0.5174
 1818SOL    HW2 6033   7.732   4.543   9.927 -0.4088 -1.2965 -0.1110
 1819SOL     OW 6034   0.891   1.862   7.539  0.1050  0.0063  0.2600
 1819SOL    HW1 6035   0.911   1.771   7.517  0.5576 -0.0764  0.9799
 1819SOL    HW2 6036   0.957   1.913   7.492  0.5699 -0.1171  0.7696
 1820SOL     OW 6037   1.203   3.030   1.102  0.6787 -0.1538 -0.1356
 1820SOL    HW1 6038   1.206   3.126   1.099  1.5897 -0.1941 -0.7880
 1820SOL    HW2 6039   1.126   3.006   1.050  2.4274  0.1126 -3.0221
 1821SOL     OW 6040   7.349   8.877   1.390 -0.5876 -0.4286 -0.1616
 1821SOL    HW1 6041   7.376   8.968   1.375 -1.9169 -0.2718 -1.8237
 1821SOL    HW2 6042   7.425   8.837   1.433  0.8762  0.9118 -1.3722
 1822SOL     OW 6043   3.253   6.090   7.482 -0.1999  0.0966 -0.0594
 1822SOL    HW1 6044   3.162   6.059   7.482  0.0184 -0.5469 -0.0149
 1822SOL    HW2 6045   3.251   6.169   7.536 -0.8970  0.5789 -0.7496
 1823SOL     OW 6046   4.963   0.825   9.289 -0.2935  0.1235 -0.6924
 1823SOL    HW1 6047   4.893   0.763   9.272 -0.4532  0.1833 -0.2754
 1823SOL    HW2 6048   4.977   0.869   9.205  0.0805 -0.7297 -1.0909
 1824SOL     OW 6049   6.562   3.665   1.544 -0.0756  0.0902 -0.3048
 1824SOL    HW1 6050   6.619   3.694   1.615  0.5379  2.2466 -1.5771
 1824SOL    HW2 6051   6.580   3.572   1.535  0.8731  0.0661  1.4007
 1825SOL     OW 6052   2.173   4.569   4.754  0.3956  0.2480 -0.1821
 1825SOL    HW1 6053   2.161   4.503   4.822  2.3136 -0.7055 -0.6950
 1825SOL    HW2 6054   2.239   4.532   4.696  1.2704  2.4582 -0.6973
 1826SOL     OW 6055   9.686   0.546   9.211  0.1543 -0.3530 -0.1528
 1826SOL    HW1 6056   9.614   0.485   9.230 -0.9293  1.0851  0.6189
 1826SOL    HW2 6057   9.733   0.555   9.293  0.0168  0.1952 -0.1277
 1827SOL     OW 6058   2.292   6.391   5.732  0.2308 -0.5489 -0.2340
 1827SOL    HW1 6059   2.350   6.315   5.732  0.8739 -0.1052 -1.7048
 1827SOL    HW2 6060   2.242   6.383   5.650 -0.9058 -0.2617  0.4046
 1828SOL     OW 6061   8.836   0.540   0.462 -0.6956  0.0134  0.1786
 1828SOL    HW1 6062   8.906   0.499   0.411 -1.4268  0.5362 -1.2806
 1828SOL    HW2 6063   8.796   0.604   0.403 -1.0837  1.2031  1.6607
 1829SOL     OW 6064   8.364   6.983   7.868 -0.0080 -0.3775 -0.3868
 1829SOL    HW1 6065   8.419   6.964   7.792  0.5004 -0.2546 -0.0559
 1829SOL    HW2 6066   8.409   7.055   7.912 -1.6776  1.3729 -1.3912
 1830SOL     OW 6067   2.907   7.312   4.998  0.2292  0.0561  0.4818
 1830SOL    HW1 6068   2.822   7.300   4.957  0.7378  1.8659 -1.2702
 1830SOL    HW2 6069   2.897   7.390   5.052  0.3747 -0.6280  1.5228
 1831SOL     OW 6070   7.461   4.822   1.437  0.0950  0.5787  0.0901
 1831SOL    HW1 6071   7.439   4.856   1.524  1.1890 -0.2475  0.7083
 1831SOL    HW2 6072   7.552   4.848   1.424 -0.0275  0.5848 -0.7602
 1832SOL     OW 6073   8.176   5.313   7.796 -0.2297  0.3340  0.3946
 1832SOL    HW1 6074   8.177   5.271   7.710 -0.9558  0.8731  0.1116
 1832SOL    HW2 6075   8.098   5.277   7.839  0.0038  0.2405  0.7412
 1833SOL     OW 6076   2.072   4.376   7.115  0.0845  0.2738  0.1708
 1833SOL    HW1 6077   2.022   4.352   7.037 -0.2865  1.2083  0.1122
 1833SOL    HW2 6078   2.006   4.392   7.182  0.4001 -0.5926  0.7187
 1834SOL     OW 6079   7.776   9.917   5.680  0.3523  0.0217 -0.3074
 1834SOL    HW1 6080   7.703   9.974   5.656  0.7530  0.3453 -0.7799
 1834SOL    HW2 6081   7.841   9.931   5.611 -0.2893 -2.4023 -1.5118
 1835SOL     OW 6082   7.452   7.719   0.932 -0.1867  0.0537  0.2840
 1835SOL    HW1 6083   7.544   7.722   0.959  0.7238  0.2122 -2.5107
 1835SOL    HW2 6084   7.433   7.626   0.922 -0.7832 -0.0551  2.0577
 1836SOL     OW 6085   8.879   5.832   6.439  0.5525  0.3081 -0.3108
 1836SOL    HW1 6086   8.953   5.853   6.496  0.0823  1.9048 -0.2399
 1836SOL    HW2 6087   8.909   5.854   6.351  0.7068 -0.5854 -0.4894
 1837SOL     OW 6088   2.805   6.081   3.888 -0.4092 -0.2527  0.4456
 1837SOL    HW1 6089   2.867   6.008   3.894 -0.1412 -0.1806 -1.0940
 1837SOL    HW2 6090   2.719   6.042   3.903 -0.2492 -0.8621 -0.2084
 1838SOL     OW 6091   3.431   4.788   3.415  0.5757 -0.3171  0.2887
 1838SOL    HW1 6092   3.471   4.818   3.496  0.8525 -1.2304  0.5014
 1838SOL    HW2 6093   3.340   4.771   3.437  0.3482  0.5984  0.1005
 1839SOL     OW 6094   3.891   0.796   3.098  0.2844 -0.2998  0.2166
 1839SOL    HW1 6095   3.929   0.848   3.027  0.6127  0.6662  1.0733
 1839SOL    HW2 6096   3.842   0.859   3.150 -0.4716 -1.1100  0.5083
 1840SOL     OW 6097   8.106   1.947   4.089 -0.2941  0.5438  0.4312
 1840SOL    HW1 6098   8.077   1.993   4.010 -1.0304 -0.0702  0.3275
 1840SOL    HW2 6099   8.195   1.920   4.069 -0.6868 -0.1610 -0.4578
 1841SOL     OW 6100   4.320   5.320   2.690  0.0755 -0.8144  0.1298
 1841SOL    HW1 6101   4.355   5.363   2.768 -1.1107 -3.0252  2.0048
 1841SOL    HW2 6102   4.327   5.226   2.708 -0.8351 -1.4041 -2.1594
 1842SOL     OW 6103   3.105   0.358   4.510 -0.3132  0.3367 -0.4045
 1842SOL    HW1 6104   3.077   0.357   4.601  1.1747  1.5260  0.1134
 1842SOL    HW2 6105   3.195   0.392   4.513 -1.3642  3.7376 -2.5847
 1843SOL     OW 6106   4.532   2.477   9.365  0.6767 -0.0646  0.1706
 1843SOL    HW1 6107   4.592   2.414   9.327  1.1674  0.5952 -0.1559
 1843SOL    HW2 6108   4.583   2.557   9.376  0.0342  0.3204  0.4746
 1844SOL     OW 6109   9.684   0.980   0.569  0.1350 -0.3050 -0.1119
 1844SOL    HW1 6110   9.769   0.937   0.578  0.1706 -0.1935  0.0881
 1844SOL    HW2 6111   9.672   0.990   0.474  0.9128  0.7956 -0.1185
 1845SOL     OW 6112   7.806   8.430   7.062 -0.0217 -0.3118 -0.3452
 1845SOL    HW1 6113   7.758   8.465   7.137 -0.8783 -0.1965 -0.9260
 1845SOL    HW2 6114   7.746   8.365   7.024  0.7520 -0.9864 -0.4322
 1846SOL     OW 6115   5.088   8.093   9.743 -0.5047 -0.1502  0.0257
 1846SOL    HW1 6116   5.044   8.037   9.679  0.3706 -0.3657 -0.4119
 1846SOL    HW2 6117   5.155   8.139   9.693  0.6655 -0.8453  0.9011
 1847SOL     OW 6118   8.785   3.621   6.945  0.0083 -0.0623 -0.5360
 1847SOL    HW1 6119   8.868   3.574   6.931  0.0485  0.0950 -0.8357
 1847SOL    HW2 6120   8.720   3.552   6.957  0.1240 -0.1923 -0.6462
 1848SOL     OW 6121   9.527   3.651   4.048 -0.2061 -0.1754  0.4057
 1848SOL    HW1 6122   9.581   3.650   4.128  1.4849  2.7156 -0.5449
 1848SOL    HW2 6123   9.583   3.611   3.981 -0.5410 -0.1477  0.1095
 1849SOL     OW 6124   7.337   2.079   8.403 -0.0070  0.1951  0.3381
 1849SOL    HW1 6125   7.317   2.065   8.496 -0.3404  0.0086  0.2392
 1849SOL    HW2 6126   7.300   2.165   8.383 -0.1188  0.1440  0.3257
 1850SOL     OW 6127   6.270   9.593   7.294 -0.3606  0.6628  0.2773
 1850SOL    HW1 6128   6.277   9.661   7.227 -2.8454  0.6750 -0.0566
 1850SOL    HW2 6129   6.256   9.512   7.245  0.7782  0.1793  0.7263
 1851SOL     OW 6130   3.864   9.935   1.251  0.3276 -0.3040  0.3745
 1851SOL    HW1 6131   3.843   9.846   1.224  0.3003 -0.2871  0.3396
 1851SOL    HW2 6132   3.921   9.968   1.181  0.9382 -0.5457  0.7502
 1852SOL     OW 6133   3.546   2.854   7.727  0.3171  0.2740  0.5261
 1852SOL    HW1 6134   3.547   2.897   7.642  1.1518  0.4461  0.6139
 1852SOL    HW2 6135   3.522   2.763   7.708  0.1649  0.3927  0.1513
 1853SOL     OW 6136   4.123   3.743   2.922 -0.4033  0.4321 -0.2562
 1853SOL    HW1 6137   4.138   3.657   2.881 -1.6312  0.3739 -0.6265
 1853SOL    HW2 6138   4.028   3.755   2.917 -0.5646  0.6286  2.1906
 1854SOL     OW 6139   2.782   9.378   9.646 -0.1498 -0.6260 -0.0015
 1854SOL    HW1 6140   2.772   9.460   9.597  1.6771 -0.5832 -0.3808
 1854SOL    HW2 6141   2.780   9.405   9.738  1.8739  0.1110 -0.1184
 1855SOL     OW 6142   8.504   4.789   2.629  0.5485  0.2369 -0.4942
 1855SOL    HW1 6143   8.441   4.717   2.629  1.1052 -0.3147  1.8412
 1855SOL    HW2 6144   8.514   4.812   2.536 -2.7896  0.1390 -0.9699
 1856SOL     OW 6145   5.634   1.149   1.606 -0.1285  0.0749  0.1253
 1856SOL    HW1 6146   5.678   1.082   1.658 -1.1846  0.7827  2.0306
 1856SOL    HW2 6147   5.542   1.141   1.630 -0.1060  3.2930  1.7875
 1857SOL     OW 6148   8.422   9.848   3.614 -0.0812 -0.2125 -0.2573
 1857SOL    HW1 6149   8.360   9.832   3.543  0.7506  0.9733 -1.2771
 1857SOL    HW2 6150   8.465   9.930   3.591  1.2929 -0.5837  0.8485
 1858SOL     OW 6151   0.555   4.439   4.280 -0.0145  0.0171  0.1629
 1858SOL    HW1 6152   0.605   4.362   4.254 -0.8600 -0.5427  0.1738
 1858SOL    HW2 6153   0.609   4.482   4.346  0.3817 -0.6515  0.2778
 1859SOL     OW 6154   2.452   5.179   6.130  0.0882 -0.0092  0.2540
 1859SOL    HW1 6155   2.365   5.182   6.091  0.1812  0.9331  0.0934
 1859SOL    HW2 6156   2.469   5.269   6.159  0.8641 -0.2538  0.6029
 1860SOL     OW 6157   7.460   6.183   0.635 -0.5702  0.3014  0.2553
 1860SOL    HW1 6158   7.399   6.225   0.695  0.0871 -0.5306  1.5433
 1860SOL    HW2 6159   7.498   6.111   0.685  1.5529  0.8512 -0.4261
 1861SOL     OW 6160   8.670   9.375   4.381  0.2251 -0.1141 -0.2831
 1861SOL    HW1 6161   8.578   9.368   4.355  0.0133  1.6674 -0.1386
 1861SOL    HW2 6162   8.670   9.360   4.475  0.1254 -0.4658 -0.3404
 1862SOL     OW 6163   0.814   8.166   6.266 -0.1560  0.1681 -0.6859
 1862SOL    HW1 6164   0.736   8.204   6.307 -0.9945 -0.2851 -1.7994
 1862SOL    HW2 6165   0.873   8.146   6.339 -0.8021  1.1265  0.1237
 1863SOL     OW 6166   5.775   9.427   8.495 -0.2279 -0.0884 -0.1016
 1863SOL    HW1 6167   5.778   9.378   8.577 -1.0339  0.4211  0.2430
 1863SOL    HW2 6168   5.737   9.511   8.519  1.1220  0.7196 -0.6816
 1864SOL     OW 6169   4.098   0.404   1.781 -0.2137 -0.6026 -0.5594
 1864SOL    HW1 6170   4.037   0.340   1.819 -0.3154 -2.0672 -2.9997
 1864SOL    HW2 6171   4.177   0.353   1.762 -0.0375  0.1425 -1.9058
 1865SOL     OW 6172   7.262   6.877   4.180  0.4021 -0.0131  0.7873
 1865SOL    HW1 6173   7.316   6.940   4.131  1.1032  0.1090  1.6870
 1865SOL    HW2 6174   7.273   6.903   4.271  0.1749 -1.0536  1.1203
 1866SOL     OW 6175   2.496   2.065   8.737  0.4219 -0.1559 -0.3506
 1866SOL    HW1 6176   2.505   2.147   8.689 -0.5511 -0.4833 -1.1402
 1866SOL    HW2 6177   2.585   2.031   8.745  0.9511  1.4025  0.8074
 1867SOL     OW 6178   9.607   5.804   5.374 -0.8748  0.2970  0.2407
 1867SOL    HW1 6179   9.557   5.758   5.307 -2.0618  0.5665  0.9103
 1867SOL    HW2 6180   9.666   5.738   5.411 -1.3866 -0.2581  0.0628
 1868SOL     OW 6181   9.143   6.894   9.548 -0.3021 -0.2693  0.6956
 1868SOL    HW1 6182   9.219   6.878   9.493  0.4895  1.7978  1.1082
 1868SOL    HW2 6183   9.179   6.928   9.630 -1.5923 -0.9098  1.5763
 1869SOL     OW 6184   0.728   7.488   8.711 -0.7820  0.1077 -0.3061
 1869SOL    HW1 6185   0.800   7.459   8.767 -0.7896  0.7984  0.0750
 1869SOL    HW2 6186   0.697   7.408   8.669 -0.8961 -0.4617  0.8226
 1870SOL     OW 6187   7.051   6.593   1.018 -0.1184  0.2005 -0.2109
 1870SOL    HW1 6188   7.135   6.626   1.048 -0.4598  1.6118 -0.7406
 1870SOL    HW2 6189   7.063   6.498   1.012  0.7932  0.1547  1.6866
 1871SOL     OW 6190   6.780   6.182   9.382 -0.3838  0.2216 -0.0273
 1871SOL    HW1 6191   6.795   6.091   9.408 -1.2525 -0.4445 -1.7412
 1871SOL    HW2 6192   6.867   6.215   9.359 -0.2145 -0.5816 -0.5878
 1872SOL     OW 6193   4.860   5.682   3.812  0.3162 -0.2870  0.2263
 1872SOL    HW1 6194   4.806   5.688   3.890  2.0884  0.7698  1.4336
 1872SOL    HW2 6195   4.937   5.736   3.831  0.6344  0.3287 -2.4003
 1873SOL     OW 6196   0.836   1.750   6.201  0.4309 -0.1873  0.3790
 1873SOL    HW1 6197   0.882   1.833   6.188  0.5332 -0.3053 -0.0334
 1873SOL    HW2 6198   0.903   1.683   6.189 -0.0111 -0.4056 -1.1865
 1874SOL     OW 6199   7.693   8.049   6.583  0.2770 -0.1191  0.6617
 1874SOL    HW1 6200   7.755   8.042   6.656  0.7665  0.0256  0.2683
 1874SOL    HW2 6201   7.610   8.073   6.624  0.9086  1.5307  1.0457
 1875SOL     OW 6202   2.694   0.840   2.067 -0.0240  0.3579 -0.6619
 1875SOL    HW1 6203   2.670   0.753   2.036  1.0052  0.3205 -1.4237
 1875SOL    HW2 6204   2.639   0.900   2.018 -0.7785  0.1449 -0.0920
 1876SOL     OW 6205   8.503   5.666   2.431  0.2666 -0.1131  0.3002
 1876SOL    HW1 6206   8.525   5.752   2.465 -0.6980  0.2886 -0.0621
 1876SOL    HW2 6207   8.553   5.605   2.486  2.0979  0.7122 -0.3556
 1877SOL     OW 6208   4.177   9.054   9.140 -0.1890 -0.3164  0.3399
 1877SOL    HW1 6209   4.142   8.985   9.083 -0.8066  0.0936  0.2129
 1877SOL    HW2 6210   4.253   9.013   9.182  1.5197  0.0038 -2.2321
 1878SOL     OW 6211   9.845   6.149   2.120  0.4471  0.0450 -0.2348
 1878SOL    HW1 6212   9.792   6.148   2.199  2.3765 -0.0715  1.1371
 1878SOL    HW2 6213   9.847   6.059   2.089 -0.9232  0.2186 -0.8836
 1879SOL     OW 6214   3.124   8.310   0.413 -0.9409  0.3666  0.1418
 1879SOL    HW1 6215   3.063   8.376   0.379 -1.2361 -0.1772 -0.4150
 1879SOL    HW2 6216   3.084   8.281   0.495 -2.0228 -0.7269 -0.7096
 1880SOL     OW 6217   7.391   3.560   7.958  0.2107  0.4092  0.4492
 1880SOL    HW1 6218   7.327   3.517   8.014 -0.5235  1.6680  0.6163
 1880SOL    HW2 6219   7.459   3.591   8.018 -0.6569  1.9018  0.7093
 1881SOL     OW 6220   2.300   2.665   3.717  0.7581  0.3498 -0.2739
 1881SOL    HW1 6221   2.276   2.624   3.634  1.5335  0.5611 -0.6082
 1881SOL    HW2 6222   2.220   2.710   3.745  0.6582  0.7829 -1.2124
 1882SOL     OW 6223   0.733   4.989   9.086 -0.5984  0.1221  0.1239
 1882SOL    HW1 6224   0.787   4.928   9.135  0.2439 -0.3568 -1.3448
 1882SOL    HW2 6225   0.726   4.951   8.998 -1.3579  1.3482 -0.3875
 1883SOL     OW 6226   2.235   2.458   8.496 -0.3154  0.2887 -0.2125
 1883SOL    HW1 6227   2.319   2.419   8.519 -1.2152 -0.8112  1.3964
 1883SOL    HW2 6228   2.245   2.486   8.405  1.7005 -0.0197 -0.1212
 1884SOL     OW 6229   0.962   3.886   6.084 -0.3504 -0.0564 -0.3295
 1884SOL    HW1 6230   0.936   3.897   6.175  1.2451 -1.0518  0.2948
 1884SOL    HW2 6231   1.044   3.934   6.077  0.3617 -1.3077 -0.7968
 1885SOL     OW 6232   0.799   5.436   1.153 -0.3784 -0.2651  0.0137
 1885SOL    HW1 6233   0.739   5.415   1.224 -1.0060  0.5629 -0.2561
 1885SOL    HW2 6234   0.755   5.506   1.104  1.5767  1.6335  0.8486
 1886SOL     OW 6235   4.542   3.656   7.690 -0.7836 -0.1085  0.2812
 1886SOL    HW1 6236   4.506   3.576   7.652 -0.9380 -0.0052  0.2071
 1886SOL    HW2 6237   4.589   3.698   7.618  0.4383 -0.7946  0.6580
 1887SOL     OW 6238   1.410   4.166   6.266  0.5970  0.6352 -0.0521
 1887SOL    HW1 6239   1.355   4.230   6.221  1.0715  1.9661  1.2078
 1887SOL    HW2 6240   1.398   4.184   6.359  1.0967 -0.8247  0.3321
 1888SOL     OW 6241   6.352   9.268   3.249  0.1481 -0.2845  0.2397
 1888SOL    HW1 6242   6.434   9.314   3.266 -0.9479  1.5645  0.7879
 1888SOL    HW2 6243   6.377   9.193   3.195  1.9113  1.4439 -1.4796
 1889SOL     OW 6244   9.898   0.901   2.813  0.1993 -0.6060  0.3559
 1889SOL    HW1 6245   9.853   0.985   2.807 -1.2124 -1.3534 -0.2148
 1889SOL    HW2 6246   9.944   0.892   2.729  2.6108  0.7463  1.4413
 1890SOL     OW 6247   8.201   3.840   4.578 -0.2198  0.2553 -0.1632
 1890SOL    HW1 6248   8.205   3.904   4.650  0.5253  0.6851 -0.5749
 1890SOL    HW2 6249   8.229   3.758   4.618  0.0159  0.4541  0.0829
 1891SOL     OW 6250   0.367   7.842   0.379 -0.4561 -0.2555  0.4764
 1891SOL    HW1 6251   0.295   7.866   0.438 -0.1366  0.4140  0.6052
 1891SOL    HW2 6252   0.339   7.760   0.339 -3.0689  1.7474 -2.2971
 1892SOL     OW 6253   4.221   4.246   4.417 -0.3415  0.2683  0.5179
 1892SOL    HW1 6254   4.314   4.223   4.421 -0.5806 -0.6523  1.1444
 1892SOL    HW2 6255   4.191   4.209   4.335 -0.7889 -2.0387  1.6515
 1893SOL     OW 6256   5.757   1.068   4.562 -0.2420 -0.4182 -0.1769
 1893SOL    HW1 6257   5.722   0.981   4.578  0.4967 -0.5673  0.7260
 1893SOL    HW2 6258   5.697   1.108   4.499 -0.6108 -1.5563 -0.5598
 1894SOL     OW 6259   2.363   8.666   0.921 -0.2587 -0.0660  0.2433
 1894SOL    HW1 6260   2.272   8.638   0.929  0.3902 -3.3422 -1.7243
 1894SOL    HW2 6261   2.361   8.735   0.855 -1.2513 -0.7102 -0.4301
 1895SOL     OW 6262   0.480   2.052   5.337 -0.4107 -0.1103 -0.0477
 1895SOL    HW1 6263   0.466   2.088   5.249  0.2660 -2.2838 -1.1077
 1895SOL    HW2 6264   0.562   2.093   5.366  0.3719 -0.7819 -1.2442
 1896SOL     OW 6265   8.171   3.188   4.518 -0.3933  0.2066  0.0633
 1896SOL    HW1 6266   8.196   3.279   4.503 -2.1293  0.4818 -1.4919
 1896SOL    HW2 6267   8.227   3.138   4.458  1.0472  0.1253  1.4058
 1897SOL     OW 6268   2.219   4.788   5.655 -0.1592  0.1509 -0.1775
 1897SOL    HW1 6269   2.301   4.825   5.622 -0.1787 -0.2842 -0.7339
 1897SOL    HW2 6270   2.152   4.820   5.594 -0.0031 -1.8402 -1.5080
 1898SOL     OW 6271   0.214   4.873   7.235 -0.0081  0.0509 -0.1671
 1898SOL    HW1 6272   0.139   4.931   7.251 -0.0456 -0.0993  0.2017
 1898SOL    HW2 6273   0.187   4.788   7.269  0.1516 -0.1223 -0.4636
 1899SOL     OW 6274   9.405   3.083   4.147 -0.0779 -0.0276  0.1340
 1899SOL    HW1 6275   9.316   3.067   4.177 -0.0026 -0.9402 -0.1132
 1899SOL    HW2 6276   9.442   3.141   4.213 -1.1679  1.2225 -0.2958
 1900SOL     OW 6277   3.426   3.429   3.654  0.2136  0.4446  0.0192
 1900SOL    HW1 6278   3.430   3.517   3.690 -2.3328  0.1804  1.1360
 1900SOL    HW2 6279   3.363   3.383   3.709 -1.4448 -0.9418 -2.8123
 1901SOL     OW 6280   7.322   1.456   0.126 -0.0991 -0.1770 -0.7115
 1901SOL    HW1 6281   7.317   1.377   0.072 -2.5275 -0.6982  0.1522
 1901SOL    HW2 6282   7.300   1.528   0.065  0.1698 -0.4007 -1.0747
 1902SOL     OW 6283   8.350   0.603   0.787  0.0668 -0.0993 -0.2595
 1902SOL    HW1 6284   8.409   0.528   0.795 -0.9931 -1.0634 -1.2133
 1902SOL    HW2 6285   8.302   0.605   0.870  0.4413 -0.1697 -0.0393
 1903SOL     OW 6286   9.123   6.027   1.177 -0.0590 -0.0491 -0.1450
 1903SOL    HW1 6287   9.134   5.941   1.218 -0.7426 -1.2174 -2.2737
 1903SOL    HW2 6288   9.029   6.034   1.160  0.0606  0.8996 -0.4752
 1904SOL     OW 6289   3.364   7.288   7.165  0.2654  0.2356  0.1278
 1904SOL    HW1 6290   3.349   7.379   7.189  1.6124  0.6946 -0.6783
 1904SOL    HW2 6291   3.388   7.291   7.073 -1.3219 -1.1213 -0.3781
 1905SOL     OW 6292   8.652   1.601   1.509 -0.4009  0.3998 -0.5412
 1905SOL    HW1 6293   8.722   1.603   1.574  0.1548 -0.4462 -1.0894
 1905SOL    HW2 6294   8.642   1.508   1.487 -2.9047  0.2681  0.7695
 1906SOL     OW 6295   6.319   1.155   6.002 -0.9447 -0.2187  0.0779
 1906SOL    HW1 6296   6.272   1.229   5.965 -0.7263 -0.1428 -0.0422
 1906SOL    HW2 6297   6.382   1.193   6.063 -0.4564 -0.2702 -0.3857
 1907SOL     OW 6298   4.407   7.727   5.619 -0.4966 -0.6681  0.0644
 1907SOL    HW1 6299   4.347   7.742   5.545 -1.2474 -0.3835  0.7171
 1907SOL    HW2 6300   4.350   7.699   5.691  0.3175 -1.7524  0.3165
 1908SOL     OW 6301   1.890   2.870   1.285  0.2337 -0.3891  0.4033
 1908SOL    HW1 6302   1.850   2.826   1.360 -0.0583 -0.3248  0.2840
 1908SOL    HW2 6303   1.978   2.891   1.315 -0.4742  1.3123  1.3900
 1909SOL     OW 6304   8.714   6.385   6.475  0.3878  0.3739  0.4794
 1909SOL    HW1 6305   8.759   6.346   6.549 -0.0624  0.1139  0.6192
 1909SOL    HW2 6306   8.661   6.455   6.513  0.2700  0.3367  0.3849
 1910SOL     OW 6307   4.175   7.680   1.716  0.3037 -0.1035 -0.5020
 1910SOL    HW1 6308   4.219   7.674   1.800  2.0858  1.5428 -1.2394
 1910SOL    HW2 6309   4.120   7.602   1.711  2.1775 -1.6049  1.0400
 1911SOL     OW 6310   5.147   9.411   3.458  0.5814 -0.3276  0.0329
 1911SOL    HW1 6311   5.229   9.389   3.413  0.4093 -0.9173 -0.0022
 1911SOL    HW2 6312   5.175   9.462   3.534  0.8481  0.9790 -0.9106
 1912SOL     OW 6313   8.758   5.005   5.862  0.1869 -0.0332  0.0230
 1912SOL    HW1 6314   8.692   4.997   5.793  0.4057 -0.9607 -0.0893
 1912SOL    HW2 6315   8.790   4.916   5.875  0.4175  0.1916  1.0693
 1913SOL     OW 6316   3.904   2.808   6.839  0.0213  0.1477 -0.0009
 1913SOL    HW1 6317   3.936   2.731   6.792  1.5455 -0.2251  1.5557
 1913SOL    HW2 6318   3.978   2.869   6.840 -0.1556  0.3807  1.3653
 1914SOL     OW 6319   5.156   8.368   2.116  0.4234 -0.7153 -0.1973
 1914SOL    HW1 6320   5.195   8.356   2.030 -1.0681 -0.9647 -0.8602
 1914SOL    HW2 6321   5.088   8.302   2.122 -0.2896  0.0621  0.6974
 1915SOL     OW 6322   8.042   8.564   3.701 -0.3652 -0.3866 -0.3211
 1915SOL    HW1 6323   8.110   8.549   3.636  1.7645 -1.1505  1.9118
 1915SOL    HW2 6324   8.060   8.500   3.770 -2.3182  0.5435  1.1763
 1916SOL     OW 6325   5.825   9.872   0.737 -0.2206  0.3931  0.1576
 1916SOL    HW1 6326   5.736   9.862   0.770  0.2702  1.3295  1.8691
 1916SOL    HW2 6327   5.880   9.832   0.804  0.7521  1.2840 -0.0773
 1917SOL     OW 6328   9.338   0.825   5.073 -0.2854  0.2474 -0.4798
 1917SOL    HW1 6329   9.278   0.762   5.033 -1.4138 -0.1178  1.6883
 1917SOL    HW2 6330   9.334   0.901   5.015 -0.9736 -0.6457 -1.6551
 1918SOL     OW 6331   5.224   4.930   8.466 -0.2168 -0.4165  0.1516
 1918SOL    HW1 6332   5.133   4.901   8.460 -0.1661 -0.6263  0.3974
 1918SOL    HW2 6333   5.275   4.854   8.440 -0.1333 -0.0249 -0.9035
 1919SOL     OW 6334   5.715   4.549   8.415  0.1506  0.3144 -0.1460
 1919SOL    HW1 6335   5.641   4.502   8.376  0.2068 -1.0411  1.2918
 1919SOL    HW2 6336   5.695   4.551   8.509  1.0352  1.6165  0.0415
 1920SOL     OW 6337   8.243   2.845   0.292 -0.4843  0.1193  0.2487
 1920SOL    HW1 6338   8.207   2.855   0.204 -0.2734 -0.0507  0.1426
 1920SOL    HW2 6339   8.332   2.813   0.278  0.1730  1.7458  0.4576
 1921SOL     OW 6340   2.517   4.479   9.195 -0.5348  0.0419 -0.1022
 1921SOL    HW1 6341   2.442   4.422   9.176 -1.0412  0.4866  0.5391
 1921SOL    HW2 6342   2.589   4.440   9.145 -1.2019 -0.3577 -0.7778
 1922SOL     OW 6343   5.629   6.446   7.413 -0.5223  0.0725 -0.3778
 1922SOL    HW1 6344   5.691   6.473   7.481 -0.3818 -1.4579  0.1268
 1922SOL    HW2 6345   5.684   6.407   7.345 -0.6054  2.0497 -1.6777
 1923SOL     OW 6346   8.825   3.827   1.099 -0.3273  0.6285  0.0478
 1923SOL    HW1 6347   8.760   3.882   1.055 -0.1725  1.6741  1.0903
 1923SOL    HW2 6348   8.796   3.824   1.190  0.6394  0.4282  0.3612
 1924SOL     OW 6349   6.018   8.372   9.559  0.1322 -0.8264 -0.0192
 1924SOL    HW1 6350   6.092   8.433   9.557  0.0717 -0.6975  1.0645
 1924SOL    HW2 6351   5.941   8.428   9.564  0.1345 -0.9174  2.7476
 1925SOL     OW 6352   4.397   6.421   8.837 -0.4817 -0.0577 -0.7842
 1925SOL    HW1 6353   4.416   6.432   8.930  0.9227 -0.0156 -1.0605
 1925SOL    HW2 6354   4.303   6.401   8.834 -0.1131 -2.5136  0.8595
 1926SOL     OW 6355   6.370   4.014   3.007 -0.3549 -0.1812 -0.6006
 1926SOL    HW1 6356   6.410   4.044   3.089 -1.7072 -0.6541  0.2775
 1926SOL    HW2 6357   6.309   3.945   3.035 -3.0641  1.6302 -1.6209
 1927SOL     OW 6358   8.365   0.533   1.621  0.5844  0.1200  0.4895
 1927SOL    HW1 6359   8.356   0.453   1.570  0.4743  0.2364  0.3245
 1927SOL    HW2 6360   8.441   0.578   1.583 -0.7471  1.2276 -0.9787
 1928SOL     OW 6361   0.043   6.120   4.627 -0.0878 -0.7636 -0.2493
 1928SOL    HW1 6362  -0.016   6.115   4.552  0.0116 -2.4751 -0.2566
 1928SOL    HW2 6363   0.112   6.180   4.599 -0.7432 -0.3400 -1.0172
 1929SOL     OW 6364   3.347   0.588   3.506  0.5898 -0.0321  0.2639
 1929SOL    HW1 6365   3.301   0.563   3.587  1.6622 -1.9589  0.3495
 1929SOL    HW2 6366   3.308   0.671   3.481 -0.1481  0.3713  2.4872
 1930SOL     OW 6367   9.293   7.017   0.662  0.1746 -0.2166 -0.5650
 1930SOL    HW1 6368   9.326   6.928   0.669  0.0970 -0.1941  0.2258
 1930SOL    HW2 6369   9.266   7.026   0.571 -1.7875 -1.7063 -0.1846
 1931SOL     OW 6370   9.642   1.962   9.617 -0.2144 -0.3938 -0.3798
 1931SOL    HW1 6371   9.627   2.023   9.545  1.1096 -0.2345 -0.5464
 1931SOL    HW2 6372   9.570   1.899   9.611 -0.4714 -0.0124 -1.4502
 1932SOL     OW 6373   9.353   0.597   3.441  0.1871  0.3925 -0.7795
 1932SOL    HW1 6374   9.420   0.543   3.398  0.4158  1.5558 -1.9608
 1932SOL    HW2 6375   9.334   0.666   3.377 -0.2323  1.6030  0.6005
 1933SOL     OW 6376   1.940   0.894   4.670  0.5345  0.0201 -0.4916
 1933SOL    HW1 6377   1.848   0.872   4.660  0.6462 -1.7437  1.6422
 1933SOL    HW2 6378   1.987   0.816   4.640  1.2880  0.3990 -0.3294
 1934SOL     OW 6379   7.405   4.109   9.028 -0.5531 -0.0870  0.3891
 1934SOL    HW1 6380   7.417   4.151   8.942 -1.7735 -0.9883 -0.2501
 1934SOL    HW2 6381   7.341   4.163   9.073 -0.9454 -0.3700  0.1801
 1935SOL     OW 6382   6.665   8.261   5.653  0.3855  0.3021 -0.1466
 1935SOL    HW1 6383   6.610   8.338   5.664 -0.2781 -0.0669 -0.8148
 1935SOL    HW2 6384   6.626   8.195   5.711 -1.5734 -0.8286 -2.5716
 1936SOL     OW 6385   7.407   0.780   4.471  0.2311 -0.2438 -0.3664
 1936SOL    HW1 6386   7.361   0.863   4.464 -2.3591 -1.6665 -1.8157
 1936SOL    HW2 6387   7.500   0.804   4.474 -0.3970  2.6455 -1.1172
 1937SOL     OW 6388   1.320   7.888   8.820 -0.2757  0.5340 -0.3575
 1937SOL    HW1 6389   1.297   7.797   8.842  0.0105  0.3106 -0.9705
 1937SOL    HW2 6390   1.257   7.913   8.752 -0.9077  1.0932  0.4086
 1938SOL     OW 6391   6.696   8.995   3.334 -0.1013 -0.1397  0.1749
 1938SOL    HW1 6392   6.737   9.005   3.248  1.7830  0.2755  1.0579
 1938SOL    HW2 6393   6.605   9.021   3.321 -0.3607 -1.8731 -2.0749
 1939SOL     OW 6394   3.228   9.563   5.072  0.5231 -0.5185 -0.2648
 1939SOL    HW1 6395   3.234   9.599   4.983  0.1118 -1.2871 -0.6138
 1939SOL    HW2 6396   3.176   9.627   5.120 -1.3417 -1.2134 -1.2229
 1940SOL     OW 6397   2.387   1.392   1.711  0.1024 -0.2227  0.0851
 1940SOL    HW1 6398   2.339   1.315   1.743  1.1679 -0.8879  0.1479
 1940SOL    HW2 6399   2.394   1.378   1.617  0.1431 -0.1148  0.0726
 1941SOL     OW 6400   7.411   5.974   4.744 -0.1280  0.5154 -0.2685
 1941SOL    HW1 6401   7.377   5.974   4.654  1.4080  0.7103 -0.8764
 1941SOL    HW2 6402   7.336   6.002   4.797 -1.0976  0.3066 -1.4615
 1942SOL     OW 6403   9.510   5.143   2.966 -0.6264 -0.2190 -0.9854
 1942SOL    HW1 6404   9.497   5.214   2.902  2.0796 -0.1871 -1.6304
 1942SOL    HW2 6405   9.591   5.101   2.938  0.3592 -0.5919  2.1055
 1943SOL     OW 6406   5.585   9.540   7.465  0.5240 -0.3068  0.0202
 1943SOL    HW1 6407   5.677   9.564   7.475  0.8120 -0.7422 -1.3996
 1943SOL    HW2 6408   5.586   9.451   7.431 -0.4160 -0.1583 -0.4405
 1944SOL     OW 6409   2.257   0.271   8.552 -0.0292  0.1055 -0.3720
 1944SOL    HW1 6410   2.310   0.264   8.473 -0.6040  0.8168 -0.8258
 1944SOL    HW2 6411   2.317   0.304   8.619 -0.0019  1.4126 -1.0108
 1945SOL     OW 6412   3.355   9.078   6.591  0.4261  0.3076  0.0583
 1945SOL    HW1 6413   3.389   9.088   6.502  0.2718 -1.4563 -0.2367
 1945SOL    HW2 6414   3.400   9.146   6.641  1.8418  0.2213 -1.0148
 1946SOL     OW 6415   1.130   4.327   4.288  0.0232  0.1778 -0.0458
 1946SOL    HW1 6416   1.164   4.417   4.291  2.3633 -0.6218 -0.2283
 1946SOL    HW2 6417   1.179   4.281   4.356  0.6058 -1.4571 -1.4917
 1947SOL     OW 6418   6.981   1.356   0.616 -0.0966 -0.3067 -0.0886
 1947SOL    HW1 6419   7.069   1.370   0.650 -0.0534  2.0210 -0.9871
 1947SOL    HW2 6420   6.993   1.298   0.541  0.8952  1.1305 -1.0825
 1948SOL     OW 6421   8.722   1.606   3.239  0.1039 -0.1595 -0.1160
 1948SOL    HW1 6422   8.797   1.636   3.187  1.0144 -0.7532  0.7956
 1948SOL    HW2 6423   8.665   1.682   3.245 -0.2136 -0.1693 -2.2565
 1949SOL     OW 6424   5.043   7.217   9.106 -0.0357 -0.4932 -0.1518
 1949SOL    HW1 6425   5.117   7.279   9.114  0.3338 -0.9924  0.3543
 1949SOL    HW2 6426   5.017   7.223   9.014  0.7912 -0.4809 -0.3932
 1950SOL     OW 6427   2.432   3.307   7.194  0.9298  0.5833  0.1992
 1950SOL    HW1 6428   2.452   3.218   7.220  0.5970 -0.0854 -1.6641
 1950SOL    HW2 6429   2.410   3.301   7.101 -0.7587  2.3394  0.4009
 1951SOL     OW 6430   6.287   8.064   2.778 -0.9605  0.1513 -0.1860
 1951SOL    HW1 6431   6.322   7.982   2.742 -1.6995 -0.0173 -0.5404
 1951SOL    HW2 6432   6.289   8.050   2.873  0.0258  0.1921 -0.1880
 1952SOL     OW 6433   0.486   4.412   6.372  0.3754 -1.2213  0.5972
 1952SOL    HW1 6434   0.495   4.491   6.319 -0.9671 -0.9888  0.6892
 1952SOL    HW2 6435   0.550   4.423   6.443  0.4699 -0.4051  0.3926
 1953SOL     OW 6436   6.459   5.003   5.219 -0.0744  0.1978 -0.0317
 1953SOL    HW1 6437   6.372   5.037   5.201  0.6124  2.2921  0.3351
 1953SOL    HW2 6438   6.497   5.066   5.281  1.5820 -0.8372  0.0608
 1954SOL     OW 6439   2.942   1.317   0.577 -0.3193 -0.0900 -0.0127
 1954SOL    HW1 6440   2.979   1.230   0.585  0.0486 -0.1271 -1.7235
 1954SOL    HW2 6441   2.847   1.304   0.580 -0.2573 -0.5015  0.1238
 1955SOL     OW 6442   0.923   8.976   7.257  0.4680  0.4735 -0.2721
 1955SOL    HW1 6443   0.946   8.924   7.180  1.4047  0.8676 -0.2694
 1955SOL    HW2 6444   0.832   9.000   7.243  1.0903  1.9617 -2.1000
 1956SOL     OW 6445   0.463   0.073   6.810 -0.6622 -0.4628  0.1314
 1956SOL    HW1 6446   0.500   0.145   6.758  0.1507 -0.6378  0.4588
 1956SOL    HW2 6447   0.539   0.029   6.847 -1.1879 -1.1049  0.4561
 1957SOL     OW 6448   8.950   1.934   3.117 -0.4904  0.1847 -0.1189
 1957SOL    HW1 6449   9.045   1.930   3.130 -0.1038  0.6416 -2.4508
 1957SOL    HW2 6450   8.931   2.028   3.111 -1.2520  0.1347  1.1080
 1958SOL     OW 6451   0.761   6.772   7.727 -0.7364 -0.1926  0.0159
 1958SOL    HW1 6452   0.680   6.744   7.685 -0.0981  0.0836 -1.4444
 1958SOL    HW2 6453   0.777   6.860   7.694 -1.8961  1.4791  3.3793
 1959SOL     OW 6454   2.943   5.300   4.093 -0.1231 -0.1629 -0.3623
 1959SOL    HW1 6455   2.939   5.395   4.102 -0.4721 -0.2898  1.0694
 1959SOL    HW2 6456   3.032   5.277   4.117 -0.5245 -0.3399  1.0022
 1960SOL     OW 6457   6.533   1.421   8.102  0.1716  0.4220 -0.2198
 1960SOL    HW1 6458   6.483   1.476   8.042  0.9990  0.2277 -1.1053
 1960SOL    HW2 6459   6.558   1.344   8.050 -2.6636 -1.8834  1.4858
 1961SOL     OW 6460   5.189   0.980   5.310  0.2912  0.0450 -0.2955
 1961SOL    HW1 6461   5.155   1.060   5.271  1.5289  1.0995  0.7149
 1961SOL    HW2 6462   5.205   1.003   5.401  1.5691 -1.0740 -0.2145
 1962SOL     OW 6463   8.087   3.763   7.200  0.0036  0.9941  0.3089
 1962SOL    HW1 6464   8.050   3.684   7.160  0.3145  0.9694  0.0635
 1962SOL    HW2 6465   8.182   3.750   7.195  0.0541  0.5150  2.0017
 1963SOL     OW 6466   9.091   4.688   3.836  0.1924 -0.2505  0.3657
 1963SOL    HW1 6467   9.124   4.613   3.788 -0.2876  1.0656 -2.2162
 1963SOL    HW2 6468   9.170   4.736   3.863  0.5019  0.0964 -1.0615
 1964SOL     OW 6469   9.243   7.604   2.347 -0.5621  0.6400  0.4359
 1964SOL    HW1 6470   9.213   7.582   2.259  0.5100  1.5302 -0.1670
 1964SOL    HW2 6471   9.163   7.631   2.393 -1.5418 -2.0297  0.4933
 1965SOL     OW 6472   5.994   1.720   7.271 -0.3581  0.2036 -0.1119
 1965SOL    HW1 6473   5.967   1.718   7.363 -3.0374 -0.6279 -0.8199
 1965SOL    HW2 6474   5.929   1.666   7.226  1.9367 -0.9464 -2.2758
 1966SOL     OW 6475   8.292   3.477   0.019  0.3293 -0.4091 -0.5187
 1966SOL    HW1 6476   8.198   3.474  -0.001  0.5527 -0.2991 -1.6390
 1966SOL    HW2 6477   8.299   3.538   0.093 -0.6186 -1.5205  0.5410
 1967SOL     OW 6478   2.131   7.777   5.533  0.2269 -0.5142  0.6748
 1967SOL    HW1 6479   2.181   7.838   5.479  2.0795 -1.3979  1.3199
 1967SOL    HW2 6480   2.157   7.796   5.623  1.4762 -2.7070  0.8543
 1968SOL     OW 6481   6.366   9.221   0.960  0.0604 -0.3149 -0.2516
 1968SOL    HW1 6482   6.352   9.130   0.935  1.5138  0.0590 -2.6721
 1968SOL    HW2 6483   6.460   9.235   0.951  0.3393  0.7389  2.8187
 1969SOL     OW 6484   0.980   8.669   3.627 -0.4374  0.4103 -0.0857
 1969SOL    HW1 6485   1.065   8.701   3.659 -0.2294 -0.6392  0.4827
 1969SOL    HW2 6486   0.968   8.713   3.543  1.1203 -0.0845 -0.6181
 1970SOL     OW 6487  10.000   0.122   5.200  0.0703  0.1271  0.2039
 1970SOL    HW1 6488   9.973   0.038   5.165  0.6107 -0.8620  2.0168
 1970SOL    HW2 6489   9.937   0.141   5.269 -0.0112  1.1960 -0.1396
 1971SOL     OW 6490   1.846   0.728   9.605 -0.2487  0.2950  0.0194
 1971SOL    HW1 6491   1.874   0.760   9.691 -0.7074 -0.7380  0.5652
 1971SOL    HW2 6492   1.915   0.758   9.546 -0.3128  1.6790  0.6104
 1972SOL     OW 6493   4.115   6.670   4.581  0.0071 -0.2615 -0.4482
 1972SOL    HW1 6494   4.125   6.652   4.488 -0.1236 -0.2668 -0.4605
 1972SOL    HW2 6495   4.150   6.758   4.593  0.4481 -0.4331 -0.4247
 1973SOL     OW 6496   5.139   5.818   9.516  0.0859 -0.1946  0.4358
 1973SOL    HW1 6497   5.051   5.823   9.555 -0.1873 -0.0584 -0.1753
 1973SOL    HW2 6498   5.125   5.841   9.424  0.5496 -1.5427  0.0051
 1974SOL     OW 6499   2.299   0.190   8.045 -0.4573 -0.3884  0.0490
 1974SOL    HW1 6500   2.207   0.198   8.069  0.0140 -0.4276  2.0233
 1974SOL    HW2 6501   2.322   0.099   8.065  0.2250 -0.1389  0.4413
 1975SOL     OW 6502   9.420   5.444   9.550  0.1118  0.1862 -0.4641
 1975SOL    HW1 6503   9.333   5.415   9.576 -0.2376  0.7799 -0.9340
 1975SOL    HW2 6504   9.456   5.487   9.628 -0.1569  0.2393 -0.3703
 1976SOL     OW 6505   4.721   9.064   3.914 -0.1690  0.3182  0.0777
 1976SOL    HW1 6506   4.812   9.091   3.919  0.3706 -0.8478 -2.2149
 1976SOL    HW2 6507   4.671   9.145   3.929  1.2692  1.3525 -0.5359
 1977SOL     OW 6508   5.010   3.846   2.562  0.0957  0.6802  0.4361
 1977SOL    HW1 6509   4.944   3.881   2.622 -0.7520  0.9528 -0.6082
 1977SOL    HW2 6510   4.977   3.759   2.539  0.4000  0.5831  0.3673
 1978SOL     OW 6511   0.415   1.833   2.885 -0.4053 -0.0761 -0.1473
 1978SOL    HW1 6512   0.354   1.902   2.859  0.8409  0.5951 -1.3755
 1978SOL    HW2 6513   0.400   1.822   2.979 -0.3752  2.1199  0.1531
 1979SOL     OW 6514   1.592   8.807   5.092  0.4357 -0.2685 -0.5289
 1979SOL    HW1 6515   1.550   8.768   5.016 -1.0235 -0.6538  0.4227
 1979SOL    HW2 6516   1.683   8.778   5.087  0.5828  0.4235 -2.5528
 1980SOL     OW 6517   4.861   6.112   3.514 -0.6835  1.1292 -0.2803
 1980SOL    HW1 6518   4.910   6.088   3.592 -0.5264 -0.9611 -0.9390
 1980SOL    HW2 6519   4.928   6.124   3.446 -0.9039  1.0571 -0.5150
 1981SOL     OW 6520   4.007   0.086   8.047 -0.2377 -0.3004 -0.0682
 1981SOL    HW1 6521   3.980   0.003   8.089  0.6233 -0.3864  0.3363
 1981SOL    HW2 6522   4.097   0.099   8.076  0.8463 -0.9657 -2.8276
 1982SOL     OW 6523   1.714   4.662   3.589 -0.1066  0.6535 -0.1583
 1982SOL    HW1 6524   1.772   4.610   3.645  1.1492  0.4284 -1.6091
 1982SOL    HW2 6525   1.680   4.599   3.525 -0.7872  1.0874 -0.2353
 1983SOL     OW 6526   5.640   1.716   6.542 -0.6971  0.6025 -0.4301
 1983SOL    HW1 6527   5.638   1.774   6.466  0.9098 -0.0810 -1.0355
 1983SOL    HW2 6528   5.693   1.763   6.607  1.0649 -0.3429 -1.1160
 1984SOL     OW 6529   8.439   3.916   4.873  0.0189 -0.2922 -0.1680
 1984SOL    HW1 6530   8.501   3.969   4.923 -0.4606  0.3649 -0.2530
 1984SOL    HW2 6531   8.480   3.830   4.867  1.6828  0.5465 -1.6244
 1985SOL     OW 6532   0.831   5.168   0.588 -0.2531 -0.2624  0.2994
 1985SOL    HW1 6533   0.885   5.130   0.520 -1.2653 -2.1141  0.4538
 1985SOL    HW2 6534   0.868   5.135   0.670  0.6306  1.5125  0.6699
 1986SOL     OW 6535   9.212   8.144   4.116 -0.3280  1.0622 -0.6153
 1986SOL    HW1 6536   9.220   8.236   4.089  0.9336  0.3762 -2.7359
 1986SOL    HW2 6537   9.125   8.119   4.086 -0.4953  1.4272 -0.4501
 1987SOL     OW 6538   3.392   9.432   9.412 -0.3542  0.3707 -0.0093
 1987SOL    HW1 6539   3.399   9.349   9.365 -0.7380 -0.7121  1.7665
 1987SOL    HW2 6540   3.451   9.422   9.487 -0.6171  1.5959  0.3736
 1988SOL     OW 6541   4.440   2.863   9.502  0.1033  0.1067 -0.7633
 1988SOL    HW1 6542   4.449   2.958   9.494  0.3549  0.0452 -1.2129
 1988SOL    HW2 6543   4.347   2.850   9.522 -0.0447  0.4148 -1.2375
 1989SOL     OW 6544   9.806   8.664   1.494 -0.4658 -0.4818  0.1532
 1989SOL    HW1 6545   9.881   8.644   1.550 -1.1759  0.0360  1.3231
 1989SOL    HW2 6546   9.808   8.759   1.483 -0.1503 -0.6037 -0.9971
 1990SOL     OW 6547   1.767   5.394   9.741  0.0975 -0.6002 -0.6411
 1990SOL    HW1 6548   1.708   5.381   9.666 -0.8521 -2.2215  0.3242
 1990SOL    HW2 6549   1.709   5.409   9.815  1.0157  0.5034 -0.1292
 1991SOL     OW 6550   6.916   8.605   9.496 -0.8735 -0.2939 -0.1542
 1991SOL    HW1 6551   6.875   8.689   9.519  0.0118  0.2122 -0.3838
 1991SOL    HW2 6552   6.903   8.550   9.573 -1.4345  0.0625  0.0118
 1992SOL     OW 6553   1.266   8.589   8.602  0.0258  0.0212 -0.0589
 1992SOL    HW1 6554   1.241   8.681   8.611 -1.0882 -0.3422  0.8647
 1992SOL    HW2 6555   1.226   8.562   8.519 -1.2512 -0.0823  0.5545
 1993SOL     OW 6556   5.367   6.697   0.722 -0.7087 -0.0531 -0.4654
 1993SOL    HW1 6557   5.359   6.603   0.705  1.3588 -0.4648  0.5662
 1993SOL    HW2 6558   5.359   6.705   0.817 -1.6876  0.9364 -0.6177
 1994SOL     OW 6559   4.369   4.556   2.371 -0.1072 -0.1845  0.2810
 1994SOL    HW1 6560   4.459   4.577   2.345  0.5071  0.3497  2.5912
 1994SOL    HW2 6561   4.378   4.484   2.433 -1.3486 -0.5217  0.1051
 1995SOL     OW 6562   9.555   6.567   1.626  0.1994  0.6972  0.1154
 1995SOL    HW1 6563   9.473   6.583   1.580 -0.0693 -2.5850 -0.7892
 1995SOL    HW2 6564   9.622   6.604   1.570 -0.3793 -0.5029 -1.4363
 1996SOL     OW 6565   7.428   7.880   7.311 -0.2199 -0.0195 -0.2585
 1996SOL    HW1 6566   7.346   7.876   7.361  0.8416  0.5307  1.6162
 1996SOL    HW2 6567   7.463   7.967   7.329 -0.5362  0.8719 -3.3387
 1997SOL     OW 6568   6.051   2.149   3.074 -0.3837  0.0895 -0.5954
 1997SOL    HW1 6569   6.050   2.192   3.159  0.3264  0.8431 -0.9516
 1997SOL    HW2 6570   5.983   2.194   3.024  1.8110  2.4173 -1.6960
 1998SOL     OW 6571   7.998   2.333   9.292 -0.3919  0.0078 -0.3924
 1998SOL    HW1 6572   8.093   2.325   9.284 -0.5002 -2.1261 -0.1197
 1998SOL    HW2 6573   7.971   2.380   9.214  0.8559  0.4069 -0.6071
 1999SOL     OW 6574   3.279   0.028   4.782  0.0834  0.1411 -0.8093
 1999SOL    HW1 6575   3.213   0.055   4.846  1.7281 -1.0488  1.5458
 1999SOL    HW2 6576   3.247  -0.057   4.750  0.4263 -0.4804  0.3965
 2000SOL     OW 6577   4.844   7.610   2.336  0.0413  0.1429  0.2867
 2000SOL    HW1 6578   4.889   7.555   2.401 -0.6699 -1.9975 -0.9372
 2000SOL    HW2 6579   4.842   7.557   2.257 -1.3012  1.7051 -0.7876
 2001SOL     OW 6580   5.834   2.282   2.985 -0.1819 -0.0144  0.3180
 2001SOL    HW1 6581   5.808   2.357   3.038 -2.0826 -0.6670  0.4021
 2001SOL    HW2 6582   5.762   2.271   2.923  1.3723 -0.0713 -1.5653
 2002SOL     OW 6583   5.708   7.207   9.175 -0.1354 -0.0701  0.3424
 2002SOL    HW1 6584   5.623   7.167   9.195  0.2005 -1.4302 -0.7667
 2002SOL    HW2 6585   5.772   7.149   9.216  0.3455 -0.3611 -0.7861
 2003SOL     OW 6586   8.667   4.590   4.348 -0.2180 -0.3354  0.4570
 2003SOL    HW1 6587   8.584   4.614   4.390  0.1478  0.8888  0.5177
 2003SOL    HW2 6588   8.642   4.559   4.261 -0.6124  2.2288 -0.4099
 2004SOL     OW 6589   2.502   4.970   7.208 -0.2027 -0.0149  0.3434
 2004SOL    HW1 6590   2.545   4.968   7.294  0.3870 -1.2000  0.0446
 2004SOL    HW2 6591   2.560   5.021   7.153 -0.2778  0.2243  0.4808
 2005SOL     OW 6592   6.217   8.333   2.134 -0.5203  0.4793 -0.0977
 2005SOL    HW1 6593   6.192   8.360   2.223 -1.0162 -0.9772  0.2212
 2005SOL    HW2 6594   6.288   8.270   2.147 -0.6454  0.2002 -0.7311
 2006SOL     OW 6595   3.168   6.304   6.072  0.6318  0.6372  0.3312
 2006SOL    HW1 6596   3.237   6.260   6.022  0.7507 -0.3954  1.3637
 2006SOL    HW2 6597   3.105   6.235   6.091 -1.8664  1.9297 -2.3963
 2007SOL     OW 6598   5.528   9.643   6.457  0.0764 -0.5091 -0.2116
 2007SOL    HW1 6599   5.477   9.720   6.481  0.3153 -0.4945  0.2580
 2007SOL    HW2 6600   5.466   9.571   6.462  0.5538 -0.8471  2.5437
 2008SOL     OW 6601   4.078   8.336   9.892  0.7188 -0.5620 -0.5725
 2008SOL    HW1 6602   4.105   8.274   9.824 -0.5754 -0.9462 -0.7539
 2008SOL    HW2 6603   4.046   8.281   9.963  1.9531 -0.1574  0.3352
 2009SOL     OW 6604   7.385   9.127   8.732 -0.2523  0.1453  0.4611
 2009SOL    HW1 6605   7.292   9.105   8.740 -0.2205  0.2615  1.2094
 2009SOL    HW2 6606   7.424   9.097   8.814  0.6984 -1.4445 -0.5009
 2010SOL     OW 6607   1.156   6.318   8.577  0.0601 -0.3664  0.1125
 2010SOL    HW1 6608   1.161   6.238   8.629 -0.7159 -0.2072  0.4439
 2010SOL    HW2 6609   1.227   6.310   8.514 -0.8537 -1.9835 -0.7836
 2011SOL     OW 6610   0.361   0.519   8.118  0.1633  0.5811  0.4389
 2011SOL    HW1 6611   0.267   0.519   8.100 -0.3662  1.8524  2.7918
 2011SOL    HW2 6612   0.382   0.426   8.132 -0.1703 -0.0040 -2.2742
 2012SOL     OW 6613   2.140   2.637   1.711 -0.0140  0.3084  0.6315
 2012SOL    HW1 6614   2.184   2.593   1.637  1.3659 -1.1894  2.2533
 2012SOL    HW2 6615   2.193   2.715   1.726 -0.4330  0.7407 -0.0789
 2013SOL     OW 6616   7.865   0.951   7.609 -0.4532  0.5085  0.0226
 2013SOL    HW1 6617   7.879   0.857   7.622  0.1290  0.7152  1.0664
 2013SOL    HW2 6618   7.932   0.992   7.664  0.1888  1.5301 -1.4705
 2014SOL     OW 6619   0.098   7.099   9.083 -0.3941 -0.4799  0.2772
 2014SOL    HW1 6620   0.111   7.081   8.990  1.9446  0.3943  0.3661
 2014SOL    HW2 6621   0.082   7.193   9.087 -0.3386 -0.4886  0.7670
 2015SOL     OW 6622   1.679   2.950   6.940  0.2521  0.7756 -0.0497
 2015SOL    HW1 6623   1.758   2.916   6.899  0.0527  0.0332  0.1678
 2015SOL    HW2 6624   1.711   2.996   7.018  0.4220 -0.1212  0.4201
 2016SOL     OW 6625   8.681   0.216   1.979  0.3946 -0.2238  0.1572
 2016SOL    HW1 6626   8.776   0.221   1.968  0.3760  1.0779  0.3638
 2016SOL    HW2 6627   8.652   0.307   1.974 -0.9165 -0.6528 -0.4613
 2017SOL     OW 6628   4.722   0.359   3.469  0.5669  0.0084 -0.6015
 2017SOL    HW1 6629   4.779   0.421   3.423  0.6871  0.6196  0.3548
 2017SOL    HW2 6630   4.707   0.289   3.405 -0.2179  1.3929 -1.9837
 2018SOL     OW 6631   4.396   3.811   0.426  0.3589  0.0015 -0.1219
 2018SOL    HW1 6632   4.304   3.828   0.447  0.8633 -0.6583  3.1394
 2018SOL    HW2 6633   4.436   3.898   0.422 -0.0991  0.2301  0.1534
 2019SOL     OW 6634   2.042   1.995   4.073 -0.4756  0.1694  0.3643
 2019SOL    HW1 6635   2.106   2.016   4.140  1.2688  0.6259 -1.3476
 2019SOL    HW2 6636   1.960   2.034   4.105  0.4830  1.1102  1.8081
 2020SOL     OW 6637   2.105   7.731   3.545 -0.1235  0.7732  0.3660
 2020SOL    HW1 6638   2.089   7.795   3.476  1.5096  1.2679  0.4069
 2020SOL    HW2 6639   2.129   7.784   3.622 -0.6766  0.1840  0.9573
 2021SOL     OW 6640   8.910   4.805   5.047 -0.0068  0.2148  0.0422
 2021SOL    HW1 6641   8.873   4.838   4.965  0.7413  0.6538 -0.1270
 2021SOL    HW2 6642   8.840   4.819   5.112 -0.1887  0.9235 -0.2962
 2022SOL     OW 6643   0.542   6.917   5.051  0.2407 -0.0915 -0.1826
 2022SOL    HW1 6644   0.457   6.925   5.008  0.3547 -2.0891 -0.8516
 2022SOL    HW2 6645   0.592   6.992   5.018 -0.7298  0.2076 -1.0255
 2023SOL     OW 6646   5.493   5.440   9.736  0.1186 -0.2905 -0.3345
 2023SOL    HW1 6647   5.588   5.450   9.733  0.1952 -1.0440 -0.5158
 2023SOL    HW2 6648   5.463   5.514   9.789  0.9156 -0.8223  0.8917
 2024SOL     OW 6649   1.765   3.523   1.218  0.2435 -0.1879 -0.2114
 2024SOL    HW1 6650   1.730   3.610   1.196  0.8500  0.1122 -0.0241
 2024SOL    HW2 6651   1.716   3.463   1.162 -2.8241 -0.1873  2.2025
 2025SOL     OW 6652   4.612   9.060   1.401 -0.7626 -0.6315  0.1402
 2025SOL    HW1 6653   4.635   8.968   1.395  0.7835 -0.1847 -2.1556
 2025SOL    HW2 6654   4.568   9.080   1.318  1.4076  1.2393 -0.6728
 2026SOL     OW 6655   4.755   1.506   1.579 -0.0338  1.0624 -0.2594
 2026SOL    HW1 6656   4.678   1.475   1.532 -0.2775 -0.1512  0.8774
 2026SOL    HW2 6657   4.759   1.451   1.657  1.5359  1.6339  0.0997
 2027SOL     OW 6658   7.155   9.887   3.725  0.1765 -0.2742  0.2062
 2027SOL    HW1 6659   7.231   9.855   3.774  1.2810 -0.9272 -1.7757
 2027SOL    HW2 6660   7.164   9.845   3.639 -1.0306  1.6531 -0.9151
 2028SOL     OW 6661   6.694   7.671   2.070  0.6080 -0.9929 -0.4952
 2028SOL    HW1 6662   6.709   7.644   2.161 -1.8811 -0.4034  0.1834
 2028SOL    HW2 6663   6.637   7.748   2.078 -1.9577 -2.5194 -2.5540
 2029SOL     OW 6664   4.492   7.816   4.931 -0.6798  0.4756  0.1157
 2029SOL    HW1 6665   4.561   7.815   4.865 -1.9726  1.4091 -1.3043
 2029SOL    HW2 6666   4.536   7.788   5.012  1.2651  0.7104 -0.8082
 2030SOL     OW 6667   5.156   5.579   5.118 -0.1335  0.0926 -0.0964
 2030SOL    HW1 6668   5.175   5.648   5.182 -1.8361  0.0416  0.5292
 2030SOL    HW2 6669   5.061   5.577   5.113 -0.0633 -0.4165 -2.1202
 2031SOL     OW 6670   2.531   7.730   3.810 -0.5336 -0.2962 -0.3580
 2031SOL    HW1 6671   2.546   7.675   3.887  0.7517  0.2153 -0.2073
 2031SOL    HW2 6672   2.543   7.670   3.736 -0.5498 -0.5283 -0.1761
 2032SOL     OW 6673   7.203   6.396   7.722 -0.6474 -0.2889  0.5552
 2032SOL    HW1 6674   7.251   6.419   7.801  1.3496 -1.2570 -0.3008
 2032SOL    HW2 6675   7.250   6.441   7.652 -1.2301 -0.9511 -0.2768
 2033SOL     OW 6676   6.387   2.466   6.801  0.4327 -0.2331  0.5139
 2033SOL    HW1 6677   6.368   2.512   6.720 -1.0516 -1.2195  0.2550
 2033SOL    HW2 6678   6.479   2.440   6.793  1.2531  2.3690  0.5706
 2034SOL     OW 6679   2.112   1.718   1.493  0.0661 -0.3248 -0.5042
 2034SOL    HW1 6680   2.164   1.773   1.551  0.4462 -1.0811 -0.1196
 2034SOL    HW2 6681   2.088   1.776   1.421  1.2344  0.1017 -0.5739
 2035SOL     OW 6682   5.989   3.936   7.188 -0.0109 -0.4287  0.0849
 2035SOL    HW1 6683   5.906   3.889   7.195  0.6896 -1.5442  1.3549
 2035SOL    HW2 6684   6.055   3.868   7.189  0.9143  0.3712 -2.1743
 2036SOL     OW 6685   6.343   3.560   3.180 -0.3462  0.1922  0.0588
 2036SOL    HW1 6686   6.305   3.571   3.093 -0.5378 -0.1078  0.1009
 2036SOL    HW2 6687   6.350   3.465   3.191  1.6227  0.2263 -0.4614
 2037SOL     OW 6688   4.998   2.215   3.013  0.2818  0.0502  0.1010
 2037SOL    HW1 6689   5.033   2.179   2.932 -0.0433  0.6437 -0.3100
 2037SOL    HW2 6690   4.904   2.223   2.997  0.3663  1.2441  0.1036
 2038SOL     OW 6691   7.474   9.920   0.531 -0.0956 -0.7955  0.0379
 2038SOL    HW1 6692   7.407   9.955   0.589 -0.8925 -1.0670 -0.7043
 2038SOL    HW2 6693   7.521   9.998   0.499 -0.9266 -0.4967 -0.4790
 2039SOL     OW 6694   3.277   1.692   6.315  0.2295 -0.5689 -0.5838
 2039SOL    HW1 6695   3.289   1.718   6.223 -0.1323  0.9674 -0.2193
 2039SOL    HW2 6696   3.185   1.709   6.332  0.9495  2.5661  1.0140
 2040SOL     OW 6697   0.905   6.578   5.216  0.3625  0.1025  0.0095
 2040SOL    HW1 6698   0.844   6.523   5.266 -1.0803  1.0154 -0.6918
 2040SOL    HW2 6699   0.859   6.661   5.206  0.5129 -0.0716 -2.9385
 2041SOL     OW 6700   9.643   1.690   9.207  0.5156 -0.4558 -0.1376
 2041SOL    HW1 6701   9.738   1.694   9.199  0.3402  0.6308 -2.7038
 2041SOL    HW2 6702   9.611   1.764   9.155 -1.7606 -1.2717 -0.0270
 2042SOL     OW 6703   2.828   7.960   9.714 -0.1183  0.2306 -0.2344
 2042SOL    HW1 6704   2.792   7.968   9.625  0.4375 -0.0558 -0.4898
 2042SOL    HW2 6705   2.779   8.024   9.765 -1.1798 -0.3329 -0.5121
 2043SOL     OW 6706   6.432   1.451   0.653 -0.2157  0.2266  0.0077
 2043SOL    HW1 6707   6.497   1.485   0.591 -0.7960  1.4597  0.0546
 2043SOL    HW2 6708   6.456   1.489   0.737 -0.2826 -0.2997  0.2699
 2044SOL     OW 6709   2.426   5.576   8.979  0.1983 -0.3981  0.2526
 2044SOL    HW1 6710   2.468   5.493   8.958 -0.8754 -0.9872  0.3249
 2044SOL    HW2 6711   2.496   5.631   9.013  1.2662 -0.6932 -1.3347
 2045SOL     OW 6712   5.960   4.497   8.750  0.0269  0.3209  0.3792
 2045SOL    HW1 6713   5.983   4.489   8.657 -2.8836  1.9367 -0.6223
 2045SOL    HW2 6714   6.001   4.580   8.777  2.3547 -0.9895  1.1507
 2046SOL     OW 6715   0.903   4.048   2.171 -0.0728 -0.0911 -0.0914
 2046SOL    HW1 6716   0.897   3.953   2.163  1.8728 -0.2371 -0.2691
 2046SOL    HW2 6717   0.862   4.082   2.091 -0.5994 -0.7671 -0.1164
 2047SOL     OW 6718   9.880   9.393   1.687 -0.3561  0.2669  0.2499
 2047SOL    HW1 6719   9.946   9.460   1.669  1.1440 -1.6085 -1.7805
 2047SOL    HW2 6720   9.797   9.435   1.665  0.4066  1.8379  0.2475
 2048SOL     OW 6721   7.044   9.923   9.185 -0.2955 -0.0245 -0.5683
 2048SOL    HW1 6722   7.002   9.844   9.154 -0.9190 -0.7705  1.9278
 2048SOL    HW2 6723   7.111   9.893   9.246 -2.9930  1.2431  3.4250
 2049SOL     OW 6724   4.693   3.545   8.186 -0.1908 -0.1460 -0.0835
 2049SOL    HW1 6725   4.638   3.623   8.199 -1.1092 -0.7034 -0.5159
 2049SOL    HW2 6726   4.763   3.574   8.128 -2.0370 -0.2705 -2.4879
 2050SOL     OW 6727   7.676   2.109   8.633  0.0417  0.3924  0.1645
 2050SOL    HW1 6728   7.728   2.041   8.676  0.1582  0.2622 -0.1763
 2050SOL    HW2 6729   7.586   2.077   8.636  0.0230  0.4809  0.4967
 2051SOL     OW 6730   1.974   7.963   2.537 -0.3689 -0.1930  0.7091
 2051SOL    HW1 6731   1.885   7.931   2.526 -0.6892  0.9174 -0.2430
 2051SOL    HW2 6732   1.964   8.058   2.548  0.5826 -0.2600  2.4512
 2052SOL     OW 6733   6.435   1.915   4.665  0.3948 -0.3684 -0.0332
 2052SOL    HW1 6734   6.383   1.892   4.588 -0.6604 -0.9109  0.8122
 2052SOL    HW2 6735   6.378   1.896   4.739  0.1990  3.0664  0.8408
 2053SOL     OW 6736   6.211   7.230   6.930 -0.3688  0.1332  0.1727
 2053SOL    HW1 6737   6.120   7.229   6.960 -1.0053 -0.5014 -1.6575
 2053SOL    HW2 6738   6.205   7.237   6.835  1.4049 -2.1675 -0.2112
 2054SOL     OW 6739   7.486   2.159   4.763 -0.6200 -0.4035  0.0643
 2054SOL    HW1 6740   7.458   2.171   4.672  0.8603 -1.8839 -0.6468
 2054SOL    HW2 6741   7.528   2.242   4.786 -0.6025 -0.1742 -0.7602
 2055SOL     OW 6742   8.074   2.478   2.842 -0.0001  0.6850  0.2567
 2055SOL    HW1 6743   8.156   2.440   2.811  0.0688  1.5192 -0.6144
 2055SOL    HW2 6744   8.019   2.484   2.764 -0.8455  0.2776  0.8008
 2056SOL     OW 6745   8.056   7.616   7.860  0.2267  0.0115  0.3842
 2056SOL    HW1 6746   8.072   7.687   7.921  1.4914 -0.9257  1.1975
 2056SOL    HW2 6747   7.962   7.619   7.843  0.0657  1.0907  1.3692
 2057SOL     OW 6748   9.083   0.163   3.393 -0.0138 -0.6343  0.1022
 2057SOL    HW1 6749   9.141   0.100   3.350  0.0317 -1.1250  0.8604
 2057SOL    HW2 6750   9.086   0.138   3.486  0.7388  1.0529  0.5582
 2058SOL     OW 6751   1.111   9.452   9.705 -0.1835 -0.3087  0.3223
 2058SOL    HW1 6752   1.190   9.400   9.687  0.5903  0.4662  1.3410
 2058SOL    HW2 6753   1.105   9.454   9.800 -1.5951 -0.5607  0.2557
 2059SOL     OW 6754   4.323   7.938   7.471 -0.0079 -0.2120 -0.3088
 2059SOL    HW1 6755   4.411   7.956   7.440  1.0632 -1.9047  1.5416
 2059SOL    HW2 6756   4.304   8.008   7.532 -0.0150  0.2192 -0.7966
 2060SOL     OW 6757   9.867   8.751   2.913 -0.1947  0.7216  0.1519
 2060SOL    HW1 6758   9.960   8.742   2.933 -0.4311  0.6968  1.2771
 2060SOL    HW2 6759   9.837   8.823   2.968 -0.6401  1.3922 -0.9402
 2061SOL     OW 6760   8.158   7.565   3.978  0.4258  0.0068  0.1900
 2061SOL    HW1 6761   8.182   7.473   3.985  1.2827  0.2152  0.0917
 2061SOL    HW2 6762   8.169   7.599   4.066 -0.3370 -0.0869  0.3240
 2062SOL     OW 6763   0.457   6.078   3.710  0.3480 -0.0032  0.0963
 2062SOL    HW1 6764   0.460   6.174   3.703  0.3174  0.1439  1.6966
 2062SOL    HW2 6765   0.543   6.054   3.743  0.4387 -0.5575 -0.5418
 2063SOL     OW 6766   4.514   3.633   9.038 -1.2266  0.0750 -0.5224
 2063SOL    HW1 6767   4.606   3.636   9.063 -1.2763 -1.2834 -0.0984
 2063SOL    HW2 6768   4.489   3.541   9.048 -2.6621  0.4355 -0.5108
 2064SOL     OW 6769   9.569   9.483   5.818  0.5810 -0.0665  0.3263
 2064SOL    HW1 6770   9.631   9.523   5.757 -1.2626  0.6671 -1.1788
 2064SOL    HW2 6771   9.611   9.401   5.845  1.5076 -0.3983 -1.9162
 2065SOL     OW 6772   9.978   4.702   7.699 -0.7792 -0.1054  0.1581
 2065SOL    HW1 6773  10.026   4.783   7.682  3.6057 -2.1774  1.4126
 2065SOL    HW2 6774   9.915   4.727   7.767  0.5749  2.2296  0.6856
 2066SOL     OW 6775   4.351   7.114   2.297  0.2836  0.2179 -0.4046
 2066SOL    HW1 6776   4.411   7.047   2.331  1.2302  0.7652 -0.9730
 2066SOL    HW2 6777   4.282   7.063   2.255 -0.5231 -0.4614  1.6191
 2067SOL     OW 6778   4.503   6.543   3.894  0.4646 -0.1350 -0.2373
 2067SOL    HW1 6779   4.530   6.588   3.815 -0.9177 -1.3795 -1.4815
 2067SOL    HW2 6780   4.549   6.459   3.892 -0.6294 -0.7590 -0.5011
 2068SOL     OW 6781   9.720   1.443   3.811  0.6513  0.0874  0.9382
 2068SOL    HW1 6782   9.774   1.516   3.841  0.8760 -0.1481  1.1111
 2068SOL    HW2 6783   9.733   1.375   3.877 -0.0612  0.1214  1.1266
 2069SOL     OW 6784   8.762   2.628   8.468 -0.2987  0.0226 -0.3176
 2069SOL    HW1 6785   8.802   2.610   8.554  0.7474  0.4123 -0.6992
 2069SOL    HW2 6786   8.688   2.568   8.463  0.5420 -1.0986  0.2156
 2070SOL     OW 6787   5.053   1.663   3.674 -0.0820 -0.1607 -0.6973
 2070SOL    HW1 6788   5.115   1.654   3.747  0.4854  0.0504 -1.1473
 2070SOL    HW2 6789   5.098   1.624   3.599  0.2822  1.6396 -1.4627
 2071SOL     OW 6790   2.866   3.886   4.256  0.0685  0.1296 -0.1769
 2071SOL    HW1 6791   2.903   3.885   4.344  0.7322 -1.9258 -0.4302
 2071SOL    HW2 6792   2.865   3.794   4.229 -2.0301  0.4661 -1.5356
 2072SOL     OW 6793   2.152   6.116   8.634 -0.0032 -0.3671 -0.1902
 2072SOL    HW1 6794   2.209   6.182   8.595  1.9574 -1.9151 -0.1566
 2072SOL    HW2 6795   2.109   6.160   8.707  0.8154  0.9970 -0.5105
 2073SOL     OW 6796   4.402   7.314   1.567 -0.0518 -0.4122  0.0368
 2073SOL    HW1 6797   4.331   7.323   1.631  0.1750 -0.4658  0.2977
 2073SOL    HW2 6798   4.476   7.358   1.608  0.3154 -1.1184  0.1424
 2074SOL     OW 6799   9.577   4.735   1.112 -0.0301  0.4753 -0.5096
 2074SOL    HW1 6800   9.561   4.670   1.043  0.2370  1.0453 -1.1113
 2074SOL    HW2 6801   9.666   4.767   1.095  0.4779 -0.1827  0.7710
 2075SOL     OW 6802   6.533   4.960   7.928 -0.0576  0.5212  0.3593
 2075SOL    HW1 6803   6.609   5.007   7.964 -0.6370  2.1412 -0.4434
 2075SOL    HW2 6804   6.550   4.956   7.834 -0.4104 -0.2013  0.3166
 2076SOL     OW 6805   9.545   8.688   7.989 -0.1058  0.4017  0.1137
 2076SOL    HW1 6806   9.570   8.629   8.060 -0.9906 -0.7698 -0.5200
 2076SOL    HW2 6807   9.623   8.694   7.934 -0.0921 -0.4522  0.0182
 2077SOL     OW 6808   9.623   0.167   8.036  0.2528  0.2792  0.1033
 2077SOL    HW1 6809   9.603   0.193   8.126  1.1471  0.3913  0.2827
 2077SOL    HW2 6810   9.718   0.154   8.036 -0.1010 -3.2309  0.1143
 2078SOL     OW 6811   5.178   1.369   3.162  0.1875  0.0987  0.8306
 2078SOL    HW1 6812   5.120   1.408   3.096 -1.1014  0.6415  2.1969
 2078SOL    HW2 6813   5.220   1.444   3.204  1.0164 -0.2381  0.6127
 2079SOL     OW 6814   8.146   1.733   2.025  0.0111  0.5702  0.0614
 2079SOL    HW1 6815   8.241   1.748   2.027  0.2804 -1.0089  1.2069
 2079SOL    HW2 6816   8.131   1.667   2.093 -1.8368  0.3223 -0.5365
 2080SOL     OW 6817   5.312   4.357   9.976  0.1506  0.3708  0.4771
 2080SOL    HW1 6818   5.221   4.379   9.999 -0.3592 -0.4037 -0.6800
 2080SOL    HW2 6819   5.304   4.280   9.919  1.5632  0.1017  0.6035
 2081SOL     OW 6820   9.408   8.535   2.007 -0.2170  0.5264  0.4063
 2081SOL    HW1 6821   9.464   8.601   2.048 -0.1960  0.0092  1.2207
 2081SOL    HW2 6822   9.422   8.456   2.058 -0.5967  0.0040 -0.2774
 2082SOL     OW 6823   9.447   3.506   4.724  0.4341 -0.1396  0.0620
 2082SOL    HW1 6824   9.412   3.498   4.636 -1.4895 -0.3670  0.8124
 2082SOL    HW2 6825   9.375   3.540   4.776  1.3946 -0.4105  1.6396
 2083SOL     OW 6826   7.551   6.238   9.925  0.0497 -0.3883  0.6173
 2083SOL    HW1 6827   7.562   6.326   9.889  1.3972 -1.0143 -0.5965
 2083SOL    HW2 6828   7.463   6.212   9.897  0.7632 -0.5537 -1.6568
 2084SOL     OW 6829   6.032   9.263   7.590 -0.0254  0.3939 -0.2755
 2084SOL    HW1 6830   5.975   9.247   7.514 -0.2547 -0.1480  0.0054
 2084SOL    HW2 6831   6.083   9.340   7.565 -1.2850  1.2518 -0.2927
 2085SOL     OW 6832   6.717   6.306   2.485 -0.0645 -0.5784 -0.1198
 2085SOL    HW1 6833   6.775   6.351   2.545 -1.2464 -0.1621  0.7453
 2085SOL    HW2 6834   6.667   6.246   2.540 -1.2233 -0.1362 -0.6567
 2086SOL     OW 6835   4.484   9.126   5.475 -0.0746 -0.4722 -0.2420
 2086SOL    HW1 6836   4.534   9.117   5.556 -0.7102 -1.1224  0.0866
 2086SOL    HW2 6837   4.397   9.154   5.503  0.2385  1.2054 -0.8493
 2087SOL     OW 6838   4.576   2.068   1.166  0.4484  0.1910 -0.0508
 2087SOL    HW1 6839   4.589   1.975   1.183  1.0258  0.4114  0.7976
 2087SOL    HW2 6840   4.529   2.072   1.083  4.5129 -0.7425 -2.6789
 2088SOL     OW 6841   1.598   9.870   6.096 -0.1498 -0.6733  0.3394
 2088SOL    HW1 6842   1.609   9.788   6.047 -0.8080 -1.0993  0.8848
 2088SOL    HW2 6843   1.619   9.846   6.186  0.9612  0.0816  0.3002
 2089SOL     OW 6844   3.901   5.856   9.454 -0.2587 -0.1118 -0.6328
 2089SOL    HW1 6845   3.817   5.899   9.434  0.6742  1.2158 -1.9126
 2089SOL    HW2 6846   3.945   5.916   9.514 -0.2574 -0.8697  0.1390
 2090SOL     OW 6847   8.520   1.263   7.729  0.0897 -0.0221  0.3202
 2090SOL    HW1 6848   8.455   1.333   7.720  0.1398 -0.0625 -0.4501
 2090SOL    HW2 6849   8.583   1.296   7.793 -0.1966  0.4061  0.3805
 2091SOL     OW 6850   4.524   4.887   1.081 -0.1706  0.2842  0.1472
 2091SOL    HW1 6851   4.435   4.885   1.046 -0.4810  1.8448  0.7280
 2091SOL    HW2 6852   4.568   4.956   1.030  0.7540 -0.5419 -0.2062
 2092SOL     OW 6853   5.050   8.030   0.862  0.1568  0.2886  0.0823
 2092SOL    HW1 6854   5.091   8.115   0.848 -0.1917  0.8184  2.1185
 2092SOL    HW2 6855   5.112   7.968   0.822  1.7446  1.2785  0.9112
 2093SOL     OW 6856   4.615   7.788   0.457  0.0508  0.1264  0.4658
 2093SOL    HW1 6857   4.678   7.723   0.490 -0.2404  0.9505  2.7886
 2093SOL    HW2 6858   4.562   7.812   0.533 -2.3912  0.2922 -1.1658
 2094SOL     OW 6859   9.778   5.176   3.846  0.4030  0.0203  0.5454
 2094SOL    HW1 6860   9.871   5.196   3.831 -0.0826  1.4963 -0.8879
 2094SOL    HW2 6861   9.755   5.114   3.777  0.2518 -0.1086  0.7099
 2095SOL     OW 6862   7.207   3.385   4.755  0.2352 -0.0302 -0.4301
 2095SOL    HW1 6863   7.298   3.371   4.729 -0.1115 -1.4853 -0.9745
 2095SOL    HW2 6864   7.156   3.341   4.687 -0.8964  1.0751 -0.3296
 2096SOL     OW 6865   5.007   2.066   7.644  0.2232  0.7429 -0.3927
 2096SOL    HW1 6866   5.053   1.997   7.596  2.2675  1.6619  0.1209
 2096SOL    HW2 6867   5.057   2.075   7.726  0.0530  2.8381 -0.4753
 2097SOL     OW 6868   3.430   0.353   3.122  0.2599  0.0277 -0.1123
 2097SOL    HW1 6869   3.342   0.323   3.143  1.1445 -3.6648 -0.9492
 2097SOL    HW2 6870   3.422   0.388   3.033 -0.4736  0.3074  0.0554
 2098SOL     OW 6871   7.753   2.914   6.967  0.6115  0.0158  0.0487
 2098SOL    HW1 6872   7.751   2.940   7.059  1.3228  0.2642 -0.0031
 2098SOL    HW2 6873   7.789   2.826   6.968  2.9333  0.8890 -0.1565
 2099SOL     OW 6874   8.782   4.598   0.662 -0.5913  0.4274  0.0807
 2099SOL    HW1 6875   8.855   4.582   0.721 -0.3140  0.5338 -0.2261
 2099SOL    HW2 6876   8.821   4.594   0.574 -1.3818 -1.8885 -0.2378
 2100SOL     OW 6877   2.496   3.875   0.453  0.0008 -0.0109  0.1402
 2100SOL    HW1 6878   2.579   3.859   0.498  0.2621  0.3441 -0.2134
 2100SOL    HW2 6879   2.520   3.885   0.361 -0.4593 -0.1045  0.0086
 2101SOL     OW 6880   9.595   8.605   6.611  0.4348 -0.2317 -0.3704
 2101SOL    HW1 6881   9.662   8.563   6.557  0.5982  0.9617 -1.1278
 2101SOL    HW2 6882   9.597   8.697   6.585 -0.6944  0.0442  0.4356
 2102SOL     OW 6883   7.163   3.140   6.032  0.3658 -0.4481 -0.2578
 2102SOL    HW1 6884   7.177   3.051   5.999 -0.5818 -0.8949  0.4930
 2102SOL    HW2 6885   7.205   3.141   6.118  0.6481 -0.0683 -0.3992
 2103SOL     OW 6886   0.675   6.402   5.922  0.0989 -0.1709  0.1516
 2103SOL    HW1 6887   0.693   6.367   5.835 -1.0179  0.0031 -0.1644
 2103SOL    HW2 6888   0.693   6.495   5.916  1.6453 -0.4221  0.5856
 2104SOL     OW 6889   6.911   8.226   7.527 -0.2061 -0.5459  0.1664
 2104SOL    HW1 6890   6.843   8.180   7.577  0.2338 -1.8750 -0.4094
 2104SOL    HW2 6891   6.941   8.162   7.463  0.7882  0.4032 -0.3546
 2105SOL     OW 6892   2.152   4.210   6.154  0.0112 -0.4792  0.1265
 2105SOL    HW1 6893   2.179   4.168   6.072  0.9849  2.1756 -1.0556
 2105SOL    HW2 6894   2.219   4.277   6.168 -0.7817 -0.1214  2.5116
 2106SOL     OW 6895   1.777   7.400   3.685  0.2392  0.1317  0.1463
 2106SOL    HW1 6896   1.741   7.488   3.696 -0.6258 -0.2507  0.4720
 2106SOL    HW2 6897   1.806   7.374   3.773  6.0456  2.3097 -0.6720
 2107SOL     OW 6898   1.625   4.528   7.652  0.1536 -0.0905 -0.2217
 2107SOL    HW1 6899   1.540   4.486   7.638  1.3684 -2.6274 -0.5568
 2107SOL    HW2 6900   1.636   4.586   7.576 -1.6013  0.9362  0.2670
 2108SOL     OW 6901   7.918   7.717   9.526  0.1001  0.2465 -0.2884
 2108SOL    HW1 6902   7.960   7.798   9.499  1.3918 -0.4870 -0.5312
 2108SOL    HW2 6903   7.839   7.712   9.473  0.2647  1.0881 -0.6273
 2109SOL     OW 6904   6.796   5.017   1.026  0.7662  0.0534  0.0841
 2109SOL    HW1 6905   6.840   5.071   1.092  0.4654  0.9024 -0.3990
 2109SOL    HW2 6906   6.855   5.018   0.951  0.2962  0.5684 -0.2909
 2110SOL     OW 6907   4.471   3.296   0.267  0.3342 -0.1609  0.7958
 2110SOL    HW1 6908   4.416   3.266   0.195 -0.0094 -0.4583  1.1751
 2110SOL    HW2 6909   4.466   3.391   0.263 -1.1782 -0.1875  1.5467
 2111SOL     OW 6910   4.441   4.332   2.501  0.1708  0.9998 -0.5631
 2111SOL    HW1 6911   4.398   4.305   2.582  0.3624  0.7447 -0.5461
 2111SOL    HW2 6912   4.510   4.267   2.488  0.2024  1.0965 -0.8781
 2112SOL     OW 6913   5.000   4.787   8.418  0.1833 -0.2318  0.2413
 2112SOL    HW1 6914   4.929   4.744   8.370  0.4566 -0.9227  0.4336
 2112SOL    HW2 6915   4.967   4.793   8.508  1.7442 -4.1202  1.2994
 2113SOL     OW 6916   0.536   6.486   4.325 -0.4886 -0.2567 -0.1996
 2113SOL    HW1 6917   0.567   6.501   4.236  0.7493 -1.7979 -0.0524
 2113SOL    HW2 6918   0.592   6.543   4.379 -1.5710  1.0630 -0.4087
 2114SOL     OW 6919   0.946   5.857   3.962 -0.2678  0.6088 -0.0313
 2114SOL    HW1 6920   1.001   5.934   3.948 -0.6579  0.9470  0.2677
 2114SOL    HW2 6921   0.946   5.811   3.878  1.4190 -0.0308  0.2924
 2115SOL     OW 6922   9.421   1.626   7.036  0.6114  0.4819  0.6564
 2115SOL    HW1 6923   9.361   1.645   6.964  1.0982  1.3307  0.4602
 2115SOL    HW2 6924   9.502   1.599   6.992  0.6809  0.2976  0.8987
 2116SOL     OW 6925   9.299   0.563   4.026 -0.3911  0.1179  0.4420
 2116SOL    HW1 6926   9.341   0.563   3.939  0.9816 -3.1553  0.9335
 2116SOL    HW2 6927   9.347   0.628   4.076  0.4052  0.3526 -0.5881
 2117SOL     OW 6928   0.014   0.718   0.320  0.0094  0.2880 -0.0823
 2117SOL    HW1 6929   0.017   0.740   0.227  0.8298  0.1386 -0.1030
 2117SOL    HW2 6930   0.086   0.768   0.358 -0.8733  1.0422  0.6385
 2118SOL     OW 6931   3.722   6.932   1.197 -0.6033  0.1430 -0.1030
 2118SOL    HW1 6932   3.634   6.904   1.172 -0.3241  0.0084 -0.9747
 2118SOL    HW2 6933   3.746   6.997   1.131  0.5230 -0.8884 -0.7447
 2119SOL     OW 6934   4.406   5.164   6.678  0.1559  0.2930 -0.1023
 2119SOL    HW1 6935   4.401   5.093   6.614  0.5109  2.5419 -2.7799
 2119SOL    HW2 6936   4.340   5.140   6.744 -1.1829 -1.5205 -1.9444
 2120SOL     OW 6937   0.728   9.610   4.909  0.2426  0.1952  0.0593
 2120SOL    HW1 6938   0.768   9.694   4.887 -0.4997  0.5224 -0.0779
 2120SOL    HW2 6939   0.643   9.633   4.946 -0.8507 -0.5490 -1.8592
 2121SOL     OW 6940   0.585   1.979   3.325  0.3965 -0.2394  0.5539
 2121SOL    HW1 6941   0.583   2.011   3.235 -0.5918 -0.5200  0.4736
 2121SOL    HW2 6942   0.494   1.971   3.351  0.4572 -4.3599  0.0783
 2122SOL     OW 6943   4.943   0.591   0.410  0.0485 -0.3043 -0.6779
 2122SOL    HW1 6944   4.864   0.640   0.432  0.9493  0.9364 -0.0913
 2122SOL    HW2 6945   4.974   0.629   0.328  0.8603  0.2830 -0.1193
 2123SOL     OW 6946   7.787   9.373   2.438 -0.0883 -0.1276 -0.0241
 2123SOL    HW1 6947   7.768   9.455   2.484  0.0242  0.4501 -0.9773
 2123SOL    HW2 6948   7.797   9.308   2.508  1.9476  1.0714  0.8733
 2124SOL     OW 6949   1.501   5.179   1.114  0.0320  0.1397  0.2162
 2124SOL    HW1 6950   1.480   5.119   1.043  1.2987 -0.0910  0.0159
 2124SOL    HW2 6951   1.571   5.234   1.079 -0.5170  1.1812  0.6956
 2125SOL     OW 6952   9.575   8.243   3.015  0.7015  0.2197  0.2442
 2125SOL    HW1 6953   9.481   8.261   3.009  0.0933 -1.7865  2.3283
 2125SOL    HW2 6954   9.609   8.313   3.070 -0.0035 -0.2017  1.2419
 2126SOL     OW 6955   2.341   3.531   2.945  0.0570  0.3994 -0.1638
 2126SOL    HW1 6956   2.246   3.530   2.939 -0.0232  0.0280  0.9307
 2126SOL    HW2 6957   2.360   3.500   3.034  1.2302 -0.8998 -0.8203
 2127SOL     OW 6958   7.802   1.774   4.987  0.5598 -0.0577 -0.1239
 2127SOL    HW1 6959   7.838   1.754   5.074  0.6263  0.5472 -0.0138
 2127SOL    HW2 6960   7.742   1.847   5.002 -0.3379 -0.7168 -0.3930
 2128SOL     OW 6961   8.828   9.547   5.436 -0.3356 -0.2838  0.3315
 2128SOL    HW1 6962   8.864   9.528   5.522  0.3853  0.1591  0.1332
 2128SOL    HW2 6963   8.853   9.472   5.382  1.8314  0.7766 -0.2491
 2129SOL     OW 6964   2.581   5.057   5.882 -0.2869  0.2768 -0.4034
 2129SOL    HW1 6965   2.513   4.993   5.861  2.0248 -2.4597 -0.0238
 2129SOL    HW2 6966   2.616   5.029   5.966  0.6553  2.2302 -0.0887
 2130SOL     OW 6967   7.655   8.535   2.946  0.0244  0.4674 -0.1273
 2130SOL    HW1 6968   7.674   8.455   2.897  2.1992  1.2333 -0.6703
 2130SOL    HW2 6969   7.710   8.530   3.023 -0.6916  0.9209  0.4277
 2131SOL     OW 6970   6.344   9.593   6.389  0.0279 -0.1507  0.3726
 2131SOL    HW1 6971   6.292   9.672   6.402  1.1122  0.8820 -1.2193
 2131SOL    HW2 6972   6.427   9.611   6.434 -0.2195 -0.9869  1.2122
 2132SOL     OW 6973   3.224   1.309   4.450 -0.1977  0.4154  0.2028
 2132SOL    HW1 6974   3.176   1.330   4.530  0.3820 -0.6730  0.8560
 2132SOL    HW2 6975   3.269   1.227   4.470  1.1794  0.9216 -0.7179
 2133SOL     OW 6976   6.538   7.523   2.783 -0.8164  0.1126 -0.1707
 2133SOL    HW1 6977   6.529   7.525   2.688 -3.8587  1.4074  0.0356
 2133SOL    HW2 6978   6.496   7.441   2.809  0.0585 -0.2637  0.0807
 2134SOL     OW 6979   3.923   1.798   0.946 -0.1641  0.3290 -0.2882
 2134SOL    HW1 6980   3.924   1.889   0.975 -0.2172 -0.4143  2.3551
 2134SOL    HW2 6981   3.844   1.761   0.984 -1.5732 -0.2799 -3.5077
 2135SOL     OW 6982   8.891   6.224   8.358 -0.5799  0.4668 -0.0753
 2135SOL    HW1 6983   8.827   6.207   8.289 -2.8024  0.1349  1.9106
 2135SOL    HW2 6984   8.874   6.156   8.423 -1.1321  2.8202  2.4135
 2136SOL     OW 6985   3.928   8.039   9.952  0.9460 -0.1640  0.0427
 2136SOL    HW1 6986   3.846   7.990   9.957  0.3795  0.8682  2.9836
 2136SOL    HW2 6987   3.943   8.053   9.859 -1.3525 -1.7534 -0.6399
 2137SOL     OW 6988   8.220   9.425   4.607  0.0940  0.1516 -0.5535
 2137SOL    HW1 6989   8.294   9.419   4.668 -1.2059  0.1099  1.0830
 2137SOL    HW2 6990   8.245   9.369   4.534  1.6387  0.0768 -0.0053
 2138SOL     OW 6991   9.272   9.740   8.183 -0.1061 -0.1217 -0.0549
 2138SOL    HW1 6992   9.275   9.696   8.268 -1.3989  2.1849  1.2887
 2138SOL    HW2 6993   9.363   9.759   8.162  0.1956 -0.1519  1.1553
 2139SOL     OW 6994   3.824   9.100   2.185 -0.3114  0.1684  0.0287
 2139SOL    HW1 6995   3.857   9.113   2.096 -0.3462  0.5762  0.0731
 2139SOL    HW2 6996   3.856   9.013   2.210  0.0014  0.2023 -0.2499
 2140SOL     OW 6997   1.374   1.301   9.569 -0.0455  0.4128 -0.1980
 2140SOL    HW1 6998   1.370   1.224   9.627 -0.3211  0.6124  0.0533
 2140SOL    HW2 6999   1.459   1.340   9.589  0.7005 -0.5723 -1.3066
 2141SOL     OW 7000   0.290   8.212   6.513 -0.2507  0.5912  0.1763
 2141SOL    HW1 7001   0.214   8.198   6.456  0.3186  0.3419 -0.5275
 2141SOL    HW2 7002   0.349   8.139   6.494  0.4582  1.1346  0.2298
 2142SOL     OW 7003   8.715   7.624   4.829  0.0403  0.0960 -0.0391
 2142SOL    HW1 7004   8.633   7.580   4.849  0.0632  0.5649  1.1902
 2142SOL    HW2 7005   8.714   7.703   4.884  1.2592  0.1574 -0.0773
 2143SOL     OW 7006   4.806   6.580   5.561 -0.2046 -0.1011  0.1336
 2143SOL    HW1 7007   4.899   6.574   5.540 -0.4932 -1.2430 -0.9948
 2143SOL    HW2 7008   4.802   6.577   5.656  1.0052  1.8529  0.2858
 2144SOL     OW 7009   9.331   6.963   1.844 -0.3859  0.1901 -0.1349
 2144SOL    HW1 7010   9.370   6.912   1.914 -0.3358 -1.3163 -1.2116
 2144SOL    HW2 7011   9.251   6.999   1.882 -0.2611 -0.4350  0.7481
 2145SOL     OW 7012   3.716   4.978   6.973  0.1874  0.1132 -0.5492
 2145SOL    HW1 7013   3.706   4.910   7.039  1.8166 -1.8594 -2.2112
 2145SOL    HW2 7014   3.659   4.951   6.901 -0.2167  1.2870 -0.7034
 2146SOL     OW 7015   5.641   0.952   6.005 -0.1626 -0.6206 -0.1862
 2146SOL    HW1 7016   5.710   0.915   5.951 -0.1040 -2.7679  1.1949
 2146SOL    HW2 7017   5.567   0.892   5.993 -0.9520  0.2535  0.2106
 2147SOL     OW 7018   1.934   4.589   9.947  0.3651 -0.0590  0.1312
 2147SOL    HW1 7019   1.880   4.664   9.971 -0.3118 -0.1092 -1.1574
 2147SOL    HW2 7020   1.944   4.596   9.852 -0.6148 -2.1625 -0.1855
 2148SOL     OW 7021   2.741   4.920   2.648  0.9496  0.2636 -0.3570
 2148SOL    HW1 7022   2.655   4.949   2.678  1.1263 -0.8680  1.3581
 2148SOL    HW2 7023   2.779   4.998   2.605  0.2386  1.6798  1.4491
 2149SOL     OW 7024   7.565   6.121   0.203 -0.8776 -0.4559  0.4414
 2149SOL    HW1 7025   7.577   6.134   0.109 -1.3245 -1.3325  0.2504
 2149SOL    HW2 7026   7.570   6.026   0.215 -1.9910 -0.4437  1.1292
 2150SOL     OW 7027   2.600   3.722   9.654  0.0875 -0.2547  0.0692
 2150SOL    HW1 7028   2.652   3.732   9.575  1.8735 -1.7660  0.9655
 2150SOL    HW2 7029   2.664   3.710   9.724 -1.4370  0.4042  1.6733
 2151SOL     OW 7030   5.539   0.667   6.230  0.2738 -0.4595 -0.5244
 2151SOL    HW1 7031   5.615   0.719   6.257 -0.2190 -0.2051  0.4142
 2151SOL    HW2 7032   5.466   0.729   6.231 -0.2586 -1.0806  0.2764
 2152SOL     OW 7033   4.946   4.434   9.639 -0.4005 -0.1153  0.1072
 2152SOL    HW1 7034   5.028   4.430   9.590  0.0544  1.3044  0.6875
 2152SOL    HW2 7035   4.938   4.526   9.665 -0.5726 -0.7827  2.7268
 2153SOL     OW 7036   3.693   5.161   0.425  0.0107  0.4206 -0.0224
 2153SOL    HW1 7037   3.712   5.254   0.430 -1.0876  0.7398 -1.2589
 2153SOL    HW2 7038   3.646   5.150   0.342  0.7204 -1.3467 -0.2431
 2154SOL     OW 7039   7.971   0.351   6.461  0.1777  0.2129  0.2082
 2154SOL    HW1 7040   8.055   0.308   6.476  0.2311 -0.0381 -0.7423
 2154SOL    HW2 7041   7.993   0.442   6.439  0.1386  0.3916  0.8802
 2155SOL     OW 7042   1.591   7.351   5.441  0.4080 -0.0789  0.0135
 2155SOL    HW1 7043   1.523   7.328   5.504 -0.0299  1.5151  0.1516
 2155SOL    HW2 7044   1.574   7.442   5.419  1.6954 -0.0538 -0.9846
 2156SOL     OW 7045   8.633   7.741   3.981  0.3058 -0.4893  0.3654
 2156SOL    HW1 7046   8.579   7.735   4.060 -0.9024 -0.4698 -0.4332
 2156SOL    HW2 7047   8.623   7.832   3.952  0.2842 -0.6455 -0.1244
 2157SOL     OW 7048   5.776   3.044   7.697  0.1650  0.8539 -0.1365
 2157SOL    HW1 7049   5.715   2.972   7.680 -0.8946  2.1365 -2.1245
 2157SOL    HW2 7050   5.841   3.037   7.627  3.1484 -1.1394  2.5173
 2158SOL     OW 7051   4.270   9.768   2.536 -0.1694 -0.3205  0.4146
 2158SOL    HW1 7052   4.234   9.715   2.464 -0.0444  0.6469 -0.3929
 2158SOL    HW2 7053   4.356   9.795   2.504  0.3595 -0.7889  1.4083
 2159SOL     OW 7054   9.825   7.872   3.070 -0.2180 -0.4673  0.3878
 2159SOL    HW1 7055   9.885   7.816   3.022  0.9194  0.2919  0.8867
 2159SOL    HW2 7056   9.751   7.884   3.011  1.0230  0.2364 -1.0844
 2160SOL     OW 7057   5.631   7.557   7.195  0.5349  0.3415  0.1060
 2160SOL    HW1 7058   5.675   7.487   7.148 -0.2623 -0.0500 -0.0783
 2160SOL    HW2 7059   5.595   7.613   7.126 -2.3347 -1.2864  0.1220
 2161SOL     OW 7060   2.600   6.968   8.004  0.2574 -0.6209  0.3004
 2161SOL    HW1 7061   2.547   6.978   7.926  0.0080  0.9944  0.6580
 2161SOL    HW2 7062   2.605   7.055   8.042  2.4086 -0.8917  0.7722
 2162SOL     OW 7063   0.895   0.457   3.441 -0.3043  0.0075 -0.4333
 2162SOL    HW1 7064   0.846   0.402   3.379 -0.0655  0.3213 -0.9119
 2162SOL    HW2 7065   0.841   0.459   3.519 -1.0465  0.3257 -0.9458
 2163SOL     OW 7066   0.768   5.272   4.209  0.0447  0.0962 -0.0310
 2163SOL    HW1 7067   0.830   5.205   4.240  0.1609  1.5590  3.2794
 2163SOL    HW2 7068   0.820   5.352   4.202 -1.2123  1.1676  2.0157
 2164SOL     OW 7069   5.610   5.220   9.456 -0.1960 -0.2204 -0.3818
 2164SOL    HW1 7070   5.630   5.246   9.546 -0.0417  0.0207 -0.4841
 2164SOL    HW2 7071   5.574   5.299   9.416  1.0702  0.0957 -0.9454
 2165SOL     OW 7072   4.281   8.927   3.754 -0.3374  0.0904 -0.0813
 2165SOL    HW1 7073   4.317   8.843   3.781 -0.6725 -0.0870 -0.1832
 2165SOL    HW2 7074   4.354   8.972   3.711 -0.1510 -0.1364 -0.0022
 2166SOL     OW 7075   6.965   3.132   8.841 -0.3397 -0.4969  0.0594
 2166SOL    HW1 7076   6.873   3.156   8.852 -0.2412  0.8672 -1.7095
 2166SOL    HW2 7077   7.014   3.207   8.877  0.0011  0.5411 -2.3708
 2167SOL     OW 7078   4.929   9.804   2.447  0.3017  0.4937  0.1112
 2167SOL    HW1 7079   4.988   9.791   2.521  0.9717 -1.9915 -0.7603
 2167SOL    HW2 7080   4.916   9.716   2.411 -1.6954  1.3537 -1.4469
 2168SOL     OW 7081   6.611   0.126   9.261 -0.4912 -0.0247  0.3089
 2168SOL    HW1 7082   6.554   0.054   9.285  0.5214 -0.4370  1.5711
 2168SOL    HW2 7083   6.700   0.095   9.280  0.3387  0.1648 -2.6037
 2169SOL     OW 7084   3.821   6.008   2.075 -0.2221 -0.6079  0.1244
 2169SOL    HW1 7085   3.806   5.994   1.981 -0.4896 -0.7916  0.1923
 2169SOL    HW2 7086   3.733   6.019   2.112 -0.0335  2.3900 -0.0747
 2170SOL     OW 7087   7.382   3.995   9.295 -0.1816 -0.4131  0.5982
 2170SOL    HW1 7088   7.356   4.010   9.204 -1.3287 -0.7960  0.8473
 2170SOL    HW2 7089   7.477   4.011   9.296 -0.3663  0.9549 -0.3661
 2171SOL     OW 7090   8.785   0.571   2.183 -0.1141  0.2159 -0.4790
 2171SOL    HW1 7091   8.754   0.544   2.097  0.7916  0.5799 -0.9317
 2171SOL    HW2 7092   8.725   0.529   2.245 -1.3458  0.7014 -1.3047
 2172SOL     OW 7093   4.383   2.642   9.719 -0.0316 -0.4379  0.8819
 2172SOL    HW1 7094   4.374   2.547   9.718  0.6237 -0.5020  0.8665
 2172SOL    HW2 7095   4.477   2.658   9.729  0.2184  0.1882 -1.6419
 2173SOL     OW 7096   8.267   7.537   1.610  0.0262  0.4933 -0.1854
 2173SOL    HW1 7097   8.234   7.517   1.523  0.5015  1.4774 -0.6130
 2173SOL    HW2 7098   8.220   7.478   1.669 -1.2688  0.7191 -0.9604
 2174SOL     OW 7099   9.637   1.822   6.200 -0.0567 -0.1999  0.6637
 2174SOL    HW1 7100   9.587   1.885   6.147  0.6799  2.1010  2.5190
 2174SOL    HW2 7101   9.591   1.821   6.284  1.6093  0.1405  1.6251
 2175SOL     OW 7102   4.380   5.711   2.369  0.0409  0.8587 -0.0347
 2175SOL    HW1 7103   4.289   5.739   2.362 -0.6904 -1.4216 -0.4662
 2175SOL    HW2 7104   4.400   5.673   2.283  0.5894 -0.8056  0.7779
 2176SOL     OW 7105   2.644   0.221   6.177 -0.3855 -0.3678 -0.2578
 2176SOL    HW1 7106   2.596   0.241   6.097 -0.8244 -0.5128 -0.0350
 2176SOL    HW2 7107   2.604   0.277   6.244  0.6249  0.4743 -0.3379
 2177SOL     OW 7108   7.054   1.818   8.559  0.3708 -0.4229  0.2464
 2177SOL    HW1 7109   7.036   1.896   8.612 -1.7906 -0.1408 -0.7884
 2177SOL    HW2 7110   7.042   1.847   8.469 -0.5128 -1.9249 -0.1543
 2178SOL     OW 7111   0.817   4.604   1.461 -0.0032 -0.2128  0.1978
 2178SOL    HW1 7112   0.755   4.541   1.499  1.1660  0.1076  2.8725
 2178SOL    HW2 7113   0.791   4.688   1.500  0.9070  0.2598 -0.1962
 2179SOL     OW 7114   3.461   3.178   2.084  0.3408 -0.3744 -0.2744
 2179SOL    HW1 7115   3.402   3.246   2.115 -0.3894 -1.5704  1.1133
 2179SOL    HW2 7116   3.547   3.220   2.081  0.0622  0.3818  1.3932
 2180SOL     OW 7117   7.319   0.108   6.169  0.1911 -0.5962 -0.3247
 2180SOL    HW1 7118   7.281   0.175   6.113  0.2347 -0.4763 -0.2138
 2180SOL    HW2 7119   7.409   0.138   6.184  0.3744 -0.9481 -0.6996
 2181SOL     OW 7120   4.424   7.642   4.078 -0.1526 -0.5688 -0.1195
 2181SOL    HW1 7121   4.429   7.662   4.171 -0.4867 -0.6797 -0.0738
 2181SOL    HW2 7122   4.404   7.725   4.036  1.6174 -0.1846 -0.2764
 2182SOL     OW 7123   0.681   9.897   7.488  0.3027 -0.2880  0.2693
 2182SOL    HW1 7124   0.599   9.891   7.537  0.9855 -0.1862  1.4880
 2182SOL    HW2 7125   0.705   9.806   7.471  0.3063 -0.3463  0.5720
 2183SOL     OW 7126   4.959   8.871   7.851 -0.0173  0.1898  0.3620
 2183SOL    HW1 7127   4.979   8.930   7.778 -1.6233 -1.5657 -1.6029
 2183SOL    HW2 7128   4.887   8.914   7.897 -0.3315  0.3683 -0.2888
 2184SOL     OW 7129   2.219   5.220   0.453 -0.2579  0.3564 -0.4022
 2184SOL    HW1 7130   2.194   5.135   0.416 -2.1202  1.2417 -1.3299
 2184SOL    HW2 7131   2.275   5.259   0.386  1.0000 -0.3203  0.2397
 2185SOL     OW 7132   3.496   8.407   7.486 -0.0384  0.0859 -0.1127
 2185SOL    HW1 7133   3.436   8.380   7.416  0.9588 -1.7268 -0.3307
 2185SOL    HW2 7134   3.582   8.377   7.456  0.6301  0.5926  1.2395
 2186SOL     OW 7135   0.484   0.186   5.622 -0.1778 -0.2928  0.0940
 2186SOL    HW1 7136   0.525   0.256   5.672  1.4172 -0.0436 -1.4657
 2186SOL    HW2 7137   0.409   0.227   5.579 -0.4140 -0.0463  0.7361
 2187SOL     OW 7138   0.323   1.776   5.079 -0.1237 -0.2815 -0.0841
 2187SOL    HW1 7139   0.318   1.858   5.031  2.4036 -0.5114 -0.9185
 2187SOL    HW2 7140   0.310   1.708   5.012  0.1361 -0.5814  0.1647
 2188SOL     OW 7141   7.689   4.330   1.441 -0.2441 -0.5112 -0.2644
 2188SOL    HW1 7142   7.673   4.377   1.522  0.6149  1.3035 -1.0767
 2188SOL    HW2 7143   7.611   4.348   1.387 -1.0558 -2.1522  0.3160
 2189SOL     OW 7144   5.055   1.121   5.940 -0.2323  0.0098  0.3137
 2189SOL    HW1 7145   4.968   1.146   5.909 -0.4722 -1.2519 -0.1086
 2189SOL    HW2 7146   5.116   1.154   5.874 -0.6314 -1.4530 -0.8588
 2190SOL     OW 7147   2.444   9.543   3.546  0.6000 -0.3174  0.4084
 2190SOL    HW1 7148   2.356   9.563   3.577  0.1383  1.0806 -1.5616
 2190SOL    HW2 7149   2.445   9.448   3.535 -0.2426 -0.4804  1.5852
 2191SOL     OW 7150   6.289   5.785   7.301 -0.0556  0.7048  0.3682
 2191SOL    HW1 7151   6.325   5.873   7.289  0.0543  0.4380 -1.6257
 2191SOL    HW2 7152   6.220   5.779   7.235 -0.5746 -0.4480  1.0006
 2192SOL     OW 7153   3.347   4.336   4.812  0.2658 -0.4765 -0.2670
 2192SOL    HW1 7154   3.350   4.348   4.907 -1.0920  0.9219 -0.3632
 2192SOL    HW2 7155   3.438   4.348   4.784  0.9795 -2.5424  0.9886
 2193SOL     OW 7156   2.634   9.876   1.230  0.9832  0.1022  0.2219
 2193SOL    HW1 7157   2.593   9.790   1.235 -0.3189  0.7591  2.2263
 2193SOL    HW2 7158   2.568   9.931   1.186  0.1258  0.8813  2.3440
 2194SOL     OW 7159   5.535   4.901   4.180  0.0841  0.5552  0.9215
 2194SOL    HW1 7160   5.620   4.894   4.135 -0.0542  0.3096  0.7005
 2194SOL    HW2 7161   5.535   4.828   4.242 -0.5983 -0.3618 -0.1319
 2195SOL     OW 7162   8.204   0.608   8.142 -0.4089 -0.4807 -0.6884
 2195SOL    HW1 7163   8.185   0.542   8.208 -0.7305  0.0762 -0.2087
 2195SOL    HW2 7164   8.125   0.612   8.088 -1.1729  0.8361  0.4462
 2196SOL     OW 7165   0.071   2.455   6.043 -0.3211 -0.0699 -0.1659
 2196SOL    HW1 7166   0.016   2.527   6.075 -0.7477 -0.4752  0.0170
 2196SOL    HW2 7167   0.160   2.481   6.068 -0.5357  0.1075  0.4505
 2197SOL     OW 7168   1.446   7.198   8.004 -0.4446  0.1748  0.2121
 2197SOL    HW1 7169   1.529   7.211   7.958 -0.6045 -0.6882 -0.3384
 2197SOL    HW2 7170   1.461   7.124   8.062 -1.3074 -1.1567 -1.1733
 2198SOL     OW 7171   6.112   1.149   9.231 -0.1782  0.3630 -0.4485
 2198SOL    HW1 7172   6.126   1.145   9.326 -2.5249 -1.1770 -0.0739
 2198SOL    HW2 7173   6.149   1.233   9.205  1.6893  0.2871  1.5824
 2199SOL     OW 7174   0.051   7.324   7.144 -0.1749 -0.4517  0.0306
 2199SOL    HW1 7175   0.023   7.393   7.204  0.9409  0.0252  0.0302
 2199SOL    HW2 7176   0.147   7.329   7.145 -0.0490 -2.1305  0.1888
 2200SOL     OW 7177   5.777   0.826   4.234  0.0828  0.5275 -0.5138
 2200SOL    HW1 7178   5.740   0.865   4.314  1.0514  0.5959 -0.0850
 2200SOL    HW2 7179   5.701   0.811   4.178 -1.2478 -3.1040  1.8778
 2201SOL     OW 7180   0.856   3.483   1.885  0.2023 -0.7974  0.5962
 2201SOL    HW1 7181   0.939   3.474   1.932  0.7825  0.6129 -0.1047
 2201SOL    HW2 7182   0.827   3.572   1.902 -0.0540 -0.5499 -0.9105
 2202SOL     OW 7183   9.760   5.544   4.025  0.1873 -0.2548 -0.0713
 2202SOL    HW1 7184   9.704   5.612   4.062  0.6874  0.3948 -0.4837
 2202SOL    HW2 7185   9.721   5.462   4.055  0.3194  0.2355  1.5118
 2203SOL     OW 7186   4.460   0.929   2.909 -0.8128  0.6388 -0.6929
 2203SOL    HW1 7187   4.504   1.010   2.884 -0.6434  0.4847 -0.9078
 2203SOL    HW2 7188   4.495   0.908   2.995 -0.4704  0.5250 -0.8557
 2204SOL     OW 7189   4.435   0.370   2.301  0.5841  0.0858  0.8518
 2204SOL    HW1 7190   4.524   0.334   2.306  1.7544  2.3229 -1.6021
 2204SOL    HW2 7191   4.442   0.457   2.340  0.4096  1.6639 -2.3420
 2205SOL     OW 7192   2.397   3.004   3.819  0.6536  0.2672  0.0606
 2205SOL    HW1 7193   2.420   2.912   3.833 -1.0937  0.0823  2.2246
 2205SOL    HW2 7194   2.465   3.053   3.865  1.3291  0.0872 -0.7077
 2206SOL     OW 7195   1.695   4.310   0.794 -0.1309 -0.0256 -0.1088
 2206SOL    HW1 7196   1.723   4.349   0.711  1.6952 -1.0187 -0.0251
 2206SOL    HW2 7197   1.606   4.342   0.808 -1.3036 -1.3882 -3.4375
 2207SOL     OW 7198   4.882   8.413   3.146  0.1987  0.7077 -0.1925
 2207SOL    HW1 7199   4.955   8.351   3.152  0.0672  0.6570  1.5496
 2207SOL    HW2 7200   4.901   8.465   3.068  0.3630 -1.4291 -1.6625
 2208SOL     OW 7201   5.997   6.038   1.351 -0.0477 -0.2809  0.6309
 2208SOL    HW1 7202   5.988   6.133   1.357  0.7384 -0.0372 -1.3412
 2208SOL    HW2 7203   6.084   6.020   1.387 -0.3371 -0.3125  1.3315
 2209SOL     OW 7204   5.615   5.668   3.921 -0.1312  0.0150 -0.1161
 2209SOL    HW1 7205   5.636   5.724   3.846  1.7007 -0.6651 -0.1686
 2209SOL    HW2 7206   5.698   5.624   3.942 -1.3023 -2.0543  0.4430
 2210SOL     OW 7207   0.317   6.738   0.544 -0.0692 -0.1260 -0.3764
 2210SOL    HW1 7208   0.252   6.724   0.474  0.4620  0.2240 -0.9521
 2210SOL    HW2 7209   0.397   6.763   0.497  0.4256 -0.3475  0.3385
 2211SOL     OW 7210   8.644   2.261   7.514 -0.1691 -0.0100  0.1763
 2211SOL    HW1 7211   8.685   2.200   7.453 -0.3335  0.4464 -0.3946
 2211SOL    HW2 7212   8.557   2.224   7.530  1.1824 -2.2837  3.2369
 2212SOL     OW 7213   5.510   0.479   8.689 -0.3801 -0.4801  0.1879
 2212SOL    HW1 7214   5.493   0.392   8.725 -2.8382  0.1262  0.7034
 2212SOL    HW2 7215   5.482   0.474   8.598  0.8971 -0.6070 -0.2123
 2213SOL     OW 7216   1.975   5.668   1.758  0.1539 -0.8747 -0.2110
 2213SOL    HW1 7217   2.042   5.699   1.819 -0.6148 -3.1949  1.9922
 2213SOL    HW2 7218   1.892   5.698   1.796 -0.2266 -0.2236 -1.5026
 2214SOL     OW 7219   4.674   4.395   0.138 -0.0239  0.7747 -0.2588
 2214SOL    HW1 7220   4.705   4.327   0.197 -1.2621  0.9250  0.6125
 2214SOL    HW2 7221   4.706   4.477   0.177 -2.1875  1.0257  1.2270
 2215SOL     OW 7222   6.193   2.509   2.651  0.1701  0.0580  0.3476
 2215SOL    HW1 7223   6.260   2.514   2.583 -0.6322  0.8026 -0.4176
 2215SOL    HW2 7224   6.225   2.442   2.711  2.2438  1.2651  0.7035
 2216SOL     OW 7225   9.617   5.511   2.735 -0.5096 -0.1347 -0.0969
 2216SOL    HW1 7226   9.547   5.565   2.699 -2.2685 -0.5053  2.4611
 2216SOL    HW2 7227   9.685   5.574   2.762 -0.7160  0.4108 -0.8315
 2217SOL     OW 7228   2.354   1.125   7.507 -0.3116 -0.1693 -0.1818
 2217SOL    HW1 7229   2.310   1.145   7.590 -0.3673 -0.0045 -0.2509
 2217SOL    HW2 7230   2.284   1.096   7.449 -0.1168 -1.4068  0.1785
 2218SOL     OW 7231   2.059   3.505   3.051 -0.8213 -0.3020 -0.1658
 2218SOL    HW1 7232   2.092   3.424   3.089 -3.3820 -0.9091  0.9683
 2218SOL    HW2 7233   2.044   3.562   3.126 -2.5747 -0.2084 -0.5350
 2219SOL     OW 7234   1.910   0.011   2.882 -0.5999 -0.5130  0.2853
 2219SOL    HW1 7235   1.822   0.038   2.857 -0.6696 -2.6283 -2.1779
 2219SOL    HW2 7236   1.967   0.078   2.845 -1.0786  0.1893  0.7903
 2220SOL     OW 7237   4.187   6.493   7.038  0.7047 -0.3120  0.0538
 2220SOL    HW1 7238   4.113   6.437   7.062  0.7916 -0.8773 -0.9396
 2220SOL    HW2 7239   4.231   6.446   6.967  1.4330  0.4910 -0.0469
 2221SOL     OW 7240   6.093   8.102   9.590  0.5463  0.2857 -0.3199
 2221SOL    HW1 7241   6.013   8.056   9.615  1.1350 -0.3665  0.4316
 2221SOL    HW2 7242   6.063   8.182   9.548 -0.5037 -0.5254 -1.1723
 2222SOL     OW 7243   5.654   5.531   4.699 -0.7313 -0.2033 -0.5001
 2222SOL    HW1 7244   5.596   5.606   4.712 -1.3575 -0.5204 -1.4013
 2222SOL    HW2 7245   5.615   5.460   4.750  0.2457  0.2356  0.9413
 2223SOL     OW 7246   4.267   3.001   9.135  0.0738  0.3621 -0.4000
 2223SOL    HW1 7247   4.341   3.053   9.102 -0.5239  0.4584 -1.6342
 2223SOL    HW2 7248   4.210   2.991   9.060  0.8754 -3.4095 -0.6853
 2224SOL     OW 7249   8.744   9.846   2.869  0.3171  0.3323 -0.5972
 2224SOL    HW1 7250   8.701   9.930   2.856 -3.6848 -1.5436 -0.8843
 2224SOL    HW2 7251   8.797   9.833   2.790  0.2420  2.1371 -0.9743
 2225SOL     OW 7252   2.914   8.172   6.717 -0.5905  0.0909 -0.2814
 2225SOL    HW1 7253   2.997   8.153   6.760 -0.7520  1.6663  0.8112
 2225SOL    HW2 7254   2.926   8.142   6.627  1.7307  1.6750 -0.5618
 2226SOL     OW 7255   3.096   8.354   9.387  0.1063  0.0592  0.5768
 2226SOL    HW1 7256   3.076   8.261   9.398  0.0049 -0.5040 -3.1122
 2226SOL    HW2 7257   3.011   8.396   9.377  0.1087 -0.4479 -3.0672
 2227SOL     OW 7258   3.289   7.308   2.948 -0.2350  0.4257  0.0333
 2227SOL    HW1 7259   3.369   7.291   2.998 -0.4643 -1.9116 -0.2598
 2227SOL    HW2 7260   3.219   7.304   3.014 -0.2458  0.8772  0.0506
 2228SOL     OW 7261   8.683   1.877   9.771  0.1825  0.9844  0.3147
 2228SOL    HW1 7262   8.634   1.819   9.829  0.3359  1.6734  1.1525
 2228SOL    HW2 7263   8.770   1.883   9.811  0.7590  0.3267 -0.7760
 2229SOL     OW 7264   6.751   8.377   9.366  0.1313  0.4617 -0.0027
 2229SOL    HW1 7265   6.829   8.412   9.325  0.8577  0.8902  1.6649
 2229SOL    HW2 7266   6.779   8.293   9.402 -0.5450 -0.0026 -0.5251
 2230SOL     OW 7267   1.998   6.310   2.859  0.3547 -0.0665 -0.0596
 2230SOL    HW1 7268   2.002   6.405   2.852  0.6496 -0.0497  0.3032
 2230SOL    HW2 7269   1.985   6.280   2.770 -1.3014  0.3921 -0.0120
 2231SOL     OW 7270   6.879   2.280   0.667  0.0225  0.0706  0.2178
 2231SOL    HW1 7271   6.945   2.320   0.610 -0.3781 -0.4468 -0.6348
 2231SOL    HW2 7272   6.920   2.199   0.698 -0.5220 -0.7507 -1.0874
 2232SOL     OW 7273   6.149   9.881   0.523 -0.3893 -0.0951 -0.6783
 2232SOL    HW1 7274   6.129   9.803   0.575 -0.7463  0.3009 -0.2035
 2232SOL    HW2 7275   6.180   9.945   0.588 -0.1116  0.1592 -1.0588
 2233SOL     OW 7276   7.957   4.560   3.545 -0.0788  0.2562  0.2154
 2233SOL    HW1 7277   7.942   4.638   3.597 -1.5696 -0.0532  0.3127
 2233SOL    HW2 7278   7.923   4.581   3.458  1.0327  0.2655 -0.2337
 2234SOL     OW 7279   1.123   4.353   1.090 -0.1102 -0.5093 -0.3313
 2234SOL    HW1 7280   1.126   4.272   1.141 -0.2533  0.0770  0.6423
 2234SOL    HW2 7281   1.213   4.383   1.086 -0.2184 -0.0195  0.5032
 2235SOL     OW 7282   8.212   3.404   7.029 -0.7835  0.3424  0.3710
 2235SOL    HW1 7283   8.246   3.360   6.951 -1.8841  1.2405 -0.6450
 2235SOL    HW2 7284   8.288   3.447   7.068 -0.5510  1.6224 -1.3814
 2236SOL     OW 7285   7.224   7.296   8.595 -0.0267  0.0744 -0.1415
 2236SOL    HW1 7286   7.224   7.250   8.679  0.0922  0.0407 -0.1594
 2236SOL    HW2 7287   7.132   7.314   8.577 -0.1986 -1.2787 -0.7390
 2237SOL     OW 7288   1.060   9.531   6.452 -0.0043 -0.0516  0.1366
 2237SOL    HW1 7289   1.131   9.568   6.505  1.6022 -0.2724 -1.7107
 2237SOL    HW2 7290   1.042   9.598   6.387 -0.7362 -0.4540 -0.0780
 2238SOL     OW 7291   5.897   7.260   4.473 -0.3767 -0.3331 -0.3247
 2238SOL    HW1 7292   5.943   7.237   4.554  1.7909 -0.3454 -1.5041
 2238SOL    HW2 7293   5.822   7.201   4.471 -1.5207  0.8412  2.5182
 2239SOL     OW 7294   3.318   9.235   7.661  0.2898 -0.4251 -1.1365
 2239SOL    HW1 7295   3.263   9.168   7.620  0.7241 -0.6638 -1.3344
 2239SOL    HW2 7296   3.361   9.190   7.734  1.5939 -0.7294 -2.0598
 2240SOL     OW 7297   3.334   7.559   7.643  0.1007  0.3827 -0.1698
 2240SOL    HW1 7298   3.326   7.477   7.692  3.1290  0.1457  0.1464
 2240SOL    HW2 7299   3.289   7.543   7.560  2.6224 -2.5578 -1.1347
 2241SOL     OW 7300   7.670   1.678   5.301  0.1841  0.2033 -0.6318
 2241SOL    HW1 7301   7.748   1.714   5.260  1.1711 -1.5289 -0.3574
 2241SOL    HW2 7302   7.663   1.589   5.267  0.0468 -0.7015  1.5769
 2242SOL     OW 7303   6.934   0.342   8.792  0.2917  0.3953 -0.4144
 2242SOL    HW1 7304   6.988   0.310   8.720  1.3417  0.9195  0.1257
 2242SOL    HW2 7305   6.948   0.279   8.862  1.9206  1.6406  0.4575
 2243SOL     OW 7306   2.506   1.726   3.450  0.3873  0.1929  0.7207
 2243SOL    HW1 7307   2.435   1.784   3.476  0.8628  0.2192  2.0180
 2243SOL    HW2 7308   2.557   1.778   3.387 -0.5352  0.2842  0.0187
 2244SOL     OW 7309   6.709   1.228   1.025 -0.2739 -0.3248  0.1444
 2244SOL    HW1 7310   6.664   1.202   0.944  0.3740 -0.2645 -0.2472
 2244SOL    HW2 7311   6.802   1.216   1.005 -0.1372 -1.2185  1.2061
 2245SOL     OW 7312   2.467   9.083   9.566  0.0088  0.0245  0.0305
 2245SOL    HW1 7313   2.383   9.120   9.594 -0.2007 -0.6891  0.3498
 2245SOL    HW2 7314   2.445   9.002   9.522  0.4454  0.4727 -1.0576
 2246SOL     OW 7315   0.654   4.535   7.717  0.5056  0.0511  0.0925
 2246SOL    HW1 7316   0.625   4.461   7.664  2.8409 -1.1753  0.3974
 2246SOL    HW2 7317   0.661   4.500   7.806  0.8528  0.8606  0.3981
 2247SOL     OW 7318   8.876   5.937   0.253  0.2207  0.2865 -0.1677
 2247SOL    HW1 7319   8.963   5.946   0.214 -0.0156 -0.8074 -1.0158
 2247SOL    HW2 7320   8.837   6.024   0.248  1.0822  0.6706 -0.2271
 2248SOL     OW 7321   8.022   3.378   9.529 -0.0597 -0.0814 -0.0987
 2248SOL    HW1 7322   7.977   3.320   9.467 -0.0239 -1.0507  0.7429
 2248SOL    HW2 7323   7.954   3.406   9.590  0.0980 -0.0041  0.0436
 2249SOL     OW 7324   4.701   1.880   3.023  0.6679  0.1819  0.3372
 2249SOL    HW1 7325   4.654   1.841   3.097 -1.0670 -1.6531 -1.5708
 2249SOL    HW2 7326   4.792   1.852   3.035  0.1423 -1.3628  1.0275
 2250SOL     OW 7327   0.571   3.536   9.421 -0.0619  0.6780 -0.2256
 2250SOL    HW1 7328   0.547   3.472   9.355  2.4335 -0.9516  0.3207
 2250SOL    HW2 7329   0.573   3.487   9.503  2.8216  1.1193  0.0783
 2251SOL     OW 7330   1.551   2.810   7.413  0.6578  0.6197 -0.6066
 2251SOL    HW1 7331   1.528   2.821   7.505 -0.2547  0.7448 -0.8371
 2251SOL    HW2 7332   1.646   2.821   7.410  0.5957  1.4281  0.1951
 2252SOL     OW 7333   7.101   7.156   9.948 -0.2689 -0.1677 -0.1626
 2252SOL    HW1 7334   7.172   7.214   9.922  0.2011  0.1394  1.6317
 2252SOL    HW2 7335   7.139   7.101  10.017 -1.5481 -0.5141  0.3042
 2253SOL     OW 7336   8.835   9.310   3.946  0.3471  0.0617 -0.0524
 2253SOL    HW1 7337   8.858   9.231   3.996 -1.9433 -0.6858 -0.0451
 2253SOL    HW2 7338   8.780   9.278   3.875 -0.8429  1.6727  0.0900
 2254SOL     OW 7339   1.028   6.681   0.628 -0.4631 -0.0092 -0.3108
 2254SOL    HW1 7340   1.054   6.664   0.719 -3.6503  0.6704  0.8406
 2254SOL    HW2 7341   0.952   6.624   0.614 -0.7794  0.8025 -2.1390
 2255SOL     OW 7342   3.784   8.581   6.280  0.3722  0.3787  0.4437
 2255SOL    HW1 7343   3.742   8.498   6.303  0.0229  1.0311  2.3130
 2255SOL    HW2 7344   3.832   8.606   6.359 -0.5539  2.5683  0.3680
 2256SOL     OW 7345   1.414   9.292   3.886 -0.8681  0.3508 -0.2999
 2256SOL    HW1 7346   1.445   9.380   3.907  1.5594 -0.3099 -0.8363
 2256SOL    HW2 7347   1.403   9.249   3.971 -1.2363  0.8833 -0.0717
 2257SOL     OW 7348   6.759   0.315   5.030 -0.2394 -0.0913 -0.0345
 2257SOL    HW1 7349   6.836   0.344   5.079  0.0719 -0.4284 -0.3223
 2257SOL    HW2 7350   6.736   0.231   5.069 -1.5227  0.7889  1.2236
 2258SOL     OW 7351   3.264   6.368   6.390  0.0274 -0.3922  0.3219
 2258SOL    HW1 7352   3.224   6.455   6.387 -0.2643 -0.5409 -0.3397
 2258SOL    HW2 7353   3.323   6.371   6.465 -0.1883  0.2854  0.4705
 2259SOL     OW 7354   2.671   1.816   6.502  0.3035  0.1284  0.2760
 2259SOL    HW1 7355   2.695   1.724   6.511  0.4068  0.2818  2.0214
 2259SOL    HW2 7356   2.750   1.858   6.468  0.5754 -0.2795  0.3941
 2260SOL     OW 7357   6.809   0.700   6.575  0.2955  0.0901  0.3969
 2260SOL    HW1 7358   6.722   0.665   6.553  0.7762  0.3108 -2.1585
 2260SOL    HW2 7359   6.865   0.623   6.582  0.4953  0.0765 -1.0650
 2261SOL     OW 7360   5.836   6.576   5.795 -0.3353 -0.3289 -0.0752
 2261SOL    HW1 7361   5.753   6.615   5.824 -0.1756 -0.4099  0.5045
 2261SOL    HW2 7362   5.816   6.540   5.708 -1.3476 -1.6763  0.6694
 2262SOL     OW 7363   5.419   0.888   1.990 -0.5464 -0.3199 -0.2676
 2262SOL    HW1 7364   5.420   0.820   2.058 -0.6209 -0.2151 -0.1603
 2262SOL    HW2 7365   5.509   0.921   1.988 -0.9639  1.0640  1.1977
 2263SOL     OW 7366   5.484   7.444   4.642 -0.1212 -0.5259  0.5847
 2263SOL    HW1 7367   5.516   7.519   4.692 -2.3447  1.1581 -0.3520
 2263SOL    HW2 7368   5.453   7.383   4.709 -0.5719  0.4991  1.3423
 2264SOL     OW 7369   7.746   3.994   7.026 -0.2421  0.1996 -0.6172
 2264SOL    HW1 7370   7.675   3.972   7.087 -0.6271  1.1222 -0.7137
 2264SOL    HW2 7371   7.704   4.044   6.957  0.5963  1.3621 -0.3240
 2265SOL     OW 7372   1.317   0.775   8.279 -0.4770 -0.0520  0.5665
 2265SOL    HW1 7373   1.401   0.818   8.262 -0.1873 -1.3963 -1.9475
 2265SOL    HW2 7374   1.293   0.803   8.367  1.6874  1.8535  0.6495
 2266SOL     OW 7375   2.919   4.839   0.083  0.1912 -0.3411 -0.0059
 2266SOL    HW1 7376   2.940   4.886   0.164  0.8920 -1.4586  0.4874
 2266SOL    HW2 7377   2.990   4.776   0.073 -1.3128 -2.1186  0.0093
 2267SOL     OW 7378   9.701   4.600   3.610 -0.0453 -0.4500  0.0755
 2267SOL    HW1 7379   9.750   4.546   3.547 -0.6486 -0.4351 -0.4152
 2267SOL    HW2 7380   9.707   4.689   3.574 -0.7996 -0.5131 -0.2371
 2268SOL     OW 7381   9.677   4.468   5.007  0.6418 -0.2349  0.5037
 2268SOL    HW1 7382   9.623   4.547   5.009  1.7586  0.7766 -2.9822
 2268SOL    HW2 7383   9.615   4.396   5.023 -1.6644  0.9301 -2.3441
 2269SOL     OW 7384   8.177   4.307   4.076 -0.7025 -0.0923  0.3584
 2269SOL    HW1 7385   8.205   4.335   3.989  0.6817  1.3143  1.1926
 2269SOL    HW2 7386   8.240   4.348   4.136 -2.0137 -0.4495  2.0745
 2270SOL     OW 7387   0.940   9.417   9.248 -0.6631  0.1695 -0.3843
 2270SOL    HW1 7388   0.927   9.393   9.156  0.8675 -1.0830 -0.3234
 2270SOL    HW2 7389   0.863   9.469   9.271  0.1850  2.9646 -3.1665
 2271SOL     OW 7390   0.935   6.932   9.524  0.4165  0.9121  0.6609
 2271SOL    HW1 7391   0.979   6.892   9.598  1.4947  0.0597 -0.3930
 2271SOL    HW2 7392   0.859   6.877   9.507  1.5255 -0.3825 -0.3632
 2272SOL     OW 7393   2.447   0.206   5.631 -0.1999  0.0016  0.3184
 2272SOL    HW1 7394   2.441   0.134   5.693  1.7790 -0.9106 -0.4502
 2272SOL    HW2 7395   2.540   0.228   5.630 -0.4471  1.1130 -1.0980
 2273SOL     OW 7396   9.744   7.673   7.872 -0.1726 -0.3667  0.2231
 2273SOL    HW1 7397   9.659   7.703   7.904  1.1083  3.8052  0.2163
 2273SOL    HW2 7398   9.808   7.717   7.927  2.0434 -1.1675 -1.5450
 2274SOL     OW 7399   2.772   4.853   0.538  0.0170  0.6548  0.3393
 2274SOL    HW1 7400   2.686   4.871   0.500  0.3350  0.3378 -0.5533
 2274SOL    HW2 7401   2.765   4.884   0.629 -2.0150 -2.0561  1.2362
 2275SOL     OW 7402   7.372   4.109   4.483 -0.3098 -0.6169 -0.2391
 2275SOL    HW1 7403   7.460   4.145   4.491  0.8153 -2.8999 -1.2977
 2275SOL    HW2 7404   7.334   4.154   4.407  0.5335 -0.6786 -0.7086
 2276SOL     OW 7405   2.320   3.565   2.363 -0.9441  0.2258 -0.4261
 2276SOL    HW1 7406   2.255   3.513   2.316 -1.4741  1.1345 -0.7405
 2276SOL    HW2 7407   2.306   3.544   2.455 -1.5518  0.2563 -0.5072
 2277SOL     OW 7408   3.694   1.954   6.311 -0.2533 -0.0850 -0.3464
 2277SOL    HW1 7409   3.622   1.906   6.353 -1.6317  1.2186 -1.1473
 2277SOL    HW2 7410   3.694   1.923   6.221  0.8333 -0.7612 -0.1353
 2278SOL     OW 7411   9.419   7.645   4.871 -0.1824 -0.2725  0.7058
 2278SOL    HW1 7412   9.514   7.641   4.870 -0.1645 -0.4772  1.8087
 2278SOL    HW2 7413   9.398   7.717   4.930 -0.7297  1.7017 -1.7296
 2279SOL     OW 7414   4.049   8.900   4.100  0.4189 -0.4340 -0.4715
 2279SOL    HW1 7415   4.036   8.805   4.103  1.1310 -0.5476 -0.8322
 2279SOL    HW2 7416   4.027   8.925   4.010 -0.5886 -0.1256 -0.1489
 2280SOL     OW 7417   3.369   2.693   7.334  0.3469 -0.2688  0.2142
 2280SOL    HW1 7418   3.298   2.646   7.378  0.1670 -0.4220 -0.2342
 2280SOL    HW2 7419   3.398   2.634   7.265  0.2866  0.1785 -0.1986
 2281SOL     OW 7420   1.139   7.835   6.478  0.4116  0.5213 -0.5206
 2281SOL    HW1 7421   1.217   7.780   6.474  0.7634  0.4048  3.7094
 2281SOL    HW2 7422   1.066   7.774   6.463  0.9633 -0.1732 -0.4208
 2282SOL     OW 7423   4.403   1.590   5.046  1.1250  0.2080  0.0316
 2282SOL    HW1 7424   4.395   1.495   5.056  1.5202  0.1854  0.1170
 2282SOL    HW2 7425   4.375   1.625   5.131  2.8906  0.0808  0.7133
 2283SOL     OW 7426   3.848   9.644   4.730 -0.2675 -0.0530 -0.1138
 2283SOL    HW1 7427   3.795   9.564   4.729  0.6189 -0.7641 -3.4200
 2283SOL    HW2 7428   3.789   9.713   4.701 -0.6356  0.2118  1.2224
 2284SOL     OW 7429   1.040   2.841   5.939 -0.2611  0.3592 -0.3812
 2284SOL    HW1 7430   1.076   2.754   5.955 -3.0223 -0.7853  0.0820
 2284SOL    HW2 7431   1.075   2.865   5.853  1.1685 -0.8243 -0.1788
 2285SOL     OW 7432   5.656   8.794   5.395  0.7559  0.6862  0.2295
 2285SOL    HW1 7433   5.724   8.854   5.365  0.8431  1.8269  2.4938
 2285SOL    HW2 7434   5.690   8.707   5.373  1.5512  1.3522 -1.3161
 2286SOL     OW 7435   5.453   7.117   9.203  0.5360  0.0720 -0.2820
 2286SOL    HW1 7436   5.446   7.027   9.173  0.1569 -0.2339  0.6960
 2286SOL    HW2 7437   5.370   7.133   9.249  0.0785  1.3071 -1.4529
 2287SOL     OW 7438   3.329   4.414   7.345  0.3697 -0.1378 -0.5350
 2287SOL    HW1 7439   3.322   4.505   7.318  0.9930 -0.5329 -2.1781
 2287SOL    HW2 7440   3.240   4.387   7.364  0.0757  0.5882 -0.8476
 2288SOL     OW 7441   2.468   5.685   1.460 -0.7557 -0.6507  0.4425
 2288SOL    HW1 7442   2.481   5.775   1.431  1.4936 -0.2844  2.2571
 2288SOL    HW2 7443   2.398   5.691   1.525 -0.6688 -0.2016  0.4976
 2289SOL     OW 7444   3.982   3.984   6.204  0.8398  0.3083  0.0270
 2289SOL    HW1 7445   3.958   3.894   6.228  2.2086 -0.5669 -1.7020
 2289SOL    HW2 7446   4.003   4.026   6.288 -0.8879 -0.6103  0.9906
 2290SOL     OW 7447   4.685   7.605   4.736  0.0278  0.0475 -0.4616
 2290SOL    HW1 7448   4.630   7.551   4.679 -0.5052  0.4469 -0.3412
 2290SOL    HW2 7449   4.772   7.566   4.730 -0.4732 -1.2347  0.1567
 2291SOL     OW 7450   8.473   2.888   9.346 -0.5159  0.1801  0.6556
 2291SOL    HW1 7451   8.452   2.941   9.269  0.8408  1.2083  0.9609
 2291SOL    HW2 7452   8.422   2.928   9.417 -2.3979 -1.2560  0.2031
 2292SOL     OW 7453   9.081   6.641   3.240  0.4356  0.3479 -0.0025
 2292SOL    HW1 7454   9.063   6.666   3.331  0.4387  2.7513 -0.5764
 2292SOL    HW2 7455   8.997   6.651   3.195  0.8550  1.1798 -0.6328
 2293SOL     OW 7456   3.723   9.669   1.604  0.1045  0.7328 -0.4326
 2293SOL    HW1 7457   3.692   9.578   1.597 -0.9378  0.9764  0.6107
 2293SOL    HW2 7458   3.806   9.670   1.556  1.2364 -1.3193  1.2768
 2294SOL     OW 7459   0.819   1.851   0.783 -0.3718 -0.1009 -0.3351
 2294SOL    HW1 7460   0.879   1.898   0.841 -1.1462  2.3898 -1.4282
 2294SOL    HW2 7461   0.747   1.912   0.768 -1.3467 -1.5663 -2.0364
 2295SOL     OW 7462   7.681   3.096   4.583  0.2237 -0.7577 -0.3710
 2295SOL    HW1 7463   7.762   3.147   4.591 -1.9040  2.9772 -0.3243
 2295SOL    HW2 7464   7.661   3.070   4.673 -0.7350  2.1426  0.3662
 2296SOL     OW 7465   8.678   2.732   6.886 -0.0110  0.2401  0.0692
 2296SOL    HW1 7466   8.675   2.686   6.802 -1.4224 -1.6571  1.0574
 2296SOL    HW2 7467   8.771   2.742   6.905  0.4641 -2.9519  0.0612
 2297SOL     OW 7468   1.267   2.709   2.934 -0.0352 -0.2849  0.0055
 2297SOL    HW1 7469   1.226   2.723   3.019 -0.0667  0.7216 -0.1639
 2297SOL    HW2 7470   1.324   2.633   2.947 -1.4851 -1.3561  0.4008
 2298SOL     OW 7471   7.364   9.379   6.950 -0.3165  0.2729  0.1704
 2298SOL    HW1 7472   7.392   9.298   6.993  0.6977  0.7384  0.4132
 2298SOL    HW2 7473   7.271   9.387   6.972  0.1379  0.4555  2.2436
 2299SOL     OW 7474   1.277   2.975   7.481 -0.4068  0.3425 -0.1761
 2299SOL    HW1 7475   1.324   2.957   7.400 -0.9964 -0.3609 -0.3792
 2299SOL    HW2 7476   1.285   3.069   7.494  2.3330  0.0640  0.6262
 2300SOL     OW 7477   4.463   5.430   3.297 -0.1813  0.6757 -0.6429
 2300SOL    HW1 7478   4.386   5.393   3.255  0.9080  0.8229 -2.8711
 2300SOL    HW2 7479   4.514   5.468   3.226  2.3542 -0.1135  0.6340
 2301SOL     OW 7480   6.823   2.652   1.365 -0.1776  0.0706 -0.3780
 2301SOL    HW1 7481   6.880   2.625   1.293 -0.6094 -2.5968  0.1612
 2301SOL    HW2 7482   6.881   2.698   1.426  0.6657  0.3660 -1.3671
 2302SOL     OW 7483   8.919   8.753   8.596 -0.0307 -0.5055 -0.2196
 2302SOL    HW1 7484   8.955   8.766   8.508  0.0666 -2.3110 -0.4742
 2302SOL    HW2 7485   8.959   8.823   8.648  0.6971 -0.0154 -1.3776
 2303SOL     OW 7486   9.847   3.844   0.973  0.2061  0.2981 -0.0171
 2303SOL    HW1 7487   9.835   3.931   1.011  0.5716 -0.8366  2.9349
 2303SOL    HW2 7488   9.927   3.810   1.013 -0.0614 -1.5156 -0.8901
 2304SOL     OW 7489   7.106   9.214   5.563 -0.0362 -0.5016 -0.4572
 2304SOL    HW1 7490   7.101   9.212   5.659 -0.2579 -0.8002 -0.4749
 2304SOL    HW2 7491   7.165   9.288   5.544  0.8237 -1.0587 -0.0558
 2305SOL     OW 7492   9.407   1.194   9.230 -0.1110 -0.2559 -0.2213
 2305SOL    HW1 7493   9.465   1.262   9.265 -2.6565  1.8707  0.1460
 2305SOL    HW2 7494   9.402   1.129   9.300 -0.4252  0.9993  0.9814
 2306SOL     OW 7495   5.205   2.969   0.404  0.2640  0.0737  0.0251
 2306SOL    HW1 7496   5.267   3.014   0.346  0.8361  0.0786  0.6255
 2306SOL    HW2 7497   5.169   3.038   0.459  2.8946 -0.3653  2.5870
 2307SOL     OW 7498   7.825   9.725   4.826 -0.0552  0.1421 -0.3225
 2307SOL    HW1 7499   7.880   9.651   4.801 -0.3039 -0.0283 -0.3662
 2307SOL    HW2 7500   7.881   9.780   4.881  0.0999 -0.1237 -0.2171
 2308SOL     OW 7501   4.756   2.816   1.129 -0.4564  0.9728 -0.3613
 2308SOL    HW1 7502   4.776   2.722   1.135  1.3073  1.3697  0.6962
 2308SOL    HW2 7503   4.732   2.842   1.218 -0.5474  1.5967 -0.5623
 2309SOL     OW 7504   3.562   4.413   5.312  0.2989  0.6903  0.3210
 2309SOL    HW1 7505   3.492   4.406   5.247 -0.2257  2.5014  0.6263
 2309SOL    HW2 7506   3.517   4.418   5.396  0.7359  2.3627  0.4885
 2310SOL     OW 7507   2.318   5.004   0.280 -0.1588 -0.3026  0.4865
 2310SOL    HW1 7508   2.311   5.094   0.250 -2.6523 -0.6523 -0.2186
 2310SOL    HW2 7509   2.348   4.955   0.204  1.5684 -0.0713  0.9733
 2311SOL     OW 7510   0.519   0.987   4.551  0.1023  0.0711  0.7482
 2311SOL    HW1 7511   0.468   1.044   4.493  0.4263 -0.7003 -0.3213
 2311SOL    HW2 7512   0.595   1.039   4.575 -0.5802  0.8018  1.3978
 2312SOL     OW 7513   6.214   8.948   6.772  0.0193  0.2980 -0.2541
 2312SOL    HW1 7514   6.183   8.871   6.819 -1.9138  0.3776 -1.3004
 2312SOL    HW2 7515   6.309   8.945   6.780 -0.1075 -1.4007  0.9402
 2313SOL     OW 7516   4.575   5.422   9.840  0.3991 -0.2511 -0.1523
 2313SOL    HW1 7517   4.578   5.426   9.936  0.3865  0.1196 -0.1659
 2313SOL    HW2 7518   4.667   5.429   9.813  0.3897 -0.1930 -0.1707
 2314SOL     OW 7519   5.276   3.943   5.046 -0.3037 -0.1084  0.0972
 2314SOL    HW1 7520   5.315   3.962   4.960 -1.1377  2.9752  0.2568
 2314SOL    HW2 7521   5.348   3.955   5.108 -0.6185  2.2829  0.1143
 2315SOL     OW 7522   9.475   2.099   6.746 -0.1731 -0.1274 -0.3475
 2315SOL    HW1 7523   9.499   2.191   6.744  2.0506 -0.6778 -1.1273
 2315SOL    HW2 7524   9.445   2.080   6.657  1.4688 -0.6397 -0.8182
 2316SOL     OW 7525   3.561   6.718   3.780  0.5829 -0.5729 -0.3893
 2316SOL    HW1 7526   3.627   6.651   3.763 -0.0203 -0.9769 -1.2170
 2316SOL    HW2 7527   3.480   6.669   3.793  0.6432 -0.1556  1.8321
 2317SOL     OW 7528   0.706   6.608   4.056  0.0692 -0.3746  0.3992
 2317SOL    HW1 7529   0.732   6.660   4.132  0.7833  0.7774 -0.5998
 2317SOL    HW2 7530   0.615   6.631   4.040  0.4270  0.7364 -0.1334
 2318SOL     OW 7531   3.011   5.900   1.011  0.2529 -0.1077 -0.0609
 2318SOL    HW1 7532   2.933   5.884   1.065  0.1506  0.0957 -0.1489
 2318SOL    HW2 7533   3.053   5.814   1.004 -0.5418 -0.4387 -0.9073
 2319SOL     OW 7534   8.384   2.537   9.899  0.3629 -0.3559 -0.1341
 2319SOL    HW1 7535   8.337   2.603   9.848  2.3371  1.2965  0.0341
 2319SOL    HW2 7536   8.374   2.456   9.849 -1.2774  0.2608 -0.8891
 2320SOL     OW 7537   4.644   9.611   2.566 -0.0552 -0.2463  0.3049
 2320SOL    HW1 7538   4.740   9.618   2.567  0.0186 -0.8616  2.1545
 2320SOL    HW2 7539   4.627   9.517   2.575 -0.8461 -0.1995 -0.6187
 2321SOL     OW 7540   7.082   8.974   6.136 -0.1455  0.3174  0.4729
 2321SOL    HW1 7541   7.032   8.915   6.192 -0.8308  0.7388  0.3181
 2321SOL    HW2 7542   7.028   9.052   6.129  0.4952  0.7509  0.2197
 2322SOL     OW 7543   0.930   3.420   3.116  0.2401  0.0621 -0.4023
 2322SOL    HW1 7544   0.933   3.490   3.182 -1.6585 -0.6125  0.4552
 2322SOL    HW2 7545   0.998   3.358   3.143  0.3778  0.4459  0.1448
 2323SOL     OW 7546   5.875   0.694   6.794 -0.1752 -0.3699 -0.3857
 2323SOL    HW1 7547   5.946   0.662   6.849  0.7682 -0.3966 -1.5922
 2323SOL    HW2 7548   5.809   0.625   6.798 -0.1524 -0.3460  0.7403
 2324SOL     OW 7549   1.764   2.721   4.940  0.2848 -0.7205  0.4072
 2324SOL    HW1 7550   1.754   2.681   5.026  1.9460 -1.9921  0.0866
 2324SOL    HW2 7551   1.855   2.751   4.939  0.3253 -0.8465 -0.9390
 2325SOL     OW 7552   4.010   4.186   7.856  0.1296 -0.0372 -0.6488
 2325SOL    HW1 7553   3.928   4.155   7.894  0.0943  1.2637  0.3987
 2325SOL    HW2 7554   4.073   4.118   7.877 -0.1682  0.0723  0.6780
 2326SOL     OW 7555   6.881   0.286   1.443 -0.2638 -0.5625 -0.2183
 2326SOL    HW1 7556   6.805   0.337   1.414  1.1641  1.7394 -0.2705
 2326SOL    HW2 7557   6.853   0.242   1.522 -1.4296  0.9484  0.2570
 2327SOL     OW 7558   1.017   1.681   5.817 -0.7586 -0.2684 -0.2241
 2327SOL    HW1 7559   0.933   1.727   5.811 -0.2945  0.4875 -1.3740
 2327SOL    HW2 7560   1.068   1.733   5.878 -1.1245 -0.7370  0.4878
 2328SOL     OW 7561   6.975   3.602   3.531 -0.5775 -0.2221 -0.0059
 2328SOL    HW1 7562   7.029   3.667   3.576 -1.8580  1.2975 -0.5616
 2328SOL    HW2 7563   6.893   3.600   3.580 -0.4239 -1.7515  0.2404
 2329SOL     OW 7564   1.767   1.355   7.977 -0.2583  0.0298  0.0557
 2329SOL    HW1 7565   1.733   1.443   7.994 -1.1831 -0.4299  0.6699
 2329SOL    HW2 7566   1.724   1.328   7.895  0.0948  0.1822 -0.1810
 2330SOL     OW 7567   5.150   1.688   5.728  0.1579  0.0298  0.0297
 2330SOL    HW1 7568   5.096   1.759   5.691  1.5697  1.1469  0.0261
 2330SOL    HW2 7569   5.086   1.621   5.754 -1.0973  0.5484 -1.5509
 2331SOL     OW 7570   5.460   8.552   5.550  0.4881 -0.3345  0.6449
 2331SOL    HW1 7571   5.495   8.623   5.497  0.0886 -0.5234  0.1248
 2331SOL    HW2 7572   5.366   8.552   5.532  0.5147 -1.1399  0.4617
 2332SOL     OW 7573   5.868   3.139   3.020  0.0083 -0.1911 -0.6667
 2332SOL    HW1 7574   5.933   3.077   3.053  0.5303  0.7785  0.1866
 2332SOL    HW2 7575   5.793   3.129   3.079  0.0363 -0.1301 -0.6201
 2333SOL     OW 7576   6.005   6.957   1.548 -0.2782 -0.8608 -0.1839
 2333SOL    HW1 7577   5.962   7.030   1.504 -1.7532 -0.5215  1.6592
 2333SOL    HW2 7578   6.073   6.998   1.602 -0.7195 -0.8645  0.3976
 2334SOL     OW 7579   3.989   6.356   4.693  0.5844  0.6619 -0.5205
 2334SOL    HW1 7580   3.947   6.440   4.712 -0.3487  0.0362  0.3131
 2334SOL    HW2 7581   3.990   6.310   4.777  1.3212 -0.0652 -0.9059
 2335SOL     OW 7582   0.918   9.607   7.964  0.5467 -0.0551  0.4158
 2335SOL    HW1 7583   0.965   9.679   8.004  0.0364  0.5699 -0.0895
 2335SOL    HW2 7584   0.875   9.562   8.036 -0.7593  1.3412  0.5329
 2336SOL     OW 7585   0.003   7.700   2.419  0.0195  0.1930 -0.2926
 2336SOL    HW1 7586   0.055   7.624   2.445 -0.2351 -0.6749 -2.1446
 2336SOL    HW2 7587   0.068   7.765   2.391  0.1855 -0.6484 -1.9771
 2337SOL     OW 7588   4.470   5.815   5.437 -0.6298 -0.5462 -0.2148
 2337SOL    HW1 7589   4.536   5.772   5.384  0.0720 -2.5579  2.0915
 2337SOL    HW2 7590   4.440   5.748   5.498 -2.4805  1.1902  0.9562
 2338SOL     OW 7591   3.840   8.246   3.376  0.0803 -0.0053  0.4541
 2338SOL    HW1 7592   3.884   8.313   3.323 -0.2084 -0.4126 -0.3250
 2338SOL    HW2 7593   3.754   8.237   3.336  0.2725 -1.1619  0.2531
 2339SOL     OW 7594   8.008   8.326   0.341 -0.0876 -0.3595 -0.3795
 2339SOL    HW1 7595   7.920   8.362   0.354 -0.7300 -1.7062 -0.7631
 2339SOL    HW2 7596   7.994   8.252   0.282  1.7406  1.3660 -3.1916
 2340SOL     OW 7597   1.751   4.233   7.256 -0.0160 -0.6852  0.3545
 2340SOL    HW1 7598   1.832   4.211   7.302 -0.0797  0.5611  1.0955
 2340SOL    HW2 7599   1.684   4.180   7.300  0.4056 -1.8985 -0.4146
 2341SOL     OW 7600   5.338   3.703   5.322  0.1306 -0.0998 -0.2699
 2341SOL    HW1 7601   5.334   3.611   5.294  0.1565 -0.3738  0.5857
 2341SOL    HW2 7602   5.249   3.723   5.350  0.2526 -0.0390  0.0765
 2342SOL     OW 7603   2.968   2.924   6.993  0.2433  0.2114  0.3643
 2342SOL    HW1 7604   2.926   2.838   7.002  0.0805 -0.0820 -2.3181
 2342SOL    HW2 7605   3.062   2.904   6.995  0.2329 -0.3546 -1.9663
 2343SOL     OW 7606   0.980   7.333   3.472 -0.0940 -0.0178 -0.5486
 2343SOL    HW1 7607   1.015   7.362   3.388  0.0424 -0.3818 -0.6197
 2343SOL    HW2 7608   1.057   7.316   3.526 -0.1804  0.1576 -0.3658
 2344SOL     OW 7609   3.176   4.116   0.154  0.2797  0.3079  0.2847
 2344SOL    HW1 7610   3.200   4.117   0.247 -0.0230 -0.0603  0.3684
 2344SOL    HW2 7611   3.119   4.040   0.145 -0.6243  0.9975  0.0374
 2345SOL     OW 7612   0.324   4.778   3.696  0.0537  0.4667 -0.4072
 2345SOL    HW1 7613   0.279   4.770   3.611 -0.1880 -0.2484 -0.2146
 2345SOL    HW2 7614   0.305   4.696   3.741  1.0979  0.3855 -0.0911
 2346SOL     OW 7615   9.049   3.701   7.390  0.4042 -0.2444 -0.3672
 2346SOL    HW1 7616   9.116   3.767   7.405  0.1207 -0.3828  1.9399
 2346SOL    HW2 7617   9.081   3.623   7.435 -1.5945 -0.0656  1.5710
 2347SOL     OW 7618   6.034   3.386   8.337  0.6234  0.3589 -0.0907
 2347SOL    HW1 7619   6.113   3.350   8.378  3.0977 -0.4321 -4.7452
 2347SOL    HW2 7620   6.060   3.473   8.308 -0.7090  0.6442 -0.4704
 2348SOL     OW 7621   5.500   4.310   0.951 -0.0086  0.6786  0.4553
 2348SOL    HW1 7622   5.486   4.227   0.906 -0.1290  2.0612 -2.2098
 2348SOL    HW2 7623   5.582   4.344   0.915  0.5474  1.3272  2.2082
 2349SOL     OW 7624   1.687   5.001   6.807 -0.7144  0.2276  0.8968
 2349SOL    HW1 7625   1.680   4.956   6.890  1.9653  0.4025  1.3152
 2349SOL    HW2 7626   1.749   5.073   6.823 -0.9526  0.9324 -0.9736
 2350SOL     OW 7627   9.563   0.260   3.609 -0.1346  0.1158  0.0813
 2350SOL    HW1 7628   9.515   0.272   3.527  0.9640  1.6824 -0.3850
 2350SOL    HW2 7629   9.533   0.176   3.643 -1.3526 -0.0927 -1.4205
 2351SOL     OW 7630   7.283   2.688   1.102 -0.1835  0.1749 -0.2345
 2351SOL    HW1 7631   7.321   2.674   1.189 -2.4313 -0.7418  0.7005
 2351SOL    HW2 7632   7.255   2.780   1.103 -1.5705 -0.2147  0.6769
 2352SOL     OW 7633   0.567   3.309   1.016  0.1773  0.2131  0.1488
 2352SOL    HW1 7634   0.643   3.315   1.074  0.6568  0.4842 -0.4993
 2352SOL    HW2 7635   0.505   3.373   1.051 -1.6441 -2.8616  3.3324
 2353SOL     OW 7636   8.342   1.582   6.144  0.3643 -0.2670 -0.0135
 2353SOL    HW1 7637   8.406   1.549   6.207 -0.3515  0.4659  1.1300
 2353SOL    HW2 7638   8.318   1.669   6.177 -1.0773 -0.4494 -0.5181
 2354SOL     OW 7639   7.812   3.544   0.980  0.0123  0.2101 -0.5428
 2354SOL    HW1 7640   7.723   3.579   0.985 -0.6731 -0.7494 -3.5019
 2354SOL    HW2 7641   7.868   3.621   0.969 -0.5098  0.7732  0.5869
 2355SOL     OW 7642   2.625   8.943   6.503  0.5925 -0.1671 -0.3752
 2355SOL    HW1 7643   2.537   8.904   6.502  0.4104  0.2322 -0.3219
 2355SOL    HW2 7644   2.685   8.869   6.505  0.2330 -0.4716  1.9738
 2356SOL     OW 7645   8.844   6.549   9.949 -0.2895  0.5440 -0.0403
 2356SOL    HW1 7646   8.901   6.615   9.909  0.5959  1.2047  2.1651
 2356SOL    HW2 7647   8.806   6.592  10.025 -0.9695 -0.9872  0.5315
 2357SOL     OW 7648   0.430   9.388   5.761  0.2924  1.2076 -0.0921
 2357SOL    HW1 7649   0.481   9.325   5.709 -1.4341 -0.4975  0.1922
 2357SOL    HW2 7650   0.493   9.423   5.824  1.3404 -0.1880 -0.3075
 2358SOL     OW 7651   1.390   1.123   0.804  0.5066  0.3858 -0.7140
 2358SOL    HW1 7652   1.417   1.056   0.868 -1.8322  0.0687  0.0187
 2358SOL    HW2 7653   1.439   1.201   0.830  0.5370 -0.0764  0.7236
 2359SOL     OW 7654   0.128   3.363   2.965 -0.0229 -0.4332 -0.2898
 2359SOL    HW1 7655   0.200   3.425   2.976 -1.0580  0.8707 -0.6668
 2359SOL    HW2 7656   0.171   3.280   2.943  1.3219  0.5168 -1.3626
 2360SOL     OW 7657   2.500   4.527   3.739  0.3566  0.6337  0.5318
 2360SOL    HW1 7658   2.530   4.443   3.775  1.8303  1.2474  0.7634
 2360SOL    HW2 7659   2.576   4.584   3.743  0.0950  1.2834 -1.8853
 2361SOL     OW 7660   5.982   6.653   9.024  0.3412  0.2849  0.1042
 2361SOL    HW1 7661   5.897   6.615   9.046 -0.4780  1.1012 -1.5483
 2361SOL    HW2 7662   6.009   6.698   9.104  0.0051 -1.3179  1.1671
 2362SOL     OW 7663   0.491   8.527   9.955 -0.3201 -0.2549 -0.4638
 2362SOL    HW1 7664   0.467   8.466   9.886 -1.8204  0.2311 -0.4149
 2362SOL    HW2 7665   0.524   8.604   9.909 -1.0949 -0.0238 -0.6409
 2363SOL     OW 7666   2.688   8.937   8.506 -0.1342  0.3749  0.0897
 2363SOL    HW1 7667   2.782   8.933   8.524 -0.0514  0.0153 -0.3977
 2363SOL    HW2 7668   2.651   8.866   8.558  0.1525 -0.9087 -1.3990
 2364SOL     OW 7669   5.290   9.304   0.454  0.2865  0.6443  0.4143
 2364SOL    HW1 7670   5.357   9.372   0.459  1.0404 -0.0760  0.4985
 2364SOL    HW2 7671   5.207   9.351   0.461  0.7165  1.7188 -1.1860
 2365SOL     OW 7672   3.243   8.094   3.822  0.0979  0.0219 -0.9294
 2365SOL    HW1 7673   3.152   8.070   3.840  0.3947 -0.2785  0.2926
 2365SOL    HW2 7674   3.255   8.178   3.867  1.0288 -1.0221  0.9143
 2366SOL     OW 7675   5.902   6.255   4.144 -0.1516  0.0014  0.2324
 2366SOL    HW1 7676   5.985   6.222   4.179 -0.8130 -0.8018  1.0861
 2366SOL    HW2 7677   5.928   6.308   4.068  1.2148  0.6188  1.0893
 2367SOL     OW 7678   7.712   6.267   8.743  0.4687  0.0878  0.3498
 2367SOL    HW1 7679   7.720   6.253   8.649  0.5769 -2.5007  0.6605
 2367SOL    HW2 7680   7.761   6.195   8.782  0.1816  0.9378  2.3942
 2368SOL     OW 7681   2.728   5.716   3.877 -0.0098  0.6865 -0.2596
 2368SOL    HW1 7682   2.672   5.690   3.804  1.7829  0.4142 -1.5975
 2368SOL    HW2 7683   2.695   5.666   3.952 -1.3283  0.2890 -1.0826
 2369SOL     OW 7684   7.093   6.373   0.053 -0.4142 -0.4343  0.3072
 2369SOL    HW1 7685   7.163   6.332   0.003 -1.4635 -4.0430  1.4820
 2369SOL    HW2 7686   7.014   6.356   0.001 -0.9548 -0.4299  1.1060
 2370SOL     OW 7687   2.998   5.265   1.459  0.1251 -0.0286  0.0701
 2370SOL    HW1 7688   2.927   5.225   1.408 -0.0387 -0.1712  0.4044
 2370SOL    HW2 7689   2.956   5.339   1.503  0.8302  1.6431 -1.9603
 2371SOL     OW 7690   8.357   3.825   7.000  0.0492 -0.9180 -0.7466
 2371SOL    HW1 7691   8.451   3.817   7.018  0.0982 -0.7953 -0.9462
 2371SOL    HW2 7692   8.333   3.908   7.042  0.0578 -0.8805 -0.8165
 2372SOL     OW 7693   5.511   8.246   3.910  0.6083 -1.1483  0.5219
 2372SOL    HW1 7694   5.559   8.324   3.882 -1.8337  1.4113  2.7839
 2372SOL    HW2 7695   5.566   8.206   3.977  1.1001 -0.2673  0.6547
 2373SOL     OW 7696   1.844   2.056   5.521 -0.3390 -0.1466 -0.2027
 2373SOL    HW1 7697   1.771   2.045   5.582 -0.6318  0.6378 -0.3994
 2373SOL    HW2 7698   1.808   2.108   5.449  0.6280  1.0056  0.1173
 2374SOL     OW 7699   1.161   8.267   8.855  0.3283  0.5126 -0.2607
 2374SOL    HW1 7700   1.198   8.257   8.942  1.3397  0.0302 -0.7316
 2374SOL    HW2 7701   1.224   8.321   8.807 -0.5849  1.4221 -0.4843
 2375SOL     OW 7702   7.376   9.920   8.636  0.0308  0.2406  0.3211
 2375SOL    HW1 7703   7.436   9.937   8.563  1.7446 -1.9849  1.0877
 2375SOL    HW2 7704   7.398   9.831   8.664 -2.7196 -0.1225  1.5828
 2376SOL     OW 7705   6.135   0.246   8.940 -0.0723 -0.1187  0.2761
 2376SOL    HW1 7706   6.205   0.202   8.988 -0.2395 -0.5999  0.0876
 2376SOL    HW2 7707   6.103   0.179   8.879  1.6421  1.1357 -2.1501
 2377SOL     OW 7708   0.778   2.366   5.341 -0.2935  0.6143 -0.4718
 2377SOL    HW1 7709   0.771   2.458   5.317 -0.8120  0.5841 -0.4564
 2377SOL    HW2 7710   0.757   2.318   5.261  2.5039  0.4731 -1.1990
 2378SOL     OW 7711   3.148   4.705   8.271  0.1253 -0.0858 -0.2102
 2378SOL    HW1 7712   3.088   4.685   8.343 -2.6999 -0.6414 -2.5137
 2378SOL    HW2 7713   3.119   4.789   8.238  0.9440 -0.1344 -1.1146
 2379SOL     OW 7714   4.159   3.500   0.116  0.4081 -0.4823 -0.0782
 2379SOL    HW1 7715   4.242   3.507   0.163  0.3412 -1.7738  0.2704
 2379SOL    HW2 7716   4.182   3.462   0.032  0.5699  2.1231 -1.3186
 2380SOL     OW 7717   6.227   7.109   5.067 -0.0908  0.4396 -0.2917
 2380SOL    HW1 7718   6.258   7.090   5.155 -0.9011  0.4573  0.0026
 2380SOL    HW2 7719   6.298   7.161   5.027  1.1472 -1.2058 -0.3416
 2381SOL     OW 7720  -0.008   5.077   0.730  0.3408 -0.3389 -0.4537
 2381SOL    HW1 7721  -0.011   5.119   0.644  0.2926 -0.2599 -0.4137
 2381SOL    HW2 7722   0.025   4.989   0.713  0.3006 -0.3337 -0.5570
 2382SOL     OW 7723   6.363   5.325   2.675  0.4612  0.4360 -0.3789
 2382SOL    HW1 7724   6.280   5.350   2.715 -0.6697 -1.0310 -1.6421
 2382SOL    HW2 7725   6.430   5.365   2.730 -1.0552  0.8908  1.2290
 2383SOL     OW 7726   0.324   3.066   5.297 -0.0416  0.1566 -0.0294
 2383SOL    HW1 7727   0.286   3.139   5.346  1.7070  1.9848 -1.2363
 2383SOL    HW2 7728   0.373   3.016   5.363 -1.8439 -0.4246  0.9393
 2384SOL     OW 7729   1.452   2.329   0.727  0.4687 -0.2272  0.4975
 2384SOL    HW1 7730   1.441   2.397   0.792 -0.1534  0.8926 -0.7295
 2384SOL    HW2 7731   1.406   2.362   0.650 -0.2654 -2.2567  0.0180
 2385SOL     OW 7732   4.823   1.276   6.348  0.1778  0.2370 -0.0329
 2385SOL    HW1 7733   4.738   1.314   6.326  0.0023 -0.6614 -0.9480
 2385SOL    HW2 7734   4.808   1.182   6.350  1.2743  0.0224 -0.8064
 2386SOL     OW 7735   5.813   7.316   2.971  0.3914 -0.5678 -0.0414
 2386SOL    HW1 7736   5.869   7.390   2.992  1.3941 -1.2709 -0.1382
 2386SOL    HW2 7737   5.833   7.251   3.039 -1.9272 -0.0595  1.2408
 2387SOL     OW 7738   3.341   0.668   7.411  0.3443  0.0632 -0.2196
 2387SOL    HW1 7739   3.265   0.723   7.429  0.6138  0.1114  0.7945
 2387SOL    HW2 7740   3.408   0.729   7.381  0.2371  0.1234 -0.3377
 2388SOL     OW 7741   8.455   9.116   9.303  0.1307  0.5674  0.5521
 2388SOL    HW1 7742   8.369   9.084   9.276  0.2687  1.1971 -0.7111
 2388SOL    HW2 7743   8.484   9.054   9.370 -0.3284 -0.9705 -0.6164
 2389SOL     OW 7744   2.176   0.148   1.007  0.0850  0.4276 -0.4157
 2389SOL    HW1 7745   2.140   0.060   0.996  1.7142 -0.3431  0.0454
 2389SOL    HW2 7746   2.184   0.182   0.918  0.2904 -0.2571 -0.6649
 2390SOL     OW 7747   4.597   4.229   2.240 -0.4058  0.2137 -0.1015
 2390SOL    HW1 7748   4.621   4.211   2.331  2.2677 -0.4683 -0.8784
 2390SOL    HW2 7749   4.570   4.321   2.241  1.7775  0.9243  1.0463
 2391SOL     OW 7750   8.646   5.187   9.920  0.5416 -0.1816 -0.1981
 2391SOL    HW1 7751   8.713   5.253   9.899  0.1160  1.1074  2.1357
 2391SOL    HW2 7752   8.590   5.185   9.843  1.4579  1.0571 -0.9397
 2392SOL     OW 7753   5.762   8.583   1.948  0.0034  0.7049 -0.1475
 2392SOL    HW1 7754   5.730   8.672   1.937 -2.5685  0.0778  1.3086
 2392SOL    HW2 7755   5.785   8.554   1.860  0.9852  2.7750 -0.6368
 2393SOL     OW 7756   4.342   7.883   3.557 -0.3704  0.5079  0.3192
 2393SOL    HW1 7757   4.410   7.851   3.499 -2.2528 -3.5953 -0.0336
 2393SOL    HW2 7758   4.375   7.864   3.645  0.0463  1.1102  0.2945
 2394SOL     OW 7759   3.280   4.897   5.279 -0.0217 -0.2086 -0.2672
 2394SOL    HW1 7760   3.252   4.908   5.370  1.9593  0.0064  0.3683
 2394SOL    HW2 7761   3.210   4.937   5.227 -0.2856  1.4470  1.2663
 2395SOL     OW 7762   3.139   6.606   5.552 -0.6983  0.0614  0.6654
 2395SOL    HW1 7763   3.127   6.520   5.512  2.8465 -0.5369  0.5840
 2395SOL    HW2 7764   3.160   6.587   5.644  0.8777  0.7400  0.4720
 2396SOL     OW 7765   4.989   9.391   9.840  0.1879  0.9920  0.2641
 2396SOL    HW1 7766   4.895   9.380   9.851  0.1780  2.3846  2.3157
 2396SOL    HW2 7767   5.008   9.475   9.882  2.5442  0.0400  1.3242
 2397SOL     OW 7768   3.059   4.678   0.529 -0.1518  0.3675  0.6333
 2397SOL    HW1 7769   3.003   4.600   0.529 -1.0810  0.9978  1.4235
 2397SOL    HW2 7770   2.998   4.750   0.542  0.7521  1.1882  0.4215
 2398SOL     OW 7771   3.298   4.549   4.192  0.3330 -0.1958  0.4239
 2398SOL    HW1 7772   3.209   4.531   4.163  0.6987 -0.5363 -0.5201
 2398SOL    HW2 7773   3.302   4.516   4.282 -0.7179  0.5669  0.7690
 2399SOL     OW 7774   4.234   2.411   0.291 -0.1888 -0.2521 -0.2434
 2399SOL    HW1 7775   4.146   2.384   0.265 -0.2124  0.1044 -0.5460
 2399SOL    HW2 7776   4.279   2.428   0.208 -0.6954  2.2669 -0.0884
 2400SOL     OW 7777   1.660   4.017   3.552  0.4254 -0.3610  0.3853
 2400SOL    HW1 7778   1.691   3.982   3.636  0.7119  1.9259  1.3007
 2400SOL    HW2 7779   1.605   4.092   3.576  0.1105  0.0434 -1.4571
 2401SOL     OW 7780   5.308   8.588   3.985  0.4174 -0.3139  0.3314
 2401SOL    HW1 7781   5.333   8.661   3.929 -0.6958  1.0678  1.5716
 2401SOL    HW2 7782   5.216   8.571   3.965  1.0133 -2.4524 -1.0271
 2402SOL     OW 7783   5.071   3.020   9.145 -0.9111 -0.2097 -0.3687
 2402SOL    HW1 7784   5.122   2.941   9.127 -0.8142 -0.3062  0.3106
 2402SOL    HW2 7785   5.136   3.088   9.158 -1.0097  0.2454 -2.0482
 2403SOL     OW 7786   2.942   4.128   4.701 -0.0278 -0.0415  0.1899
 2403SOL    HW1 7787   2.890   4.086   4.769 -0.2079 -0.7086 -0.3491
 2403SOL    HW2 7788   2.885   4.128   4.623  0.5198 -0.1630 -0.2190
 2404SOL     OW 7789   8.921   1.525   2.489 -0.7761  0.5361 -0.2840
 2404SOL    HW1 7790   8.906   1.561   2.402  0.9228  1.6939 -0.1432
 2404SOL    HW2 7791   8.834   1.510   2.524 -1.4953  0.6780 -1.9209
 2405SOL     OW 7792   8.464   4.180   9.077  0.1255 -0.5234  0.1013
 2405SOL    HW1 7793   8.551   4.177   9.118  0.1370 -1.3102  0.0391
 2405SOL    HW2 7794   8.403   4.168   9.150  0.0090  1.1493  0.3036
 2406SOL     OW 7795   3.542   6.762   7.787  0.2945  0.1738  0.0865
 2406SOL    HW1 7796   3.591   6.680   7.779  2.6803  1.6630 -2.1951
 2406SOL    HW2 7797   3.550   6.785   7.880 -0.6132 -2.1855  0.8288
 2407SOL     OW 7798   5.072   6.238   4.851  0.3500  0.1436  0.2291
 2407SOL    HW1 7799   5.115   6.229   4.766 -0.8558 -1.1710 -0.2893
 2407SOL    HW2 7800   5.123   6.182   4.910  0.8406  0.5949  0.2413
 2408SOL     OW 7801   7.857   2.199   8.898  0.5171 -0.0437  0.4253
 2408SOL    HW1 7802   7.768   2.232   8.886  0.4147  0.0986  1.4911
 2408SOL    HW2 7803   7.850   2.104   8.888  0.3561  0.0166 -0.0597
 2409SOL     OW 7804   1.500   1.710   1.165  0.1835  0.1712  0.5865
 2409SOL    HW1 7805   1.426   1.662   1.129  0.6055  0.7988 -1.1852
 2409SOL    HW2 7806   1.575   1.652   1.151  0.8232  1.5047 -2.2267
 2410SOL     OW 7807   9.176   5.665   5.747  0.3866 -0.2881 -0.2516
 2410SOL    HW1 7808   9.252   5.609   5.764  0.5200 -0.6915 -2.0618
 2410SOL    HW2 7809   9.207   5.754   5.763  0.5070 -0.5857  1.4413
 2411SOL     OW 7810   1.875   0.497   4.144 -0.3813  0.7953 -0.2007
 2411SOL    HW1 7811   1.841   0.519   4.057 -0.4984  0.3873 -0.2599
 2411SOL    HW2 7812   1.971   0.502   4.134 -0.2811 -1.3975 -0.9601
 2412SOL     OW 7813   3.573   8.269   4.304  0.4613 -0.1912 -0.2373
 2412SOL    HW1 7814   3.574   8.230   4.217 -2.2876 -0.1634 -0.3596
 2412SOL    HW2 7815   3.481   8.284   4.323  0.8835 -0.9977  3.0581
 2413SOL     OW 7816   2.976   2.876   7.524  0.2432 -0.1411 -0.2737
 2413SOL    HW1 7817   2.962   2.961   7.482 -0.6871 -0.5753 -0.8920
 2413SOL    HW2 7818   3.071   2.863   7.522  0.3251  0.5141 -0.9217
 2414SOL     OW 7819   9.963   6.644   9.561  0.8446 -0.5221 -0.2200
 2414SOL    HW1 7820   9.877   6.679   9.583  0.7278 -1.5691  1.1904
 2414SOL    HW2 7821  10.000   6.707   9.499 -1.5349 -0.8215 -2.1168
 2415SOL     OW 7822   9.093   8.872   3.953 -0.6119  0.1986  0.5112
 2415SOL    HW1 7823   9.008   8.830   3.967  0.0702 -0.8925  1.6023
 2415SOL    HW2 7824   9.109   8.921   4.035 -0.7851  1.5262 -0.2172
 2416SOL     OW 7825   7.687   0.554   4.594  0.2922  0.0195 -0.3616
 2416SOL    HW1 7826   7.711   0.646   4.600 -1.1695  0.5979 -2.3179
 2416SOL    HW2 7827   7.611   0.545   4.652  1.0212 -0.2089  0.5772
 2417SOL     OW 7828   3.791   2.590   6.266 -0.0781  0.1568  0.1737
 2417SOL    HW1 7829   3.770   2.510   6.218 -0.5200  1.2767 -1.6053
 2417SOL    HW2 7830   3.882   2.579   6.292  0.5427 -0.0782 -1.9217
 2418SOL     OW 7831   3.211   7.887   9.343 -0.0495 -0.1483  0.2459
 2418SOL    HW1 7832   3.176   7.976   9.352  0.4658  0.0970 -0.0922
 2418SOL    HW2 7833   3.159   7.834   9.403  0.3159  0.5843  1.2389
 2419SOL     OW 7834   8.681   8.692   6.722 -0.1666 -0.1351 -0.3007
 2419SOL    HW1 7835   8.760   8.696   6.668 -0.4407  0.4721 -0.6642
 2419SOL    HW2 7836   8.712   8.715   6.810  0.0831 -0.0006 -0.4198
 2420SOL     OW 7837   9.401   4.778   8.420 -0.5342  0.2575  0.6508
 2420SOL    HW1 7838   9.373   4.847   8.480 -1.4376 -3.0979  4.4729
 2420SOL    HW2 7839   9.319   4.744   8.383 -0.3082 -0.3211  0.6773
 2421SOL     OW 7840   0.267   4.733   1.870  0.1180 -0.2082  0.3290
 2421SOL    HW1 7841   0.350   4.707   1.830 -0.2527  1.0658 -1.3812
 2421SOL    HW2 7842   0.292   4.792   1.941  0.6766  0.5479 -0.4729
 2422SOL     OW 7843   0.517   0.556   9.758  0.2042  0.0371  0.0093
 2422SOL    HW1 7844   0.522   0.619   9.686  0.4810 -0.3522 -0.3175
 2422SOL    HW2 7845   0.607   0.546   9.788 -0.0080  0.7719  0.9213
 2423SOL     OW 7846   9.309   7.302   4.286 -0.1118  0.1293  0.7183
 2423SOL    HW1 7847   9.268   7.383   4.317 -1.5778 -1.0073  1.8602
 2423SOL    HW2 7848   9.323   7.250   4.365  1.0260 -0.6551  0.0305
 2424SOL     OW 7849   6.667   3.378   9.298  0.4152  0.5087 -0.2827
 2424SOL    HW1 7850   6.712   3.294   9.295  1.3267  0.7926  2.4374
 2424SOL    HW2 7851   6.726   3.438   9.251  0.6784 -0.0202 -0.6321
 2425SOL     OW 7852   7.452   5.883   8.923 -0.1791 -0.7510 -0.1930
 2425SOL    HW1 7853   7.476   5.909   9.011 -1.9786  0.3828  0.0114
 2425SOL    HW2 7854   7.509   5.935   8.866 -0.3551 -0.0117  0.2943
 2426SOL     OW 7855   8.141   6.387   9.089  0.3858 -0.3327 -0.8739
 2426SOL    HW1 7856   8.184   6.330   9.026 -0.8245 -4.0769  1.3604
 2426SOL    HW2 7857   8.210   6.412   9.150  0.8105  0.1802 -1.5463
 2427SOL     OW 7858   6.881   1.614   0.268  0.4389 -0.0015 -0.1846
 2427SOL    HW1 7859   6.950   1.586   0.209  0.5098 -1.3992  0.5230
 2427SOL    HW2 7860   6.907   1.702   0.297  2.5128 -0.9392  0.9518
 2428SOL     OW 7861   0.790   1.301   3.913 -0.6494 -0.8104 -0.2336
 2428SOL    HW1 7862   0.811   1.209   3.926 -0.9466 -0.6127  1.8990
 2428SOL    HW2 7863   0.716   1.318   3.971 -1.3976  0.5089 -1.4814
 2429SOL     OW 7864   6.757   8.108   9.049  0.2911 -0.3633 -0.1332
 2429SOL    HW1 7865   6.825   8.041   9.045 -1.0761 -1.7874 -0.2789
 2429SOL    HW2 7866   6.805   8.191   9.043  1.9256 -1.3375 -1.2506
 2430SOL     OW 7867   8.300   5.437   6.904 -0.1085 -0.6632 -0.4210
 2430SOL    HW1 7868   8.370   5.373   6.918 -1.5670 -2.3012 -0.2730
 2430SOL    HW2 7869   8.222   5.394   6.937 -1.1253  1.3261 -0.1140
 2431SOL     OW 7870   6.940   1.906   3.804 -0.0495  0.4790 -0.4095
 2431SOL    HW1 7871   7.005   1.903   3.875  0.6758  1.6676 -0.9924
 2431SOL    HW2 7872   6.917   1.999   3.797 -0.1159  0.3790 -1.7275
 2432SOL     OW 7873   6.356   7.768   7.772 -0.3136 -0.6417  0.2682
 2432SOL    HW1 7874   6.433   7.769   7.830 -0.4928  1.5400  0.5687
 2432SOL    HW2 7875   6.291   7.822   7.817 -1.5864 -1.4169 -0.5699
 2433SOL     OW 7876   0.196   5.117   6.849  0.8384 -0.4507 -0.2813
 2433SOL    HW1 7877   0.146   5.116   6.931 -0.3699  0.0998 -0.9936
 2433SOL    HW2 7878   0.214   5.024   6.832  0.4039 -0.6299  0.1884
 2434SOL     OW 7879   6.311   5.634   3.327  0.4097  0.1855 -0.0702
 2434SOL    HW1 7880   6.322   5.634   3.422  1.0170 -2.7194 -0.0354
 2434SOL    HW2 7881   6.217   5.621   3.313 -0.0683  2.9409  0.0052
 2435SOL     OW 7882   6.667   1.820   9.604 -0.7337 -0.0414 -0.2728
 2435SOL    HW1 7883   6.664   1.911   9.575  0.0902  0.1706  0.2565
 2435SOL    HW2 7884   6.576   1.794   9.612 -0.9787  0.1537 -2.1839
 2436SOL     OW 7885   2.431   5.649   8.635 -0.5662  0.6385  0.4764
 2436SOL    HW1 7886   2.480   5.585   8.687 -2.3113  0.5751  2.1538
 2436SOL    HW2 7887   2.354   5.602   8.606 -1.1710  1.5850  0.5100
 2437SOL     OW 7888   4.885   8.751   5.978 -0.0721  0.2809  0.2281
 2437SOL    HW1 7889   4.900   8.845   5.985 -0.1187  0.2134  1.5880
 2437SOL    HW2 7890   4.791   8.743   5.964 -0.4358  0.4206  2.2076
 2438SOL     OW 7891   3.417   8.020   0.940 -0.0606  0.4270  0.2227
 2438SOL    HW1 7892   3.387   8.059   1.022 -1.1223  3.2157 -1.3467
 2438SOL    HW2 7893   3.348   8.042   0.877  0.7898 -1.4907 -1.4601
 2439SOL     OW 7894   9.440   0.798   4.142 -0.5990 -0.3523  0.1106
 2439SOL    HW1 7895   9.416   0.870   4.083 -0.4164  1.6405  2.3219
 2439SOL    HW2 7896   9.535   0.789   4.131 -0.1590  1.6534  1.7154
 2440SOL     OW 7897   5.840   6.780   8.466  0.3185 -0.2313  0.3495
 2440SOL    HW1 7898   5.837   6.736   8.550  0.2308  0.4962  0.7399
 2440SOL    HW2 7899   5.826   6.873   8.487 -0.8137 -0.1674 -0.5644
 2441SOL     OW 7900   4.288   9.919   3.543 -0.1092 -0.6013 -0.6911
 2441SOL    HW1 7901   4.353   9.943   3.609  0.0779 -0.6190 -0.8673
 2441SOL    HW2 7902   4.217   9.982   3.555 -0.7862 -1.5504  0.5567
 2442SOL     OW 7903   0.911   5.785   1.919 -0.1880 -0.4108 -0.4442
 2442SOL    HW1 7904   0.973   5.719   1.951  0.0941 -0.1381 -0.4236
 2442SOL    HW2 7905   0.953   5.869   1.939  0.4227 -0.2210 -2.3275
 2443SOL     OW 7906   9.058   0.172   1.245  0.0828  0.0141  0.0773
 2443SOL    HW1 7907   8.993   0.243   1.239  1.6797  1.4605 -1.2994
 2443SOL    HW2 7908   9.128   0.208   1.299 -0.1480 -1.4686  1.4263
 2444SOL     OW 7909   9.360   2.697   4.728 -0.2925  0.2344 -0.4614
 2444SOL    HW1 7910   9.365   2.736   4.640  1.3746 -1.5988 -1.2821
 2444SOL    HW2 7911   9.452   2.692   4.756 -0.5449 -1.8204  0.1312
 2445SOL     OW 7912   9.425   4.260   7.617 -0.0103  0.4300  0.8177
 2445SOL    HW1 7913   9.378   4.261   7.701  0.3538 -1.7323  1.1140
 2445SOL    HW2 7914   9.517   4.264   7.641  0.0629  0.8962  0.4571
 2446SOL     OW 7915   1.148   9.369   8.661  0.1306 -0.1374 -0.1319
 2446SOL    HW1 7916   1.167   9.345   8.571 -2.1221 -2.7045 -0.0308
 2446SOL    HW2 7917   1.166   9.463   8.665 -2.3461  0.7044 -4.0445
 2447SOL     OW 7918   6.499   1.436   2.509 -0.4088  0.0055  0.3274
 2447SOL    HW1 7919   6.429   1.450   2.445 -0.0731  0.0007 -0.0457
 2447SOL    HW2 7920   6.453   1.424   2.593 -0.9164 -1.1042 -0.0878
 2448SOL     OW 7921   7.628   9.033   1.470  0.2020 -0.1959 -0.3119
 2448SOL    HW1 7922   7.673   9.100   1.521 -0.0540 -0.1163 -0.1921
 2448SOL    HW2 7923   7.552   9.010   1.522 -0.1459 -0.0019 -0.7326
 2449SOL     OW 7924   5.762   0.902   8.443  0.3995  0.1335 -0.4147
 2449SOL    HW1 7925   5.837   0.954   8.470  1.9570 -2.0409 -0.3251
 2449SOL    HW2 7926   5.799   0.819   8.414 -1.9858 -1.0885 -0.1999
 2450SOL     OW 7927   1.796   6.375   9.959  0.3339 -0.1466 -0.2081
 2450SOL    HW1 7928   1.733   6.422  10.015 -1.1572  1.1080 -2.7822
 2450SOL    HW2 7929   1.749   6.359   9.878  3.1778  0.4107 -2.1009
 2451SOL     OW 7930   5.663   4.163   3.056  0.2359  0.0973 -0.2218
 2451SOL    HW1 7931   5.693   4.252   3.071 -0.2877 -0.0603  2.1466
 2451SOL    HW2 7932   5.742   4.114   3.034  0.5895  1.0149 -1.0626
 2452SOL     OW 7933   8.353   8.255   3.891  0.3578  0.6101 -0.1345
 2452SOL    HW1 7934   8.413   8.293   3.955  0.9816  0.6275 -0.7123
 2452SOL    HW2 7935   8.274   8.308   3.898  0.1255  0.1382  1.1470
 2453SOL     OW 7936   0.215   7.390   5.304  0.3489 -0.3894 -0.5351
 2453SOL    HW1 7937   0.286   7.326   5.314  0.1525 -0.7149 -1.1717
 2453SOL    HW2 7938   0.209   7.432   5.390 -0.1949 -1.9446  0.2343
 2454SOL     OW 7939   0.436   2.346   0.223  0.2568  0.1674 -0.1101
 2454SOL    HW1 7940   0.375   2.365   0.152  0.3768 -1.6075 -0.7330
 2454SOL    HW2 7941   0.417   2.256   0.248  1.7118  0.0206  0.5970
 2455SOL     OW 7942   2.360   2.188   1.586 -0.1645 -0.1513 -0.2148
 2455SOL    HW1 7943   2.417   2.253   1.628 -1.0769  0.8319 -0.4471
 2455SOL    HW2 7944   2.385   2.105   1.625  2.6082 -0.0430 -1.5069
 2456SOL     OW 7945   9.132   4.807   0.592 -0.4969 -0.2403 -0.4006
 2456SOL    HW1 7946   9.113   4.861   0.515 -0.5563  1.6013  0.8296
 2456SOL    HW2 7947   9.068   4.836   0.658  2.7276  2.0300  2.0161
 2457SOL     OW 7948   5.975   5.962   2.380  0.5060  0.3987 -0.5203
 2457SOL    HW1 7949   5.997   5.886   2.326 -0.0056 -0.1365  0.0156
 2457SOL    HW2 7950   5.954   5.926   2.466  0.2812  1.1460 -0.2497
 2458SOL     OW 7951   3.138   6.778   1.495  0.2153  0.1603 -0.3020
 2458SOL    HW1 7952   3.200   6.738   1.556 -0.4931 -0.4475  0.0493
 2458SOL    HW2 7953   3.121   6.865   1.530  0.0270 -0.0850  0.2167
 2459SOL     OW 7954   0.175   1.429   7.436 -0.4754 -0.5214 -0.5197
 2459SOL    HW1 7955   0.212   1.358   7.383  3.3763 -0.4919  1.6929
 2459SOL    HW2 7956   0.160   1.389   7.522 -3.1971  0.2335 -0.5658
 2460SOL     OW 7957   1.025   4.499   7.448  0.7468  0.1812 -0.3925
 2460SOL    HW1 7958   1.017   4.551   7.368  1.3257 -0.3251 -0.7877
 2460SOL    HW2 7959   1.077   4.423   7.422  1.6623  0.4196  0.6695
 2461SOL     OW 7960   6.271   7.493   5.532 -0.3025  0.6482 -0.0956
 2461SOL    HW1 7961   6.245   7.433   5.463 -0.9800 -0.4788  1.0814
 2461SOL    HW2 7962   6.188   7.526   5.566  0.0671  2.6598 -1.0304
 2462SOL     OW 7963   3.472   4.524   9.769  0.5145 -0.3704 -0.2986
 2462SOL    HW1 7964   3.535   4.588   9.804 -0.0383 -0.0666  0.1565
 2462SOL    HW2 7965   3.523   4.443   9.759  0.7294 -0.4204  1.0630
 2463SOL     OW 7966   8.987   5.519   1.087 -0.8328 -0.2235  0.6910
 2463SOL    HW1 7967   8.961   5.428   1.069 -0.5843 -0.9407  3.4724
 2463SOL    HW2 7968   9.035   5.514   1.169  1.2104  2.1598 -0.2241
 2464SOL     OW 7969   5.651   9.216   5.404 -0.6489 -0.0227 -0.7501
 2464SOL    HW1 7970   5.579   9.157   5.383 -0.4524 -1.0321  1.2162
 2464SOL    HW2 7971   5.624   9.259   5.486 -0.4574  2.1058 -1.7241
 2465SOL     OW 7972   3.136   3.452   0.853 -0.2636 -0.2273  0.3993
 2465SOL    HW1 7973   3.141   3.528   0.911 -1.1702 -1.1318  1.6954
 2465SOL    HW2 7974   3.123   3.377   0.911 -0.3398 -1.2731 -0.9186
 2466SOL     OW 7975   3.510   1.310   9.634 -0.0854 -0.1419  0.2658
 2466SOL    HW1 7976   3.458   1.390   9.631 -0.4065 -0.3599 -0.1241
 2466SOL    HW2 7977   3.528   1.290   9.542 -0.2943 -0.6970  0.3436
 2467SOL     OW 7978   7.072   0.068   6.306 -0.1834 -0.1036 -0.3520
 2467SOL    HW1 7979   7.094   0.048   6.397  0.7091 -0.4606 -0.6323
 2467SOL    HW2 7980   7.157   0.070   6.261 -0.6172  0.0256 -1.1846
 2468SOL     OW 7981   4.816   2.086   9.655  0.4008  0.0624  0.1841
 2468SOL    HW1 7982   4.788   2.001   9.619 -1.8649  1.2341 -1.0386
 2468SOL    HW2 7983   4.803   2.078   9.749  0.4463 -0.9983  0.1157
 2469SOL     OW 7984   8.898   4.145   7.952  0.1283 -0.3534  0.2116
 2469SOL    HW1 7985   8.843   4.161   8.029  0.5774  1.2405  0.2188
 2469SOL    HW2 7986   8.839   4.159   7.878  0.2414  0.3078  0.2398
 2470SOL     OW 7987   7.969   1.810   9.697  0.5524 -0.4199  0.6187
 2470SOL    HW1 7988   8.043   1.795   9.639  0.0971  0.8465 -0.3320
 2470SOL    HW2 7989   8.000   1.875   9.760 -0.1966  1.4331 -0.8153
 2471SOL     OW 7990   3.701   0.763   2.107 -0.7145 -0.4410  0.2869
 2471SOL    HW1 7991   3.782   0.741   2.060  0.6184  0.2174  2.1746
 2471SOL    HW2 7992   3.702   0.858   2.115 -1.2458 -0.4906  1.0795
 2472SOL     OW 7993   6.782   4.423   4.186  0.5327  0.6724  0.1149
 2472SOL    HW1 7994   6.812   4.336   4.163 -2.0535 -1.0254  2.5576
 2472SOL    HW2 7995   6.857   4.464   4.230  1.4257 -0.7305 -0.0483
 2473SOL     OW 7996   2.930   7.127   2.901 -0.2850  0.0604  1.0636
 2473SOL    HW1 7997   2.852   7.072   2.905  0.1992 -0.6523  0.8744
 2473SOL    HW2 7998   2.998   7.070   2.865  0.4357  0.5494  1.6225
 2474SOL     OW 7999   0.689   7.610   9.765  0.1826  0.1114 -0.0699
 2474SOL    HW1 8000   0.682   7.596   9.670  4.1876  2.9275 -1.0437
 2474SOL    HW2 8001   0.674   7.704   9.775  3.4855  0.5929  1.4279
 2475SOL     OW 8002   1.196   6.340   4.061  0.4142 -0.2329  0.3639
 2475SOL    HW1 8003   1.145   6.397   4.118 -0.2977 -2.5262  2.1659
 2475SOL    HW2 8004   1.286   6.348   4.092  0.4411  0.4372  0.1249
 2476SOL     OW 8005   8.606   5.504   9.997 -0.0297 -0.2215  0.4359
 2476SOL    HW1 8006   8.551   5.449   9.941  0.4300 -0.6605  0.4112
 2476SOL    HW2 8007   8.639   5.573   9.939 -0.8286  0.2593  0.5263
 2477SOL     OW 8008   3.099   3.722   3.958  0.0876 -0.3059 -0.0184
 2477SOL    HW1 8009   3.179   3.736   3.909  0.2033  1.9563  0.7269
 2477SOL    HW2 8010   3.122   3.744   4.049 -1.2282 -0.1299  0.2968
 2478SOL     OW 8011   8.359   6.663   9.852  0.2611  0.3343  0.2969
 2478SOL    HW1 8012   8.365   6.648   9.947 -2.6358 -1.2353  0.3521
 2478SOL    HW2 8013   8.439   6.626   9.817  0.0727 -1.8290  1.9305
 2479SOL     OW 8014   3.825   3.061   7.718  0.7123  0.1047 -0.0548
 2479SOL    HW1 8015   3.780   3.145   7.721 -0.6285 -0.6006  0.8483
 2479SOL    HW2 8016   3.883   3.067   7.642 -0.5629  1.2467 -0.9865
 2480SOL     OW 8017   3.822   9.710   7.583 -0.3202  0.0629  0.1450
 2480SOL    HW1 8018   3.802   9.621   7.614  0.1697 -0.0811  0.0545
 2480SOL    HW2 8019   3.865   9.752   7.657  0.7859 -0.2576 -0.2945
 2481SOL     OW 8020   6.869   1.754   4.681 -0.8191 -0.3715  0.0057
 2481SOL    HW1 8021   6.885   1.745   4.775 -0.7100 -0.6479 -0.0389
 2481SOL    HW2 8022   6.817   1.834   4.674 -0.6633 -0.2424  0.2821
 2482SOL     OW 8023   1.142   6.495   9.563 -0.3737  0.5105 -0.0328
 2482SOL    HW1 8024   1.097   6.445   9.631  1.0564 -0.0768  0.5238
 2482SOL    HW2 8025   1.081   6.565   9.540 -1.4707 -0.1345  0.8193
 2483SOL     OW 8026   8.712   9.978   8.611 -0.3185 -0.2244  0.2930
 2483SOL    HW1 8027   8.788   9.924   8.590 -1.4559 -1.5244 -0.6916
 2483SOL    HW2 8028   8.637   9.924   8.587 -1.6000  0.5851  2.2429
 2484SOL     OW 8029   3.728   7.272   4.466  0.2393 -0.5525 -0.0913
 2484SOL    HW1 8030   3.766   7.186   4.485  2.2720  0.5672  1.3167
 2484SOL    HW2 8031   3.652   7.278   4.523  1.1390 -0.7558  1.1766
 2485SOL     OW 8032   6.038   7.496   2.930  0.4146  0.1971 -0.1573
 2485SOL    HW1 8033   6.057   7.498   2.836  0.1084  2.4362 -0.2252
 2485SOL    HW2 8034   6.125   7.495   2.972  0.5874 -2.6159 -0.3780
 2486SOL     OW 8035   7.906   2.523   4.969  0.0075  0.2204 -0.0847
 2486SOL    HW1 8036   7.849   2.595   4.943 -1.7789 -1.2053 -0.3954
 2486SOL    HW2 8037   7.927   2.478   4.887  1.1343  0.3839  0.0946
 2487SOL     OW 8038   9.392   7.827   9.727  0.5518  0.6608 -0.3054
 2487SOL    HW1 8039   9.440   7.745   9.715 -0.5738 -0.0811  0.0316
 2487SOL    HW2 8040   9.300   7.799   9.736  0.0461  2.0119 -0.9627
 2488SOL     OW 8041   3.274   0.432   1.478  0.4009 -0.4045 -0.3237
 2488SOL    HW1 8042   3.340   0.381   1.526  0.1571 -0.5222 -0.1158
 2488SOL    HW2 8043   3.306   0.522   1.481 -0.1281 -0.2460  0.9315
 2489SOL     OW 8044   1.795   4.889   3.880  0.3720 -0.4632 -0.0190
 2489SOL    HW1 8045   1.803   4.947   3.804  0.8289  0.1230  0.4665
 2489SOL    HW2 8046   1.884   4.884   3.915  0.1874 -0.8349  0.4028
 2490SOL     OW 8047   8.933   7.455   0.409 -0.1487 -0.0317  0.6015
 2490SOL    HW1 8048   8.967   7.420   0.326 -1.6255 -0.2324  0.0592
 2490SOL    HW2 8049   9.008   7.500   0.448  1.0803 -1.5302  0.0572
 2491SOL     OW 8050   5.188   9.098   9.813 -0.5610  0.0372  0.0809
 2491SOL    HW1 8051   5.259   9.129   9.756  0.2585  0.4991  1.2967
 2491SOL    HW2 8052   5.186   9.003   9.799 -0.8637  0.2162 -1.2274
 2492SOL     OW 8053   3.176   7.232   9.203  0.1179  0.2576  0.4089
 2492SOL    HW1 8054   3.242   7.229   9.272 -1.3322  0.6936  1.9111
 2492SOL    HW2 8055   3.186   7.319   9.164 -0.5836  0.9920  1.7623
 2493SOL     OW 8056   8.112   6.464   8.474 -0.4550  0.6177 -0.1098
 2493SOL    HW1 8057   8.177   6.517   8.428 -0.9985  0.5299 -1.0082
 2493SOL    HW2 8058   8.028   6.495   8.440 -0.8263 -0.0992  0.1348
 2494SOL     OW 8059   0.635   4.983   8.780  0.3917 -0.0632  0.2582
 2494SOL    HW1 8060   0.622   4.900   8.825  2.3726  0.2415  1.4647
 2494SOL    HW2 8061   0.566   5.040   8.815 -1.0749 -1.1600 -0.6838
 2495SOL     OW 8062   0.446   9.902   9.128 -0.2304 -0.2752 -0.5539
 2495SOL    HW1 8063   0.534   9.899   9.164  0.3757 -0.5331 -1.9806
 2495SOL    HW2 8064   0.399   9.963   9.184  0.8266 -0.1933  0.2717
 2496SOL     OW 8065   9.128   6.218   6.874  0.2819  0.2324  0.0366
 2496SOL    HW1 8066   9.074   6.216   6.794 -0.7930  0.4781  0.7350
 2496SOL    HW2 8067   9.197   6.282   6.854 -0.7990  1.3752 -0.2055
 2497SOL     OW 8068   4.985   3.555   9.944 -0.2962  0.1845  0.1530
 2497SOL    HW1 8069   5.010   3.487   9.881  2.3670  1.1956  0.0023
 2497SOL    HW2 8070   5.063   3.568   9.997 -0.3343  3.7874 -0.4650
 2498SOL     OW 8071   2.099   1.393   0.818  0.5549  0.1128  0.9851
 2498SOL    HW1 8072   2.133   1.406   0.729 -1.2487  2.4427  0.5243
 2498SOL    HW2 8073   2.176   1.374   0.871  1.7383 -0.9209 -0.9694
 2499SOL     OW 8074   0.191   8.508   2.702  0.2978  0.2654 -0.2850
 2499SOL    HW1 8075   0.259   8.491   2.637  2.1401 -0.2786  1.6621
 2499SOL    HW2 8076   0.233   8.490   2.786 -1.4265  2.5797  1.2080
 2500SOL     OW 8077   3.663   2.988   5.051  0.0060 -0.5089 -0.2326
 2500SOL    HW1 8078   3.613   3.058   5.010 -2.3051 -2.4576 -0.9256
 2500SOL    HW2 8079   3.681   2.926   4.980 -0.3346 -1.8879  0.8530
 2501SOL     OW 8080   2.734   1.577   9.298 -0.2824 -0.2251  0.2558
 2501SOL    HW1 8081   2.802   1.626   9.344 -1.8721  2.5210 -0.0708
 2501SOL    HW2 8082   2.718   1.627   9.218 -2.4871 -0.8793  0.2055
 2502SOL     OW 8083   9.575   2.160   4.380  0.1975  0.5662 -0.1798
 2502SOL    HW1 8084   9.640   2.172   4.311 -0.6238 -0.5788 -1.2058
 2502SOL    HW2 8085   9.540   2.248   4.397  0.8675  0.9478 -0.7636
 2503SOL     OW 8086   7.197   8.923   2.277 -0.3155 -0.6870  0.2333
 2503SOL    HW1 8087   7.127   8.929   2.213 -2.4342  0.8218  2.5282
 2503SOL    HW2 8088   7.254   8.997   2.258 -0.3774 -0.8151 -0.4713
 2504SOL     OW 8089   6.818   6.817   2.802 -0.6099  0.2210 -0.2003
 2504SOL    HW1 8090   6.822   6.780   2.890 -1.0556  3.2801  1.2134
 2504SOL    HW2 8091   6.748   6.768   2.759 -0.9228 -0.8006  1.3905
 2505SOL     OW 8092   8.554   3.640   1.846  0.6418 -0.3805  0.5355
 2505SOL    HW1 8093   8.511   3.555   1.839  0.6942 -0.3090 -0.7694
 2505SOL    HW2 8094   8.646   3.619   1.859  0.6007 -0.5229  0.5949
 2506SOL     OW 8095   2.223   7.246   4.877 -0.1094 -0.2433  0.7538
 2506SOL    HW1 8096   2.150   7.283   4.828  0.1255 -0.3736  0.2992
 2506SOL    HW2 8097   2.210   7.276   4.967 -0.1243  0.6284  0.4644
 2507SOL     OW 8098   6.819   8.421   2.436 -0.5913 -0.0978 -0.1670
 2507SOL    HW1 8099   6.789   8.416   2.527 -1.3769 -0.6613 -0.4479
 2507SOL    HW2 8100   6.804   8.512   2.411 -0.8261 -0.0566  0.1161
 2508SOL     OW 8101   7.471   9.270   8.146  0.1422 -0.1239 -0.1724
 2508SOL    HW1 8102   7.433   9.224   8.071  0.8371 -1.4860  0.2903
 2508SOL    HW2 8103   7.563   9.243   8.147  0.4546  0.9064  0.4054
 2509SOL     OW 8104   4.559   8.391   4.186 -0.5644  0.2782 -0.8910
 2509SOL    HW1 8105   4.582   8.447   4.111 -0.1577 -0.8751 -1.6513
 2509SOL    HW2 8106   4.639   8.340   4.203 -0.3036  1.2523  1.0204
 2510SOL     OW 8107   3.400   4.893   0.413 -0.7671 -0.1177 -0.0830
 2510SOL    HW1 8108   3.320   4.847   0.388 -0.7940  0.7004 -1.5981
 2510SOL    HW2 8109   3.375   4.946   0.489 -0.9591 -1.8332  1.1198
 2511SOL     OW 8110   6.848   3.399   8.453  0.6030 -0.4096  0.2008
 2511SOL    HW1 8111   6.849   3.400   8.357  2.0334  0.0401  0.1925
 2511SOL    HW2 8112   6.832   3.307   8.476 -0.5893 -0.3794 -0.4507
 2512SOL     OW 8113   9.503   3.545   9.552  0.3507  0.2440  0.0407
 2512SOL    HW1 8114   9.449   3.544   9.632 -2.2624  1.0445 -1.5859
 2512SOL    HW2 8115   9.554   3.464   9.557  0.4677  0.3788  2.5971
 2513SOL     OW 8116   7.180   2.422   4.401  0.4119 -0.0783 -0.5173
 2513SOL    HW1 8117   7.161   2.381   4.486  2.8848 -1.4073 -0.5202
 2513SOL    HW2 8118   7.115   2.492   4.394  0.6286  0.6537  2.8667
 2514SOL     OW 8119   7.653   2.307   4.181 -0.1437 -0.7772  0.1050
 2514SOL    HW1 8120   7.698   2.390   4.200 -1.1700 -0.2741  0.3906
 2514SOL    HW2 8121   7.561   2.330   4.176 -0.4695 -1.9417  0.4014
 2515SOL     OW 8122   0.215   2.139   8.441 -0.0143 -0.3466  0.5839
 2515SOL    HW1 8123   0.213   2.044   8.426 -0.8810  0.0357 -2.4111
 2515SOL    HW2 8124   0.155   2.174   8.375 -1.3502  2.1787  2.9793
 2516SOL     OW 8125   9.641   8.237   9.115 -0.1302  0.2918  0.1939
 2516SOL    HW1 8126   9.588   8.170   9.159  0.4775 -0.6999 -0.5452
 2516SOL    HW2 8127   9.640   8.213   9.023  0.7195  0.8740  0.0154
 2517SOL     OW 8128   9.554   2.214   1.077  0.0063  0.3094 -0.6862
 2517SOL    HW1 8129   9.604   2.174   1.006 -2.3686 -0.3495 -2.1113
 2517SOL    HW2 8130   9.496   2.145   1.108 -2.5408  1.8697 -1.6075
 2518SOL     OW 8131   9.929   1.357   7.282 -0.4768 -0.2010 -0.3844
 2518SOL    HW1 8132   9.906   1.274   7.324 -0.9012 -0.9283 -1.9632
 2518SOL    HW2 8133   9.999   1.393   7.336  1.1954 -2.6056 -0.8204
 2519SOL     OW 8134   8.082   8.698   1.652  0.1167  0.1798  0.5118
 2519SOL    HW1 8135   8.025   8.742   1.715 -0.6858 -0.4725  0.2576
 2519SOL    HW2 8136   8.023   8.645   1.599  0.7634  0.8603 -0.9338
 2520SOL     OW 8137   2.693   9.320   5.201 -0.4646  0.2613  0.5234
 2520SOL    HW1 8138   2.772   9.290   5.244 -0.9167 -0.2064  1.0349
 2520SOL    HW2 8139   2.694   9.415   5.212  0.8355  0.4466 -0.8722
 2521SOL     OW 8140   9.134   2.929   4.732  0.1078 -0.1755  0.1874
 2521SOL    HW1 8141   9.048   2.946   4.771 -0.3077 -0.4147 -0.6142
 2521SOL    HW2 8142   9.185   2.890   4.804  0.3884  2.3104  1.4169
 2522SOL     OW 8143   7.691   0.284   1.700  0.0164  0.1895 -0.0888
 2522SOL    HW1 8144   7.659   0.201   1.665  1.4573 -0.0423 -0.9604
 2522SOL    HW2 8145   7.765   0.259   1.756  0.1781  0.8531 -0.0032
 2523SOL     OW 8146   1.150   6.436   5.188 -0.5028 -0.3514  0.0858
 2523SOL    HW1 8147   1.062   6.471   5.199 -0.3520 -0.0837  0.4742
 2523SOL    HW2 8148   1.172   6.397   5.273 -0.4734 -0.9508 -0.1899
 2524SOL     OW 8149   5.435   4.832   8.304 -0.4333 -0.3053  0.4109
 2524SOL    HW1 8150   5.419   4.738   8.304  2.6359 -0.9281 -0.0100
 2524SOL    HW2 8151   5.456   4.854   8.214  0.6698  0.4059  0.8209
 2525SOL     OW 8152   5.326   4.439   7.164  0.1141 -0.2610 -0.1807
 2525SOL    HW1 8153   5.389   4.464   7.096  1.8654 -0.3691  1.3275
 2525SOL    HW2 8154   5.345   4.346   7.179 -0.4367 -0.2969  0.2838
 2526SOL     OW 8155   2.727   8.783   2.921 -0.0930  0.3516  0.3816
 2526SOL    HW1 8156   2.668   8.779   2.997 -0.8181  1.5623 -0.0869
 2526SOL    HW2 8157   2.682   8.840   2.859 -0.1296 -1.6410 -1.5493
 2527SOL     OW 8158   3.469   1.716   2.004 -0.3910 -0.2193 -0.0706
 2527SOL    HW1 8159   3.510   1.658   2.069 -0.0390  0.0383 -0.0615
 2527SOL    HW2 8160   3.444   1.794   2.053  0.8112  0.4097 -0.4386
 2528SOL     OW 8161   6.714   2.304   2.305  0.0311 -0.4519 -0.0036
 2528SOL    HW1 8162   6.774   2.323   2.377 -0.5992 -1.3529  0.7752
 2528SOL    HW2 8163   6.760   2.338   2.227  0.3253  1.3625  0.8940
 2529SOL     OW 8164   3.902   8.894   8.602  0.2700 -0.5724  0.3789
 2529SOL    HW1 8165   3.832   8.835   8.628  1.4438 -1.7162  1.0503
 2529SOL    HW2 8166   3.941   8.923   8.685  0.1429  0.6237  0.0371
 2530SOL     OW 8167   3.704   6.674   4.083 -0.4957 -0.0883  0.0905
 2530SOL    HW1 8168   3.753   6.651   4.162 -0.3259  3.7927  1.3272
 2530SOL    HW2 8169   3.613   6.654   4.105 -0.2222 -0.9873  0.4393
 2531SOL     OW 8170   3.491   6.209   7.383 -0.2301 -0.2131  0.1263
 2531SOL    HW1 8171   3.534   6.165   7.456 -0.1793  0.0797  0.2746
 2531SOL    HW2 8172   3.408   6.163   7.373  0.4056 -1.2267 -0.6085
 2532SOL     OW 8173   3.740   5.814   9.812  0.1619  0.7026  0.4181
 2532SOL    HW1 8174   3.721   5.750   9.881 -1.6170 -0.5959 -1.1351
 2532SOL    HW2 8175   3.834   5.826   9.816  0.2157  0.0015  2.4879
 2533SOL     OW 8176   1.875   9.030   2.077  0.2202  0.5789 -0.1531
 2533SOL    HW1 8177   1.923   9.076   2.009  2.7711 -1.3198  0.2328
 2533SOL    HW2 8178   1.808   9.093   2.105  2.3892  3.3975 -0.7940
 2534SOL     OW 8179   7.056   0.620   1.277 -0.2812 -1.0406 -0.2170
 2534SOL    HW1 8180   7.149   0.596   1.285 -0.3354 -0.6644  2.4564
 2534SOL    HW2 8181   7.017   0.593   1.360 -2.1730  0.5426 -0.5288
 2535SOL     OW 8182   4.536   9.138   8.327 -0.3136 -0.5067 -0.3635
 2535SOL    HW1 8183   4.522   9.099   8.413  0.6845 -0.9356 -0.3706
 2535SOL    HW2 8184   4.452   9.177   8.303 -1.1184 -1.9573  0.0086
 2536SOL     OW 8185   6.525   2.696   9.926 -0.4776  0.6516 -0.2458
 2536SOL    HW1 8186   6.439   2.659   9.947 -1.0115  0.9147 -1.8116
 2536SOL    HW2 8187   6.582   2.620   9.916 -0.6555  0.4475  0.2448
 2537SOL     OW 8188   2.791   4.588   2.285  0.4193  0.5083  0.4608
 2537SOL    HW1 8189   2.752   4.666   2.325 -1.8786 -0.0054 -0.6407
 2537SOL    HW2 8190   2.773   4.518   2.348  0.7656  0.5122  0.5640
 2538SOL     OW 8191   5.520   2.860   6.670 -0.2058 -0.3747 -0.7959
 2538SOL    HW1 8192   5.482   2.943   6.641  0.8624  0.4816  0.1704
 2538SOL    HW2 8193   5.614   2.876   6.670 -0.0777 -0.9316  1.2820
 2539SOL     OW 8194   4.704   6.769   5.405 -0.2352  0.1568 -0.4324
 2539SOL    HW1 8195   4.619   6.783   5.447  0.8812  2.2326  1.3329
 2539SOL    HW2 8196   4.743   6.696   5.453  0.0857  1.0255  0.6710
 2540SOL     OW 8197   1.883   8.247   8.126 -0.0444  0.0222  0.5363
 2540SOL    HW1 8198   1.946   8.223   8.058  2.3429 -0.5482  2.8041
 2540SOL    HW2 8199   1.802   8.202   8.101  1.1728 -1.3646 -1.1079
 2541SOL     OW 8200   3.623   0.971   7.872  0.2269  0.4238  0.8932
 2541SOL    HW1 8201   3.675   1.051   7.874  1.1757 -0.2016  1.5241
 2541SOL    HW2 8202   3.601   0.959   7.779  1.9245  0.2498  0.4832
 2542SOL     OW 8203   7.962   2.741   7.314  0.6117 -0.3759  0.1184
 2542SOL    HW1 8204   7.991   2.649   7.318 -0.0002 -0.7395 -2.2443
 2542SOL    HW2 8205   8.000   2.775   7.234 -0.4904  0.9645  0.1215
 2543SOL     OW 8206   5.680   2.355   2.752 -0.4210  0.1107  0.5989
 2543SOL    HW1 8207   5.694   2.324   2.662 -0.1539 -0.5173  0.8433
 2543SOL    HW2 8208   5.591   2.389   2.753 -0.2031  0.7177 -0.0661
 2544SOL     OW 8209   8.630   1.381   3.022 -0.0183 -0.3056 -0.0176
 2544SOL    HW1 8210   8.661   1.367   3.112 -0.0256 -0.7180 -0.0776
 2544SOL    HW2 8211   8.710   1.384   2.969  0.1282  1.8137  0.2262
 2545SOL     OW 8212   1.319   2.700   0.060  0.0730  0.3090  0.1271
 2545SOL    HW1 8213   1.290   2.675  -0.027 -1.0184  0.0464  0.5541
 2545SOL    HW2 8214   1.239   2.722   0.107  0.4593 -1.3426  1.6443
 2546SOL     OW 8215   6.650   2.090   6.379 -0.2826 -0.2669 -0.0474
 2546SOL    HW1 8216   6.670   2.056   6.466 -2.2302  1.4016  1.1482
 2546SOL    HW2 8217   6.623   2.012   6.329  2.6945 -1.5576  0.1385
 2547SOL     OW 8218   6.922   4.115   5.729  0.6463  0.3720 -0.7825
 2547SOL    HW1 8219   6.981   4.132   5.802 -0.8604 -0.0093  0.5931
 2547SOL    HW2 8220   6.966   4.048   5.676  0.9824 -0.6883  0.7915
 2548SOL     OW 8221   2.758   2.136   5.766  0.7463 -0.4819 -0.1807
 2548SOL    HW1 8222   2.772   2.228   5.742  0.0505 -0.5055 -0.7180
 2548SOL    HW2 8223   2.695   2.140   5.838  1.4286 -0.5007  0.4274
 2549SOL     OW 8224   1.598   0.866   7.274 -0.5883 -0.7903 -0.1115
 2549SOL    HW1 8225   1.662   0.857   7.344 -0.4513  1.9576  0.2189
 2549SOL    HW2 8226   1.610   0.955   7.241 -0.8103 -1.8605 -3.5026
 2550SOL     OW 8227   4.678   9.941   8.572  0.5804  0.2557 -0.1060
 2550SOL    HW1 8228   4.748   9.891   8.529  0.6683  0.0543  0.2712
 2550SOL    HW2 8229   4.723   9.991   8.640  0.1803 -0.9487  1.0974
 2551SOL     OW 8230   2.141   2.694   4.431  0.6740 -0.0068 -1.0925
 2551SOL    HW1 8231   2.146   2.613   4.482 -1.9005  0.6866  0.4743
 2551SOL    HW2 8232   2.074   2.678   4.365  0.9566  0.4768 -1.5044
 2552SOL     OW 8233   8.557   1.226   5.782 -0.2086 -0.2228  0.0729
 2552SOL    HW1 8234   8.472   1.193   5.812  0.2866 -0.5700  1.1678
 2552SOL    HW2 8235   8.620   1.187   5.843  0.5060  1.9922  0.8498
 2553SOL     OW 8236   9.210   8.312   1.421 -0.1146 -0.3722  0.3381
 2553SOL    HW1 8237   9.150   8.308   1.495  0.2183 -2.8726  0.5769
 2553SOL    HW2 8238   9.171   8.376   1.361 -2.9172 -1.6678  0.6090
 2554SOL     OW 8239   9.072   1.197   2.909  0.3780  0.4283  0.1140
 2554SOL    HW1 8240   9.155   1.168   2.871  0.2006  0.2904 -0.1710
 2554SOL    HW2 8241   9.092   1.210   3.002  0.2947 -1.3370  0.4308
 2555SOL     OW 8242   5.472   7.337   5.461  0.0582  0.0535 -0.1238
 2555SOL    HW1 8243   5.537   7.378   5.518 -0.1924  0.4290 -0.0998
 2555SOL    HW2 8244   5.403   7.404   5.452  0.5854  0.4267 -1.7204
 2556SOL     OW 8245   3.395   3.358   3.192 -0.0581 -0.9456 -0.9005
 2556SOL    HW1 8246   3.446   3.285   3.155  2.0396  0.1013 -0.2620
 2556SOL    HW2 8247   3.403   3.428   3.127 -0.2984 -0.6216 -0.5850
 2557SOL     OW 8248   7.397   2.789   1.549 -0.2079  0.1291  0.5438
 2557SOL    HW1 8249   7.420   2.882   1.547  1.8632 -0.3176  1.4126
 2557SOL    HW2 8250   7.442   2.755   1.626 -1.8200 -1.4057  0.8725
 2558SOL     OW 8251   9.736   2.463   0.767  0.4395  0.3993  0.0593
 2558SOL    HW1 8252   9.683   2.540   0.787 -3.5010 -2.0197  0.1894
 2558SOL    HW2 8253   9.763   2.430   0.853 -0.7387 -0.0456  0.2921
 2559SOL     OW 8254   6.498   3.878   2.401  0.5723  0.0831 -0.2257
 2559SOL    HW1 8255   6.486   3.831   2.318 -3.1214  0.5382 -0.1403
 2559SOL    HW2 8256   6.489   3.971   2.378  0.2908  0.2614  0.5573
 2560SOL     OW 8257   8.557   3.023   0.262  0.2083  0.2309  0.6421
 2560SOL    HW1 8258   8.616   3.095   0.280 -0.3569  0.3401  2.1875
 2560SOL    HW2 8259   8.470   3.057   0.284 -0.5067  0.1189 -1.6918
 2561SOL     OW 8260   4.727   4.975   4.649 -0.8342  0.2643 -0.2819
 2561SOL    HW1 8261   4.655   4.921   4.681  0.5395 -0.9989  0.8303
 2561SOL    HW2 8262   4.748   5.032   4.724 -0.9239  0.9072 -0.7379
 2562SOL     OW 8263   9.557   2.512   9.366 -0.8002  0.4573  0.1242
 2562SOL    HW1 8264   9.529   2.549   9.449 -0.7165  1.3575 -0.2452
 2562SOL    HW2 8265   9.605   2.582   9.322 -0.4769 -0.1397 -0.5035
 2563SOL     OW 8266   7.012   7.376   6.332  0.4173  0.3239  0.1211
 2563SOL    HW1 8267   7.078   7.381   6.401  1.4564  1.7214 -0.9161
 2563SOL    HW2 8268   7.003   7.466   6.300  0.2845 -0.3314 -1.8240
 2564SOL     OW 8269   4.532   4.190   9.278  0.0457  0.2539 -0.3148
 2564SOL    HW1 8270   4.617   4.193   9.234 -0.7172 -0.4457 -1.9241
 2564SOL    HW2 8271   4.519   4.097   9.299  0.1940  0.5162  1.0271
 2565SOL     OW 8272   8.583   2.102   3.576 -0.2053 -0.0707  0.1567
 2565SOL    HW1 8273   8.592   2.155   3.655  1.3350  1.1372 -0.7716
 2565SOL    HW2 8274   8.652   2.037   3.582 -0.2647 -0.1574 -0.0638
 2566SOL     OW 8275   3.811   7.783   3.609 -0.6756  0.3511  0.0346
 2566SOL    HW1 8276   3.890   7.741   3.573 -0.6820 -0.0554  0.4747
 2566SOL    HW2 8277   3.809   7.870   3.568  1.0843  1.1317  1.4416
 2567SOL     OW 8278   7.961   2.281   1.281  0.0035 -0.1417  0.2796
 2567SOL    HW1 8279   7.928   2.219   1.215 -1.5433  1.4532 -0.5457
 2567SOL    HW2 8280   8.030   2.330   1.235 -0.6433  0.5467  0.0254
 2568SOL     OW 8281   1.387   5.828   5.144  0.6304  0.2636 -0.2870
 2568SOL    HW1 8282   1.322   5.894   5.168  1.5478  0.9773  0.3230
 2568SOL    HW2 8283   1.400   5.841   5.050  0.2545  0.4446 -0.3157
 2569SOL     OW 8284   4.847   9.054   2.852  0.0465  0.0051  0.2794
 2569SOL    HW1 8285   4.940   9.033   2.841 -0.1093 -1.4796  1.4174
 2569SOL    HW2 8286   4.845   9.149   2.863  1.4479  0.0504  0.3812
 2570SOL     OW 8287   5.844   3.131   8.016 -0.2085 -0.3044  0.2396
 2570SOL    HW1 8288   5.764   3.079   8.026  0.8959 -2.1459 -0.2455
 2570SOL    HW2 8289   5.883   3.101   7.935  0.6167  1.1424  0.0629
 2571SOL     OW 8290   1.476   7.737   9.847 -0.0597  0.1102  0.9609
 2571SOL    HW1 8291   1.565   7.766   9.865  0.2676  0.5123 -1.1354
 2571SOL    HW2 8292   1.431   7.815   9.815 -0.2485 -0.7899 -1.0666
 2572SOL     OW 8293   2.148   0.948   9.768 -0.0285 -0.1848  0.6121
 2572SOL    HW1 8294   2.203   0.892   9.715 -2.0171 -0.1564 -1.6404
 2572SOL    HW2 8295   2.207   1.016   9.801  1.7320 -1.6069  0.5437
 2573SOL     OW 8296   5.390   9.277   9.359 -0.1782 -0.0314  0.1840
 2573SOL    HW1 8297   5.468   9.222   9.372 -0.5114 -0.6934 -0.5653
 2573SOL    HW2 8298   5.329   9.221   9.312 -0.5182  0.9924 -0.6208
 2574SOL     OW 8299   7.321   7.594   9.784  0.2976 -0.1294 -0.2718
 2574SOL    HW1 8300   7.407   7.599   9.741 -0.0993 -1.7123 -1.3831
 2574SOL    HW2 8301   7.282   7.680   9.771  2.0452  0.9077  1.0336
 2575SOL     OW 8302   2.892   2.685   9.873 -0.6923  0.2943 -0.0015
 2575SOL    HW1 8303   2.983   2.655   9.863 -0.2689  0.5674  2.4452
 2575SOL    HW2 8304   2.842   2.604   9.887 -1.0970  0.0248 -2.5331
 2576SOL     OW 8305   5.308   6.919   5.701 -0.2250 -0.3441 -0.4359
 2576SOL    HW1 8306   5.363   6.958   5.633 -0.8670 -0.9252 -1.3244
 2576SOL    HW2 8307   5.369   6.896   5.771  0.9263 -2.1970 -1.9318
 2577SOL     OW 8308   1.896   9.410   6.043  0.0709  0.1169 -0.5328
 2577SOL    HW1 8309   1.815   9.408   6.094 -0.7182  0.0631 -1.7515
 2577SOL    HW2 8310   1.935   9.324   6.057 -1.3780 -0.8343 -1.8943
 2578SOL     OW 8311   4.287   2.034   2.670 -0.0890  0.2332  0.1536
 2578SOL    HW1 8312   4.367   2.010   2.717 -0.6109 -1.7091  0.1358
 2578SOL    HW2 8313   4.226   2.058   2.739  0.8957  3.3240  0.1111
 2579SOL     OW 8314   9.040   5.901   6.652  0.0755  0.0503  0.3855
 2579SOL    HW1 8315   9.098   5.826   6.664 -0.0866 -0.3553 -1.1279
 2579SOL    HW2 8316   8.988   5.905   6.733 -0.5907 -2.0906  0.1238
 2580SOL     OW 8317   1.045   8.525   6.873 -0.0349 -0.3007 -0.5312
 2580SOL    HW1 8318   1.036   8.448   6.930 -1.1977  0.3159  0.1586
 2580SOL    HW2 8319   1.133   8.558   6.891 -0.4561  0.0165  1.1032
 2581SOL     OW 8320   4.078   1.625   1.645  0.6245 -0.6592 -0.1350
 2581SOL    HW1 8321   4.034   1.643   1.727  0.8369  0.4699 -0.2495
 2581SOL    HW2 8322   4.007   1.621   1.580  0.2937 -3.0477  0.2834
 2582SOL     OW 8323   4.904   2.376   9.809 -0.0671  0.3732 -0.6181
 2582SOL    HW1 8324   4.997   2.362   9.826  0.1685 -0.2191 -2.2309
 2582SOL    HW2 8325   4.888   2.334   9.725 -2.1204 -0.7753  0.2688
 2583SOL     OW 8326   1.666   1.048   3.639  0.3813  0.1169  0.0504
 2583SOL    HW1 8327   1.727   1.072   3.709 -0.3425 -0.2543  0.8361
 2583SOL    HW2 8328   1.597   0.998   3.684 -0.8762  1.1440 -0.6826
 2584SOL     OW 8329   9.352   1.245   1.235  0.1649  0.2432  0.0863
 2584SOL    HW1 8330   9.374   1.297   1.312 -2.4591  1.9693 -0.1824
 2584SOL    HW2 8331   9.431   1.249   1.181  1.2674  0.9452  1.6599
 2585SOL     OW 8332   8.647   6.220   7.898 -0.2025  0.2983  0.3983
 2585SOL    HW1 8333   8.557   6.188   7.884 -1.0830  2.4794  0.6291
 2585SOL    HW2 8334   8.703   6.149   7.865 -1.9960 -0.9381 -0.1708
 2586SOL     OW 8335   8.803   5.301   5.418  0.1328  0.9220  0.1009
 2586SOL    HW1 8336   8.722   5.327   5.462 -0.4815  0.6840 -0.8656
 2586SOL    HW2 8337   8.832   5.223   5.465  0.2948  1.5181  1.0202
 2587SOL     OW 8338   5.387   7.271   4.833  0.4638 -0.1792 -0.4523
 2587SOL    HW1 8339   5.358   7.272   4.924 -0.0023 -0.3099 -0.5986
 2587SOL    HW2 8340   5.432   7.187   4.823 -0.3076 -0.5857 -0.5931
 2588SOL     OW 8341   9.063   8.485   2.336  0.1291  0.1225 -0.3361
 2588SOL    HW1 8342   8.973   8.495   2.368  0.1757 -2.0674  0.6538
 2588SOL    HW2 8343   9.117   8.503   2.413  0.4590 -0.3041 -0.4685
 2589SOL     OW 8344   5.812   4.406   8.981 -0.3267 -0.1907  0.4449
 2589SOL    HW1 8345   5.883   4.416   9.043 -1.2780 -1.4416  1.8124
 2589SOL    HW2 8346   5.853   4.416   8.895  1.3359 -0.1129  1.2204
 2590SOL     OW 8347   0.719   2.162   3.874 -0.5673 -0.7926  0.4385
 2590SOL    HW1 8348   0.780   2.146   3.802 -0.6866 -1.7439  0.5401
 2590SOL    HW2 8349   0.680   2.247   3.854  0.4483 -0.3743  0.1335
 2591SOL     OW 8350   8.709   5.066   3.909  1.0759  0.5275  0.0690
 2591SOL    HW1 8351   8.772   5.010   3.864  0.7085  0.6376 -0.6008
 2591SOL    HW2 8352   8.742   5.073   3.999  0.3479 -1.9640  0.6108
 2592SOL     OW 8353   9.251   3.062   3.768  0.7477  0.3029 -1.0559
 2592SOL    HW1 8354   9.190   3.106   3.827  0.9361  1.6694 -1.8489
 2592SOL    HW2 8355   9.338   3.081   3.803  0.7851 -0.5653 -0.6562
 2593SOL     OW 8356   7.455   1.952   9.630 -0.2425 -0.3722  0.1664
 2593SOL    HW1 8357   7.466   1.892   9.704  0.9010  1.3111  1.4483
 2593SOL    HW2 8358   7.542   1.960   9.592 -0.5986 -0.3386 -0.6626
 2594SOL     OW 8359   9.948   1.760   6.112 -0.3013  0.1591  0.5631
 2594SOL    HW1 8360   9.982   1.676   6.080  2.2504  1.3394 -0.0726
 2594SOL    HW2 8361   9.856   1.743   6.128 -0.1899 -2.3948 -0.8646
 2595SOL     OW 8362   1.970   4.365   8.527 -1.1774 -0.1666 -0.0973
 2595SOL    HW1 8363   1.978   4.397   8.438  0.1170  1.5076  0.5809
 2595SOL    HW2 8364   2.037   4.297   8.535 -0.4982  0.5047 -0.0623
 2596SOL     OW 8365   5.965   7.173   4.728 -0.5963  0.3833 -0.0667
 2596SOL    HW1 8366   5.876   7.181   4.763  0.1447  0.2718  1.9152
 2596SOL    HW2 8367   6.022   7.198   4.800  1.0410 -0.8196 -0.8823
 2597SOL     OW 8368   4.533   8.171   9.538  0.3636 -0.3990 -0.1212
 2597SOL    HW1 8369   4.461   8.209   9.587  1.9725 -0.2956  2.3535
 2597SOL    HW2 8370   4.530   8.077   9.558  1.7843 -0.1809  1.3463
 2598SOL     OW 8371   5.126   6.874   8.345 -0.3535 -0.2539 -0.0768
 2598SOL    HW1 8372   5.204   6.818   8.342 -0.4047 -0.3527  0.4733
 2598SOL    HW2 8373   5.069   6.832   8.409  0.1431  1.1087  1.3179
 2599SOL     OW 8374   1.093   9.195   0.801  0.3900  0.0170  0.2491
 2599SOL    HW1 8375   1.175   9.155   0.772 -0.6735 -0.0584 -3.0706
 2599SOL    HW2 8376   1.026   9.131   0.776 -0.8317  0.9033  1.1527
 2600SOL     OW 8377   4.937   6.401   5.891  0.4500  0.8327  0.0657
 2600SOL    HW1 8378   4.984   6.335   5.941 -0.8540 -0.3806 -0.2371
 2600SOL    HW2 8379   4.865   6.428   5.948  0.7620  1.7389  0.0446
 2601SOL     OW 8380   9.233   2.568   1.567  0.3989 -0.3017  0.5133
 2601SOL    HW1 8381   9.249   2.562   1.473  0.4548 -0.2078  0.5169
 2601SOL    HW2 8382   9.138   2.573   1.575  0.3934 -0.3269  0.4627
 2602SOL     OW 8383   7.866   3.292   0.846  0.1654 -0.1948 -0.2997
 2602SOL    HW1 8384   7.929   3.281   0.917 -1.4302 -1.6135  0.9882
 2602SOL    HW2 8385   7.816   3.371   0.870  0.0979 -0.2610 -0.2222
 2603SOL     OW 8386   3.800   6.269   1.096 -0.0230 -0.1766  0.1741
 2603SOL    HW1 8387   3.784   6.230   1.010 -0.4603  0.3991 -0.0059
 2603SOL    HW2 8388   3.856   6.205   1.140 -0.5599 -0.9176 -0.1887
 2604SOL     OW 8389   6.784   5.126   9.874 -0.0906 -0.0456  0.4131
 2604SOL    HW1 8390   6.789   5.068   9.950  1.8125 -1.6874 -0.8881
 2604SOL    HW2 8391   6.700   5.104   9.833 -0.9016  0.5053  1.6912
 2605SOL     OW 8392   3.240   7.827   4.388  0.1943 -0.0482  0.0074
 2605SOL    HW1 8393   3.334   7.847   4.388  0.4661 -1.2577  0.2210
 2605SOL    HW2 8394   3.235   7.736   4.360 -0.9321  0.0148 -0.0346
 2606SOL     OW 8395   6.817   3.119   0.157 -0.1400 -0.2067  0.1302
 2606SOL    HW1 8396   6.906   3.151   0.144 -0.3434  0.7805  0.9834
 2606SOL    HW2 8397   6.812   3.099   0.251 -0.5629 -1.0749 -0.0691
 2607SOL     OW 8398   0.866   1.480   8.918  0.5010 -0.1034 -0.2852
 2607SOL    HW1 8399   0.911   1.516   8.994 -1.3896  3.4023 -0.5879
 2607SOL    HW2 8400   0.930   1.489   8.847  0.7789  0.8690  0.0633
 2608SOL     OW 8401   0.287   5.151   9.318  0.7303  0.1860 -0.1145
 2608SOL    HW1 8402   0.368   5.128   9.272  1.2672  1.1340  0.3287
 2608SOL    HW2 8403   0.309   5.141   9.411 -0.3571 -1.7592 -0.0206
 2609SOL     OW 8404   8.999   9.506   0.163  0.0985 -0.0351  0.1586
 2609SOL    HW1 8405   8.997   9.559   0.084 -2.5494  0.5292  0.5162
 2609SOL    HW2 8406   9.040   9.424   0.137  1.7964  1.1428 -1.0711
 2610SOL     OW 8407   7.934   6.122   1.751 -0.1584  0.5868 -0.4752
 2610SOL    HW1 8408   7.858   6.126   1.810 -0.5948  1.2531 -1.0681
 2610SOL    HW2 8409   7.913   6.051   1.690 -0.0491  0.3964 -0.2909
 2611SOL     OW 8410   7.646   3.797   6.794  0.1613  0.4320  0.3247
 2611SOL    HW1 8411   7.673   3.884   6.764  2.1817  0.0827  1.0174
 2611SOL    HW2 8412   7.553   3.806   6.812  0.3165  2.4392  0.3308
 2612SOL     OW 8413   9.592   6.243   2.236 -0.4618 -0.2994  0.0105
 2612SOL    HW1 8414   9.568   6.193   2.158 -0.0637 -0.2639 -0.1347
 2612SOL    HW2 8415   9.516   6.234   2.294 -1.2642  0.6595 -0.8527
 2613SOL     OW 8416   6.056   8.189   0.638 -0.0097  0.2414  0.7593
 2613SOL    HW1 8417   6.023   8.190   0.728 -0.7594 -1.7076  0.5636
 2613SOL    HW2 8418   6.027   8.104   0.603  1.5262  0.3242 -0.8495
 2614SOL     OW 8419   7.644   1.337   8.496 -0.3477 -0.4569  0.0693
 2614SOL    HW1 8420   7.618   1.426   8.520  0.1723  0.5457 -2.7617
 2614SOL    HW2 8421   7.562   1.288   8.492 -0.7852  0.2407  0.3146
 2615SOL     OW 8422   1.141   6.591   0.050 -0.2717 -0.0502 -0.1447
 2615SOL    HW1 8423   1.229   6.597   0.088  0.6434 -1.7063 -1.8301
 2615SOL    HW2 8424   1.106   6.510   0.087 -0.2736 -0.4581 -1.0284
 2616SOL     OW 8425   0.990   4.796   3.543 -0.3618 -0.2389 -0.9514
 2616SOL    HW1 8426   0.910   4.847   3.556 -0.3596 -0.4216 -0.2064
 2616SOL    HW2 8427   0.980   4.760   3.455 -1.6895 -1.2891 -0.4086
 2617SOL     OW 8428   1.366   1.255   0.187 -0.3496  0.1983  0.1838
 2617SOL    HW1 8429   1.337   1.210   0.107  0.0097 -1.6281  1.0315
 2617SOL    HW2 8430   1.367   1.348   0.163 -2.1300 -0.1125 -1.3335
 2618SOL     OW 8431   9.181   3.729   3.842 -0.2388 -0.3550 -0.0119
 2618SOL    HW1 8432   9.159   3.709   3.932 -1.2606 -2.4256 -0.6553
 2618SOL    HW2 8433   9.276   3.730   3.840 -0.2038 -0.9077  0.9618
 2619SOL     OW 8434   6.222   6.164   4.222  0.1447  0.2507  0.9156
 2619SOL    HW1 8435   6.276   6.148   4.145  0.4008  3.0946  0.4157
 2619SOL    HW2 8436   6.284   6.181   4.292 -0.1058 -1.3319  1.5583
 2620SOL     OW 8437   4.212   6.503   4.812 -0.2994  0.3607  0.4131
 2620SOL    HW1 8438   4.157   6.482   4.736 -1.2457 -0.6693  1.3380
 2620SOL    HW2 8439   4.298   6.468   4.789 -0.8658 -1.0230  0.2601
 2621SOL     OW 8440   4.246   0.296   2.674  0.0318  0.0969 -0.7102
 2621SOL    HW1 8441   4.319   0.254   2.629 -0.5982 -0.5595 -1.1457
 2621SOL    HW2 8442   4.287   0.360   2.732  1.1868 -2.4071  1.4396
 2622SOL     OW 8443   1.305   2.251   9.637 -0.1555  0.7658 -0.2238
 2622SOL    HW1 8444   1.337   2.184   9.576 -0.3336  1.4796 -1.1298
 2622SOL    HW2 8445   1.288   2.327   9.582 -1.1774  1.1515  0.5890
 2623SOL     OW 8446   3.701   5.687   3.029 -0.1458  0.3048 -0.1887
 2623SOL    HW1 8447   3.794   5.668   3.029 -0.4003 -1.0170 -0.2205
 2623SOL    HW2 8448   3.665   5.632   3.099 -1.0027  0.2540 -0.6563
 2624SOL     OW 8449   7.107   6.336   0.955 -0.2842 -0.0023 -0.0648
 2624SOL    HW1 8450   7.144   6.260   1.001 -0.2917 -1.6174 -2.5460
 2624SOL    HW2 8451   7.162   6.347   0.878 -1.6854  1.0680 -0.9621
 2625SOL     OW 8452   1.394   6.352   6.828  0.0923  0.5928 -0.6056
 2625SOL    HW1 8453   1.412   6.258   6.829 -0.5738  0.4378  1.0377
 2625SOL    HW2 8454   1.312   6.361   6.780  0.1693  0.3238 -0.7840
 2626SOL     OW 8455   1.200   9.865   3.461 -0.0870 -0.9045 -0.7248
 2626SOL    HW1 8456   1.254   9.910   3.396 -1.5485  0.3890 -1.1188
 2626SOL    HW2 8457   1.254   9.793   3.492  3.6045  2.5249  1.9074
 2627SOL     OW 8458   2.847   5.733   2.217 -0.4388  0.2609  0.1012
 2627SOL    HW1 8459   2.893   5.781   2.148 -1.0560 -0.2890 -0.7113
 2627SOL    HW2 8460   2.831   5.646   2.180 -1.2318  0.1136  0.7534
 2628SOL     OW 8461   0.175   6.153   3.456 -0.0629 -0.1534  0.6800
 2628SOL    HW1 8462   0.209   6.218   3.519  0.7334  0.1260 -0.0162
 2628SOL    HW2 8463   0.085   6.136   3.485  0.5587 -0.6964  2.4243
 2629SOL     OW 8464   4.784   2.614   1.893 -0.0045  0.5152  0.3024
 2629SOL    HW1 8465   4.805   2.629   1.801  1.0442  0.3783  0.5117
 2629SOL    HW2 8466   4.848   2.666   1.941 -0.3554  0.3482  0.9648
 2630SOL     OW 8467   7.818   0.159   4.872 -0.1647 -0.0987 -0.2185
 2630SOL    HW1 8468   7.825   0.077   4.823 -2.6393 -0.0741 -0.7085
 2630SOL    HW2 8469   7.835   0.227   4.807  1.3140 -0.1496  0.0672
 2631SOL     OW 8470   2.275   7.076   1.967  0.1132  0.2764 -0.0207
 2631SOL    HW1 8471   2.209   7.030   1.916 -2.0195  2.1897  0.8361
 2631SOL    HW2 8472   2.313   7.140   1.906 -0.4332  0.6638  0.0365
 2632SOL     OW 8473   2.026   3.532   6.103  0.4501  0.0894 -0.2017
 2632SOL    HW1 8474   2.119   3.516   6.092  0.6190  1.5106 -1.0605
 2632SOL    HW2 8475   1.991   3.450   6.138  1.8910 -0.6950 -0.5521
 2633SOL     OW 8476   6.630   3.142   6.110  0.0835 -0.0472  0.3166
 2633SOL    HW1 8477   6.563   3.206   6.133 -1.1852  0.0105 -3.0502
 2633SOL    HW2 8478   6.679   3.183   6.039  1.7268 -1.3427  0.6461
 2634SOL     OW 8479   8.008   8.340   0.043 -0.1819  0.1585 -0.0570
 2634SOL    HW1 8480   7.918   8.372   0.052 -0.1278 -0.2000  2.2574
 2634SOL    HW2 8481   7.998   8.250   0.012 -0.7342 -0.3944  1.6258
 2635SOL     OW 8482   1.692   7.325   2.651  0.2042  0.1245  0.0569
 2635SOL    HW1 8483   1.677   7.244   2.603  2.3239 -0.9317  1.0559
 2635SOL    HW2 8484   1.787   7.336   2.652  0.0776  1.6199  1.5753
 2636SOL     OW 8485   7.198   0.624   0.450  0.2304 -0.3592  1.0416
 2636SOL    HW1 8486   7.219   0.537   0.485  2.0849 -0.3774  0.0393
 2636SOL    HW2 8487   7.254   0.632   0.373  0.8547  2.1297  1.6850
 2637SOL     OW 8488   1.971   5.297   5.730  0.3584 -0.5245 -0.6428
 2637SOL    HW1 8489   2.006   5.216   5.767  0.9247  0.0580  0.1276
 2637SOL    HW2 8490   1.957   5.277   5.637 -0.8586 -1.9402 -0.1942
 2638SOL     OW 8491   9.231   9.525   1.257  0.4428 -0.1517  0.4803
 2638SOL    HW1 8492   9.182   9.592   1.305  2.4936  1.1833  0.8284
 2638SOL    HW2 8493   9.249   9.456   1.321  0.2499  0.0200  0.7179
 2639SOL     OW 8494   3.594   1.865   7.589  0.2383 -0.2824 -0.0299
 2639SOL    HW1 8495   3.502   1.874   7.563  0.0482 -1.9339 -0.0271
 2639SOL    HW2 8496   3.619   1.952   7.619 -0.8526  0.5975 -1.5471
 2640SOL     OW 8497   5.200   2.744   8.947  0.0495 -0.1785  0.5282
 2640SOL    HW1 8498   5.273   2.798   8.917 -1.6826  1.5419 -0.7692
 2640SOL    HW2 8499   5.160   2.712   8.866 -1.3341 -0.1411  1.1861
 2641SOL     OW 8500   6.591   1.830   0.534  0.6485 -0.4480  0.2831
 2641SOL    HW1 8501   6.627   1.897   0.592  2.3232 -0.2490 -0.8935
 2641SOL    HW2 8502   6.497   1.845   0.535  0.8935  1.3127  0.7965
 2642SOL     OW 8503   2.308   2.023   6.973  0.2544  0.0756  0.0938
 2642SOL    HW1 8504   2.266   2.058   6.894  1.2583 -1.5017 -1.2036
 2642SOL    HW2 8505   2.401   2.041   6.960  0.5943 -1.4921  0.2029
 2643SOL     OW 8506   5.710   9.849   8.803  0.4811  0.1801  0.1529
 2643SOL    HW1 8507   5.621   9.831   8.833 -0.3521 -0.8771 -2.6129
 2643SOL    HW2 8508   5.765   9.829   8.878 -1.1776 -4.9487  0.3916
 2644SOL     OW 8509   6.500   1.989   2.839  0.0101 -0.2464  0.2752
 2644SOL    HW1 8510   6.543   1.915   2.884 -0.2430 -0.3568  0.3395
 2644SOL    HW2 8511   6.444   2.027   2.906 -1.1460 -1.0320 -0.2158
 2645SOL     OW 8512   7.165   9.641   2.290 -0.1790 -0.2507 -0.8126
 2645SOL    HW1 8513   7.249   9.612   2.254  0.5459  0.5475  0.1792
 2645SOL    HW2 8514   7.181   9.731   2.319 -0.9848 -0.5435  0.6355
 2646SOL     OW 8515   5.659   3.137   9.344  0.5138  0.0750 -0.3521
 2646SOL    HW1 8516   5.742   3.099   9.371 -0.7747 -0.9859  2.5182
 2646SOL    HW2 8517   5.652   3.218   9.394  0.3574  0.8605 -1.5920
 2647SOL     OW 8518   3.550   4.361   6.468  0.5072 -0.2881  0.4447
 2647SOL    HW1 8519   3.470   4.371   6.416  0.5976  1.3605  0.5787
 2647SOL    HW2 8520   3.587   4.278   6.438 -1.7348 -1.6115  1.0649
 2648SOL     OW 8521   9.151   2.514   8.848  0.0401 -0.0011  0.6415
 2648SOL    HW1 8522   9.105   2.587   8.891 -0.9203 -0.6815  0.8141
 2648SOL    HW2 8523   9.183   2.460   8.920 -1.5489 -1.1288  0.5488
 2649SOL     OW 8524   8.993   0.367   1.015  0.0794  0.3130 -0.4847
 2649SOL    HW1 8525   9.000   0.370   0.920 -0.8913 -0.3885 -0.5962
 2649SOL    HW2 8526   9.068   0.313   1.042  0.6537  0.9379 -0.7973
 2650SOL     OW 8527   2.354   3.668   4.413 -0.2582 -0.1456  0.5732
 2650SOL    HW1 8528   2.291   3.733   4.380 -0.0422 -0.0027  0.4357
 2650SOL    HW2 8529   2.383   3.703   4.497  0.7047  0.5206 -0.0063
 2651SOL     OW 8530   3.694   9.835   2.841 -0.4095  0.4125 -0.3787
 2651SOL    HW1 8531   3.601   9.856   2.829 -0.1274  0.2003 -3.9542
 2651SOL    HW2 8532   3.740   9.894   2.782  1.4998 -1.2558 -0.6466
 2652SOL     OW 8533   9.438   4.402   6.816 -0.2788 -0.0889  0.3767
 2652SOL    HW1 8534   9.496   4.363   6.751  0.2668 -1.6190  1.7197
 2652SOL    HW2 8535   9.357   4.351   6.810 -0.5381  0.3205  0.3291
 2653SOL     OW 8536   3.503   7.331   7.435 -0.2874  0.3271  0.0331
 2653SOL    HW1 8537   3.477   7.281   7.358 -0.0117  0.8767 -0.4199
 2653SOL    HW2 8538   3.492   7.423   7.409  0.9219  0.5430  0.2471
 2654SOL     OW 8539   1.995   9.598   1.846 -0.0609 -0.4905 -0.4784
 2654SOL    HW1 8540   2.020   9.509   1.819  0.3883 -0.0877 -1.4285
 2654SOL    HW2 8541   1.920   9.584   1.904 -0.3628 -1.4635 -1.0658
 2655SOL     OW 8542   9.525   0.552   5.101 -0.1611  0.6517  0.2904
 2655SOL    HW1 8543   9.548   0.502   5.023 -0.1481 -1.5767  1.6350
 2655SOL    HW2 8544   9.447   0.508   5.136  1.1767  0.0496  2.7804
 2656SOL     OW 8545   4.983   1.865   5.605 -0.8748  0.3709 -0.2336
 2656SOL    HW1 8546   4.897   1.848   5.644 -0.7777 -1.2151 -0.6374
 2656SOL    HW2 8547   4.971   1.846   5.512 -0.5419  1.9800 -0.6400
 2657SOL     OW 8548   6.386   6.839   9.515 -0.2872  0.4480 -1.0139
 2657SOL    HW1 8549   6.417   6.829   9.425  1.7117  0.2395 -0.3658
 2657SOL    HW2 8550   6.439   6.776   9.565 -1.3154  0.5961  0.3172
 2658SOL     OW 8551   3.216   8.038   0.757  0.4510  0.2201 -0.1345
 2658SOL    HW1 8552   3.135   8.075   0.790 -0.1716 -0.8306 -0.4303
 2658SOL    HW2 8553   3.245   8.098   0.689  0.6540  1.3132  0.8924
 2659SOL     OW 8554   6.735   5.796   4.447  0.2277 -0.1631 -0.7915
 2659SOL    HW1 8555   6.675   5.834   4.511 -0.0962  0.2716 -1.3363
 2659SOL    HW2 8556   6.770   5.872   4.400 -0.6762 -0.5295 -2.1258
 2660SOL     OW 8557   6.320   1.218   8.446 -0.1173  0.2700 -0.0409
 2660SOL    HW1 8558   6.393   1.280   8.449  0.8182 -0.8461  1.2579
 2660SOL    HW2 8559   6.279   1.224   8.533  0.9128 -1.9375  0.6780
 2661SOL     OW 8560   2.176   7.395   5.125 -0.4216 -0.2365  0.0485
 2661SOL    HW1 8561   2.085   7.424   5.116 -0.4530 -0.4758 -0.4387
 2661SOL    HW2 8562   2.228   7.472   5.102 -0.5068 -0.3023 -0.3848
 2662SOL     OW 8563   5.495   5.712   6.366  0.1838 -0.0650 -0.3054
 2662SOL    HW1 8564   5.569   5.699   6.425  0.6316 -1.2959 -1.0928
 2662SOL    HW2 8565   5.418   5.696   6.420  0.4726  1.2462  0.5267
 2663SOL     OW 8566   7.794   4.029   3.309 -0.7423  0.1112  0.6894
 2663SOL    HW1 8567   7.883   4.064   3.305 -1.3807  1.7170 -0.5764
 2663SOL    HW2 8568   7.803   3.936   3.285  0.7554 -0.1493  2.1453
 2664SOL     OW 8569   0.710   5.866   8.012  0.2239  0.1203 -0.0457
 2664SOL    HW1 8570   0.636   5.819   8.050 -0.3020  0.9302 -0.0451
 2664SOL    HW2 8571   0.671   5.919   7.942  1.1031 -0.9962 -1.4233
 2665SOL     OW 8572   7.949   3.625   1.973  0.5079  0.2829  0.8348
 2665SOL    HW1 8573   7.911   3.651   1.890 -1.3290  0.5567  1.7134
 2665SOL    HW2 8574   7.991   3.705   2.006  0.7306  0.3237  0.4608
 2666SOL     OW 8575   0.530   1.949   2.593  0.3376 -0.3645 -0.1655
 2666SOL    HW1 8576   0.564   1.908   2.673  1.7628 -1.1490 -1.1185
 2666SOL    HW2 8577   0.487   1.878   2.546 -0.7922  0.1668  0.0256
 2667SOL     OW 8578   1.853   7.926   5.894 -0.1102 -0.0596  0.0300
 2667SOL    HW1 8579   1.895   7.961   5.815 -0.2853 -0.4795 -0.2537
 2667SOL    HW2 8580   1.843   7.833   5.876  0.5561 -0.2994  0.8724
 2668SOL     OW 8581   6.196   7.531   5.151 -0.0838  0.4895  0.2707
 2668SOL    HW1 8582   6.167   7.610   5.197  0.1622 -0.0482  1.3651
 2668SOL    HW2 8583   6.191   7.462   5.216  2.1665  0.0759  0.0820
 2669SOL     OW 8584   3.620   2.552   6.860  0.0697 -0.2087  0.5174
 2669SOL    HW1 8585   3.671   2.495   6.803  1.4815  1.5151 -0.0240
 2669SOL    HW2 8586   3.624   2.638   6.819 -0.4220  0.6994  2.2652
 2670SOL     OW 8587   6.972   0.016   9.591 -0.6318 -0.6980 -0.2176
 2670SOL    HW1 8588   7.031   0.066   9.648 -0.9833  0.4052 -0.7881
 2670SOL    HW2 8589   6.890   0.011   9.640 -1.1569  0.8652 -0.8874
 2671SOL     OW 8590   2.206   1.297   5.048 -0.6882  0.4162  0.4244
 2671SOL    HW1 8591   2.228   1.379   5.003 -0.0019 -0.9690 -1.9355
 2671SOL    HW2 8592   2.266   1.294   5.122 -0.0927  1.6052  0.0182
 2672SOL     OW 8593   9.388   5.565   0.431  0.0218  0.5465 -0.0726
 2672SOL    HW1 8594   9.475   5.604   0.441  0.7553 -1.1850  0.7687
 2672SOL    HW2 8595   9.330   5.623   0.479  0.4334  2.4775 -1.7661
 2673SOL     OW 8596   6.337   4.156   6.646  0.0701 -0.1132 -0.0998
 2673SOL    HW1 8597   6.305   4.092   6.710  0.8083 -1.1679 -0.7492
 2673SOL    HW2 8598   6.430   4.135   6.636 -0.4047 -1.3291 -2.9939
 2674SOL     OW 8599   8.399   9.126   6.018 -0.3115  0.2943  0.3263
 2674SOL    HW1 8600   8.466   9.066   5.985 -1.2079 -0.0165 -1.0057
 2674SOL    HW2 8601   8.349   9.074   6.081  0.9854  0.6835  1.7237
 2675SOL     OW 8602   0.170   7.641   7.318  0.6018 -0.0279 -0.4914
 2675SOL    HW1 8603   0.074   7.638   7.316  0.5249  1.6137 -2.4931
 2675SOL    HW2 8604   0.191   7.720   7.368  0.8725  0.1274 -0.8432
 2676SOL     OW 8605   9.286   0.228  -0.000 -0.5247  0.2551  0.2041
 2676SOL    HW1 8606   9.312   0.185   0.081 -0.2608  0.7907  0.4035
 2676SOL    HW2 8607   9.367   0.244  -0.047 -0.7675 -1.3206 -0.8289
 2677SOL     OW 8608   6.528   3.930   5.191 -0.3185  0.1944 -0.2741
 2677SOL    HW1 8609   6.535   3.901   5.100 -0.5722  1.0939 -0.5919
 2677SOL    HW2 8610   6.604   3.987   5.204 -0.3348  0.1422  0.0500
 2678SOL     OW 8611   4.002   6.496   3.252  0.5597  0.2995 -0.6681
 2678SOL    HW1 8612   3.921   6.542   3.227  1.4124  1.3064 -1.6818
 2678SOL    HW2 8613   4.031   6.453   3.172 -0.0083 -1.7852  0.1686
 2679SOL     OW 8614   6.930   2.963   0.998  0.0187 -0.0326  0.0078
 2679SOL    HW1 8615   6.935   2.887   0.940  2.1443 -0.0287  0.1253
 2679SOL    HW2 8616   6.971   2.934   1.080  2.0539  1.5552 -0.3704
 2680SOL     OW 8617   4.054   4.481   3.516 -0.0794  0.3016 -0.5607
 2680SOL    HW1 8618   4.017   4.510   3.433 -1.8013 -1.7373 -0.5895
 2680SOL    HW2 8619   4.078   4.390   3.502  1.0167  0.3416  0.7642
 2681SOL     OW 8620   4.351   1.024   6.604  0.6941 -0.9430 -0.0642
 2681SOL    HW1 8621   4.407   1.012   6.527  0.4363  0.3584 -0.4846
 2681SOL    HW2 8622   4.384   1.104   6.645 -2.1383  1.2017 -1.5788
 2682SOL     OW 8623   9.095   3.193   3.946 -0.0431  0.5658 -0.3285
 2682SOL    HW1 8624   9.014   3.176   3.994  0.0929  0.8051 -0.0125
 2682SOL    HW2 8625   9.130   3.273   3.985  0.4186  0.3847 -0.3584
 2683SOL     OW 8626   9.495   9.604   3.175 -0.0121  0.2984  0.0007
 2683SOL    HW1 8627   9.574   9.593   3.123  0.5259  2.6115  0.2094
 2683SOL    HW2 8628   9.498   9.533   3.239  0.4661 -1.2436 -1.6632
 2684SOL     OW 8629   8.572   2.871   4.797  0.1372 -0.0925  0.6410
 2684SOL    HW1 8630   8.487   2.865   4.841  0.1130 -0.4090  0.5534
 2684SOL    HW2 8631   8.563   2.816   4.720  0.1591  0.5150  0.1964
 2685SOL     OW 8632   7.965   6.767   1.562 -0.4998  0.0693 -0.0002
 2685SOL    HW1 8633   8.007   6.823   1.496 -1.0253 -0.0359 -0.4355
 2685SOL    HW2 8634   8.032   6.753   1.628 -0.0194  0.3342 -0.4236
 2686SOL     OW 8635   4.393   0.018   8.627 -0.5303  0.2252  0.2152
 2686SOL    HW1 8636   4.485   0.018   8.602 -0.8572  0.3534 -1.0954
 2686SOL    HW2 8637   4.372   0.110   8.643 -0.4824  0.2240  0.2823
 2687SOL     OW 8638   8.049   5.494   4.970 -0.0649 -0.2091 -0.0628
 2687SOL    HW1 8639   8.094   5.577   4.982  0.2873 -0.5463  1.1038
 2687SOL    HW2 8640   8.014   5.473   5.057 -1.2177 -0.6738 -0.6257
 2688SOL     OW 8641   3.353   0.529   8.735  0.4279 -0.1398  0.2548
 2688SOL    HW1 8642   3.405   0.511   8.814  0.6496  0.1401  0.1725
 2688SOL    HW2 8643   3.361   0.449   8.683 -1.3795 -1.1415  1.4176
 2689SOL     OW 8644   3.177   6.530   7.215 -0.0891  0.1459 -0.2923
 2689SOL    HW1 8645   3.204   6.566   7.299  0.4666 -1.7644  0.3841
 2689SOL    HW2 8646   3.081   6.530   7.218 -0.0663 -0.3859  0.5468
 2690SOL     OW 8647   6.466   0.415   9.213  0.0850 -0.1669 -0.4631
 2690SOL    HW1 8648   6.463   0.503   9.251 -1.2919 -0.1580 -0.5605
 2690SOL    HW2 8649   6.507   0.428   9.127  0.9039  0.1937 -0.0331
 2691SOL     OW 8650   6.786   1.054   2.711 -0.0486 -0.3764  0.2867
 2691SOL    HW1 8651   6.780   1.146   2.738  1.2447 -0.2275  0.0974
 2691SOL    HW2 8652   6.723   1.047   2.638 -2.1526 -0.3258  2.0017
 2692SOL     OW 8653   9.972   5.214   0.496 -0.5715 -0.0383  0.3223
 2692SOL    HW1 8654   9.890   5.227   0.450 -0.1667 -2.2085 -1.2022
 2692SOL    HW2 8655  10.038   5.257   0.441 -0.4587  0.0414  0.5181
 2693SOL     OW 8656   0.627   4.413   1.525  0.3315 -0.2581  0.2868
 2693SOL    HW1 8657   0.553   4.363   1.492  1.4852 -1.5356 -0.4762
 2693SOL    HW2 8658   0.676   4.351   1.579 -0.5780  1.3082  3.1259
 2694SOL     OW 8659   8.862   0.897   0.870 -0.1644 -0.6350 -0.2032
 2694SOL    HW1 8660   8.888   0.925   0.782  1.8343 -2.8673 -0.4201
 2694SOL    HW2 8661   8.800   0.826   0.855 -0.1185 -0.7607  0.1848
 2695SOL     OW 8662   9.885   8.682   6.490  0.1335  0.2745 -0.1544
 2695SOL    HW1 8663   9.900   8.719   6.403 -0.4281  0.5023 -0.1532
 2695SOL    HW2 8664   9.826   8.744   6.533 -1.1833 -0.8211 -0.3107
 2696SOL     OW 8665   7.193   3.585   4.416 -0.2393 -0.7041 -0.0566
 2696SOL    HW1 8666   7.257   3.654   4.397  0.1301 -1.1292 -0.3737
 2696SOL    HW2 8667   7.185   3.586   4.512  0.4442 -0.8229  0.0102
 2697SOL     OW 8668   2.400   7.562   4.324 -0.1684 -0.1824  0.2222
 2697SOL    HW1 8669   2.316   7.538   4.286  0.0961  2.0193 -2.0151
 2697SOL    HW2 8670   2.379   7.630   4.388 -0.1206  0.3436 -0.3127
 2698SOL     OW 8671   4.393   4.720   8.812  0.0704 -0.4342 -0.1266
 2698SOL    HW1 8672   4.450   4.793   8.789  1.3961 -1.2091  0.5747
 2698SOL    HW2 8673   4.380   4.672   8.730 -2.0705  1.3569 -0.9452
 2699SOL     OW 8674   8.200   9.408   8.669 -0.2891  0.0539  0.4669
 2699SOL    HW1 8675   8.161   9.340   8.614 -1.1003  1.4044 -0.6754
 2699SOL    HW2 8676   8.172   9.385   8.758  1.1744 -2.2490  0.4231
 2700SOL     OW 8677   2.314   6.654   8.664  0.2305 -0.1400 -0.4877
 2700SOL    HW1 8678   2.395   6.632   8.619 -0.3541 -2.7073 -0.4284
 2700SOL    HW2 8679   2.277   6.727   8.614  0.3137 -1.9225 -3.3483
 2701SOL     OW 8680   5.129   9.280   6.982 -0.0828 -0.0209  0.2329
 2701SOL    HW1 8681   5.200   9.344   6.970 -0.0394  0.2980  2.0056
 2701SOL    HW2 8682   5.158   9.203   6.934 -0.0966  1.2265 -1.9067
 2702SOL     OW 8683   5.356   1.071   1.771 -0.1852  0.4117  0.0701
 2702SOL    HW1 8684   5.308   1.049   1.851  1.5721 -1.1010  0.8085
 2702SOL    HW2 8685   5.289   1.087   1.705 -1.6866  1.2640  1.7148
 2703SOL     OW 8686   5.512   4.896   5.531 -0.5174  0.0064  0.2578
 2703SOL    HW1 8687   5.543   4.806   5.525 -1.0518 -0.1187 -0.8863
 2703SOL    HW2 8688   5.580   4.948   5.489 -1.3624 -0.1671 -1.4066
 2704SOL     OW 8689   5.303   5.163   3.558 -0.4880  0.2150  0.4852
 2704SOL    HW1 8690   5.372   5.225   3.535 -0.9814  0.6570  0.1687
 2704SOL    HW2 8691   5.308   5.156   3.653  0.6856 -0.5876  0.3818
 2705SOL     OW 8692   1.813   3.737   3.063 -0.9607 -0.4195 -0.0328
 2705SOL    HW1 8693   1.820   3.654   3.108  1.2652 -0.7164 -0.7857
 2705SOL    HW2 8694   1.815   3.715   2.970 -1.7105  0.4085 -0.2694
 2706SOL     OW 8695   8.167   0.636   7.716  0.5666  0.2231  0.2731
 2706SOL    HW1 8696   8.239   0.619   7.777  1.1477  0.3469 -0.3689
 2706SOL    HW2 8697   8.184   0.723   7.681 -0.6427  0.8400  1.1227
 2707SOL     OW 8698   1.997   7.319   9.788 -0.1574 -0.8620 -0.1511
 2707SOL    HW1 8699   1.912   7.306   9.831  0.3484 -0.5372  0.9852
 2707SOL    HW2 8700   2.053   7.251   9.827  0.5133 -0.0720  0.2855
 2708SOL     OW 8701   0.770   0.977   0.381  0.0578  0.1056 -0.1793
 2708SOL    HW1 8702   0.840   1.017   0.330 -1.0492  1.7166 -0.5036
 2708SOL    HW2 8703   0.815   0.931   0.452  1.5513 -1.0354 -1.7869
 2709SOL     OW 8704   7.858   2.291   6.892  0.2399 -0.0151 -0.1797
 2709SOL    HW1 8705   7.769   2.263   6.911  1.4038 -2.7418  2.2104
 2709SOL    HW2 8706   7.860   2.305   6.798 -2.2055 -2.0439 -0.6476
 2710SOL     OW 8707   0.432   2.631   7.846 -0.1468  0.0259 -0.5785
 2710SOL    HW1 8708   0.446   2.560   7.783 -0.0889  0.1650 -0.7236
 2710SOL    HW2 8709   0.445   2.590   7.931 -0.9748 -0.3454 -0.6178
 2711SOL     OW 8710   2.551   1.448   0.634 -0.1925 -0.1332 -0.8860
 2711SOL    HW1 8711   2.527   1.509   0.565 -1.2017 -1.1460 -1.4617
 2711SOL    HW2 8712   2.474   1.444   0.691 -0.1012 -0.7720 -0.7991
 2712SOL     OW 8713   4.949   4.851   2.497 -0.8673 -0.8056  0.0861
 2712SOL    HW1 8714   4.964   4.762   2.528 -0.7217 -1.2423 -1.2001
 2712SOL    HW2 8715   4.855   4.865   2.510 -1.0331 -1.4274 -0.4250
 2713SOL     OW 8716   2.045   3.809   9.943 -0.5360  0.0303  0.4627
 2713SOL    HW1 8717   2.087   3.821   9.857 -1.9494 -0.3248 -0.3091
 2713SOL    HW2 8718   2.018   3.717   9.943  1.7677 -0.7536  2.4178
 2714SOL     OW 8719   2.136   7.398   9.035 -0.6644  0.2983 -0.4904
 2714SOL    HW1 8720   2.161   7.314   8.996 -0.2641  0.3785 -0.4148
 2714SOL    HW2 8721   2.187   7.462   8.986 -0.3726  0.4261 -0.0225
 2715SOL     OW 8722   4.834   9.395   7.260 -0.1844  0.1979 -0.4564
 2715SOL    HW1 8723   4.830   9.356   7.172 -1.5624  0.7257 -0.6403
 2715SOL    HW2 8724   4.775   9.343   7.313 -1.9756  1.8993 -0.6785
 2716SOL     OW 8725   5.374   6.720   9.468 -0.1875 -0.1820  0.0765
 2716SOL    HW1 8726   5.470   6.711   9.468 -0.2449 -0.8878 -0.6745
 2716SOL    HW2 8727   5.342   6.632   9.486 -0.7046  0.3334  1.8816
 2717SOL     OW 8728   9.472   4.498   9.811  0.0975  0.1193 -0.1891
 2717SOL    HW1 8729   9.400   4.447   9.848 -0.1000 -0.5477 -1.4371
 2717SOL    HW2 8730   9.526   4.433   9.766  0.5137  0.8536 -0.7626
 2718SOL     OW 8731   4.862   7.812   0.021  0.3714 -0.2119  0.1660
 2718SOL    HW1 8732   4.836   7.814  -0.071  1.5189  0.0538 -0.1738
 2718SOL    HW2 8733   4.781   7.793   0.069 -0.8178  2.3919 -0.6494
 2719SOL     OW 8734   0.029   4.393   2.326 -0.2030  0.0153  0.1306
 2719SOL    HW1 8735   0.124   4.391   2.316 -0.0792  0.8981  0.9830
 2719SOL    HW2 8736   0.012   4.470   2.380 -1.0817 -2.2409  3.3872
 2720SOL     OW 8737   6.529   0.399   1.767 -0.0732 -0.0962  0.1132
 2720SOL    HW1 8738   6.515   0.430   1.678  1.5836  0.2571 -0.0619
 2720SOL    HW2 8739   6.549   0.478   1.817  3.2610 -0.6159 -0.1471
 2721SOL     OW 8740   9.490   6.078   0.533 -0.3296 -0.0455  0.2110
 2721SOL    HW1 8741   9.478   6.051   0.624  1.1135  0.5606  0.5998
 2721SOL    HW2 8742   9.584   6.076   0.519 -0.5113  0.1452 -1.1961
 2722SOL     OW 8743   0.473   0.402   4.150  0.2510  0.8855  0.1306
 2722SOL    HW1 8744   0.450   0.451   4.229  0.2874  0.2998  0.5107
 2722SOL    HW2 8745   0.530   0.332   4.181 -0.9922 -0.3024 -0.1699
 2723SOL     OW 8746   7.846   1.910   1.417 -0.0339 -0.3762  0.2070
 2723SOL    HW1 8747   7.800   1.885   1.337  0.2248 -0.8740  0.2072
 2723SOL    HW2 8748   7.935   1.931   1.389  0.1479 -0.8677  0.4010
 2724SOL     OW 8749   6.543   2.636   3.607  0.4857 -0.8631  0.2479
 2724SOL    HW1 8750   6.492   2.569   3.652  0.8703 -0.3502  1.4973
 2724SOL    HW2 8751   6.634   2.611   3.624  0.6320 -0.6053 -0.1650
 2725SOL     OW 8752  -0.015   6.243   3.812 -0.1198 -0.2272  0.4131
 2725SOL    HW1 8753   0.060   6.186   3.830 -0.3994 -0.9055 -0.4900
 2725SOL    HW2 8754   0.024   6.322   3.773  0.1848 -0.1988  0.7630
 2726SOL     OW 8755   4.490   3.702   5.611 -0.3989 -0.5834 -0.2090
 2726SOL    HW1 8756   4.548   3.737   5.543 -1.0929 -1.7400 -1.4549
 2726SOL    HW2 8757   4.422   3.655   5.562 -2.6087  1.0126  1.1679
 2727SOL     OW 8758   6.981   0.602   1.520 -0.0256 -0.0393 -0.3560
 2727SOL    HW1 8759   7.028   0.534   1.568  1.4987  0.3842 -1.1903
 2727SOL    HW2 8760   6.901   0.617   1.571  0.8149 -0.6504  1.1923
 2728SOL     OW 8761   0.437  -0.024   1.853  0.3561  0.1090  0.3829
 2728SOL    HW1 8762   0.441   0.011   1.942 -0.9160 -0.5162  0.7006
 2728SOL    HW2 8763   0.398   0.046   1.801  2.5749  1.1179 -0.0676
 2729SOL     OW 8764   6.316   1.269   0.330 -0.1102  0.3696  0.1651
 2729SOL    HW1 8765   6.304   1.292   0.423 -0.6893 -0.9320  0.4281
 2729SOL    HW2 8766   6.358   1.183   0.332 -0.0580  0.3709 -0.7859
 2730SOL     OW 8767   5.096   2.347   4.236  0.0821  0.1919  0.2511
 2730SOL    HW1 8768   5.143   2.267   4.259  0.9336  0.2793 -1.0923
 2730SOL    HW2 8769   5.125   2.412   4.300 -0.1923 -0.4186  1.0039
 2731SOL     OW 8770   1.772   0.471   9.553  0.1146  0.2125  0.0965
 2731SOL    HW1 8771   1.781   0.565   9.569 -1.2927 -0.1444  4.1060
 2731SOL    HW2 8772   1.843   0.431   9.603 -0.2792 -0.9269 -0.2123
 2732SOL     OW 8773   6.811   8.686   6.975 -0.2055  0.3957 -0.1524
 2732SOL    HW1 8774   6.775   8.653   6.892 -0.3985 -1.5416  0.6647
 2732SOL    HW2 8775   6.736   8.724   7.020 -0.2947  0.5559 -0.4293
 2733SOL     OW 8776   1.259   0.052   4.206 -0.4289 -0.1153 -0.1583
 2733SOL    HW1 8777   1.182   0.020   4.158 -0.0743 -1.2574  0.0145
 2733SOL    HW2 8778   1.287   0.130   4.157 -0.3117 -1.0259 -1.5819
 2734SOL     OW 8779   6.229   1.104   2.497 -0.3315 -0.5432 -0.1932
 2734SOL    HW1 8780   6.235   1.084   2.591 -0.7787 -0.2189 -0.0946
 2734SOL    HW2 8781   6.201   1.195   2.493  1.3760  0.0124 -0.6436
 2735SOL     OW 8782   6.885   4.353   5.379 -0.1683 -0.1292 -0.0891
 2735SOL    HW1 8783   6.905   4.441   5.346 -0.1190 -0.5529 -1.2408
 2735SOL    HW2 8784   6.961   4.301   5.353 -0.4507 -0.6379  0.1012
 2736SOL     OW 8785   9.634   6.984   8.741  0.6260 -0.2693  0.1147
 2736SOL    HW1 8786   9.653   7.064   8.791  0.1978  0.5419 -0.9789
 2736SOL    HW2 8787   9.572   7.013   8.674  2.0570 -1.0713 -1.6266
 2737SOL     OW 8788   5.204   0.690   5.871  0.2835 -0.2235  0.0491
 2737SOL    HW1 8789   5.296   0.692   5.843  0.0186  0.3186 -0.8546
 2737SOL    HW2 8790   5.155   0.686   5.789 -0.5194  0.6354  0.4731
 2738SOL     OW 8791   4.384   8.452   3.212  0.0286 -0.2627  0.6634
 2738SOL    HW1 8792   4.476   8.477   3.216  0.3325 -1.2870  0.2950
 2738SOL    HW2 8793   4.349   8.473   3.298  0.6094  0.1004  0.8141
 2739SOL     OW 8794   6.150   7.785   0.447  0.3812 -0.1873  0.2406
 2739SOL    HW1 8795   6.075   7.842   0.464  1.9952  1.8640  0.9210
 2739SOL    HW2 8796   6.214   7.808   0.514  2.1168 -0.9326 -1.0723
 2740SOL     OW 8797   2.466   1.004   2.041  0.2226  0.3068  0.0385
 2740SOL    HW1 8798   2.420   0.924   2.068  0.5358 -0.7102 -2.2260
 2740SOL    HW2 8799   2.403   1.074   2.057 -0.1444 -0.3818  1.8612
 2741SOL     OW 8800   0.338   2.726   5.771  0.5884  0.3034  0.2202
 2741SOL    HW1 8801   0.356   2.697   5.860 -1.3366 -0.2935  0.4614
 2741SOL    HW2 8802   0.303   2.649   5.727  0.2654  0.9419 -0.6678
 2742SOL     OW 8803   1.574   3.771   6.024 -0.2275  0.5775 -0.3834
 2742SOL    HW1 8804   1.666   3.754   6.047 -0.0347  0.2136 -1.3591
 2742SOL    HW2 8805   1.541   3.827   6.095  0.3301 -0.4663  0.7251
 2743SOL     OW 8806   9.800   9.954   2.892 -0.1547 -0.1584  0.5196
 2743SOL    HW1 8807   9.821   9.924   2.981  0.3626 -1.2440  0.0464
 2743SOL    HW2 8808   9.718   9.909   2.871 -1.1856  1.3885  1.0501
 2744SOL     OW 8809   9.041   4.853   2.531 -0.2095 -0.5780  0.2434
 2744SOL    HW1 8810   9.113   4.917   2.524 -0.4843 -0.1566  1.1553
 2744SOL    HW2 8811   9.085   4.768   2.525  0.2270 -0.3150 -0.4210
 2745SOL     OW 8812   3.068   0.301   8.028  0.7144 -0.2407 -0.6825
 2745SOL    HW1 8813   3.049   0.251   7.949 -3.5434 -1.2480  0.7241
 2745SOL    HW2 8814   3.080   0.391   7.997 -1.9209 -0.4141 -2.5225
 2746SOL     OW 8815   1.580   2.953   2.541 -0.2496 -0.5849 -0.6986
 2746SOL    HW1 8816   1.643   2.963   2.612 -1.2990 -0.7246  0.2716
 2746SOL    HW2 8817   1.613   2.878   2.490  0.6406 -0.3277 -0.5288
 2747SOL     OW 8818   5.064   2.749   7.189 -0.3222 -0.2173  0.1243
 2747SOL    HW1 8819   5.141   2.726   7.137 -0.0044 -1.5107  1.1216
 2747SOL    HW2 8820   5.100   2.796   7.264 -0.7666  1.5120 -0.6931
 2748SOL     OW 8821   5.388   8.877   1.400 -0.0631  0.6034 -0.4724
 2748SOL    HW1 8822   5.447   8.903   1.329  0.0090  0.9802 -0.2760
 2748SOL    HW2 8823   5.377   8.783   1.388  1.8564  0.2223  0.4294
 2749SOL     OW 8824   7.839   0.211   8.069  0.0250 -0.1450 -0.2988
 2749SOL    HW1 8825   7.767   0.273   8.059  0.1007 -0.0377 -0.1877
 2749SOL    HW2 8826   7.917   0.260   8.042  0.1834  0.0450  0.4752
 2750SOL     OW 8827   8.712   6.368   1.160  0.5947  0.1162  0.6197
 2750SOL    HW1 8828   8.679   6.411   1.239  0.4766  0.2169  0.5152
 2750SOL    HW2 8829   8.807   6.371   1.170  0.6790  2.1680 -0.3187
 2751SOL     OW 8830   3.285   6.726   6.607 -0.1834 -0.2229 -0.3462
 2751SOL    HW1 8831   3.231   6.705   6.683 -0.6139 -1.1101 -0.8736
 2751SOL    HW2 8832   3.368   6.755   6.643 -1.2582  1.9827  0.5074
 2752SOL     OW 8833   0.727   0.456   5.297  0.1177 -0.2996  0.4331
 2752SOL    HW1 8834   0.817   0.433   5.275  0.1272  0.7641 -0.7474
 2752SOL    HW2 8835   0.727   0.460   5.393  1.5232  0.3714  0.4423
 2753SOL     OW 8836   3.197   3.573   1.683 -0.0740  0.1173  0.2745
 2753SOL    HW1 8837   3.245   3.543   1.761 -0.3675 -0.2525  0.3164
 2753SOL    HW2 8838   3.107   3.583   1.713 -0.2041 -0.1117 -0.0365
 2754SOL     OW 8839   8.401   5.920   8.051  0.1033 -0.4623 -0.3374
 2754SOL    HW1 8840   8.320   5.892   8.093  0.6018 -2.5515 -0.6622
 2754SOL    HW2 8841   8.398   6.015   8.054 -0.8479 -0.4949  2.5198
 2755SOL     OW 8842   5.201   4.245   4.911  0.6547  0.1947 -0.0208
 2755SOL    HW1 8843   5.165   4.322   4.867 -1.9317 -0.8053  0.1512
 2755SOL    HW2 8844   5.230   4.188   4.841 -2.5349 -0.9617 -0.5770
 2756SOL     OW 8845   2.476   3.279   6.330 -0.1316 -0.2372  0.3427
 2756SOL    HW1 8846   2.397   3.309   6.375 -0.4233 -0.7588  0.1908
 2756SOL    HW2 8847   2.462   3.185   6.316 -1.1384  0.2489 -2.9175
 2757SOL     OW 8848   6.062   7.947   5.059  0.6352  0.5789  0.1641
 2757SOL    HW1 8849   6.107   7.873   5.099  0.7756  0.4118 -0.2950
 2757SOL    HW2 8850   6.133   8.003   5.026  0.5294  0.8845  0.4446
 2758SOL     OW 8851   5.564   5.670   7.955 -0.3855  0.7787  0.1677
 2758SOL    HW1 8852   5.483   5.639   7.916 -0.2700  0.9991 -0.2578
 2758SOL    HW2 8853   5.630   5.656   7.887 -0.3836  2.2234 -0.1412
 2759SOL     OW 8854   9.245   0.839   8.638  0.1578  0.1678 -0.2758
 2759SOL    HW1 8855   9.182   0.770   8.618  1.1753 -1.1665  0.9157
 2759SOL    HW2 8856   9.210   0.881   8.717  0.5912 -0.3687  0.2059
 2760SOL     OW 8857   2.180   3.352   3.928 -0.1824  0.2924  0.0198
 2760SOL    HW1 8858   2.096   3.394   3.908 -0.7964  1.2107  3.8337
 2760SOL    HW2 8859   2.162   3.259   3.922 -1.1921  0.4909 -0.1998
 2761SOL     OW 8860   8.561   7.987   2.254 -0.4422  0.0823 -0.0745
 2761SOL    HW1 8861   8.599   8.010   2.339 -0.8490  4.2994 -0.8037
 2761SOL    HW2 8862   8.606   8.044   2.191 -2.0436 -0.9187 -2.2742
 2762SOL     OW 8863   5.518   0.536   5.149 -0.0344  0.6379  0.1715
 2762SOL    HW1 8864   5.537   0.585   5.069 -1.0646  2.6434  1.0721
 2762SOL    HW2 8865   5.596   0.547   5.203 -0.4685  1.8155  0.5879
 2763SOL     OW 8866   7.446   0.304   7.656  0.9653  0.5195 -0.4130
 2763SOL    HW1 8867   7.361   0.324   7.695  1.9975 -1.1205  3.0605
 2763SOL    HW2 8868   7.494   0.387   7.657  0.0074  1.0934 -0.8465
 2764SOL     OW 8869   3.647   6.469   9.465 -0.4890  0.4051  0.1777
 2764SOL    HW1 8870   3.553   6.486   9.453 -0.7425 -0.2034  1.1485
 2764SOL    HW2 8871   3.691   6.545   9.427 -1.3630  0.5260 -0.6249
 2765SOL     OW 8872   6.754   7.402   4.834  0.3102  0.5462  0.5130
 2765SOL    HW1 8873   6.671   7.449   4.821  0.7499  0.9488 -1.0454
 2765SOL    HW2 8874   6.804   7.458   4.893 -0.1053  0.8514  0.5838
 2766SOL     OW 8875   5.237   4.195   7.703 -0.2092  0.5451 -0.1347
 2766SOL    HW1 8876   5.202   4.112   7.670 -0.9073  1.3636 -1.5320
 2766SOL    HW2 8877   5.163   4.238   7.745 -0.2909  1.2123 -0.9431
 2767SOL     OW 8878   9.825   0.874   7.469 -0.7569 -0.0586 -1.1449
 2767SOL    HW1 8879   9.863   0.955   7.501 -0.0356  0.0567 -2.2670
 2767SOL    HW2 8880   9.834   0.813   7.542  0.4757  0.3128 -0.9688
 2768SOL     OW 8881   9.165   6.444   1.624  0.3302 -0.5154 -0.2779
 2768SOL    HW1 8882   9.172   6.372   1.687  0.5869 -2.0387 -1.9710
 2768SOL    HW2 8883   9.159   6.523   1.679  0.1907 -1.7843  1.6395
 2769SOL     OW 8884   5.853   6.501   2.311  0.6641 -0.1596 -0.3684
 2769SOL    HW1 8885   5.849   6.410   2.281  0.7508 -0.4913  0.5900
 2769SOL    HW2 8886   5.840   6.553   2.232 -1.2162 -1.0080 -0.6790
 2770SOL     OW 8887   6.664   0.122   8.966 -0.1247  0.6205  0.3934
 2770SOL    HW1 8888   6.636   0.105   9.056 -0.2153 -0.1984  0.2131
 2770SOL    HW2 8889   6.758   0.106   8.966 -0.1673  0.3610  0.2859
 2771SOL     OW 8890   9.298   1.502   6.172  0.4066  0.5268  0.3942
 2771SOL    HW1 8891   9.253   1.519   6.089  0.6520  1.3691  0.4179
 2771SOL    HW2 8892   9.309   1.407   6.175 -0.7541  0.3684  0.0726
 2772SOL     OW 8893   4.782   9.577   8.919  0.1364  0.3471  0.2967
 2772SOL    HW1 8894   4.701   9.616   8.953 -0.3069 -1.6305  1.7109
 2772SOL    HW2 8895   4.840   9.573   8.996  1.2160  0.8038 -0.4706
 2773SOL     OW 8896   0.065   7.034   4.903  0.0014 -0.9592 -0.0785
 2773SOL    HW1 8897  -0.022   7.013   4.937  0.1864  0.1618  1.2011
 2773SOL    HW2 8898   0.074   7.129   4.917  0.8879 -0.8049 -1.4869
 2774SOL     OW 8899   0.518   8.225   5.845  0.0660 -0.0441  0.5632
 2774SOL    HW1 8900   0.518   8.155   5.910 -0.9485  2.0361  2.9253
 2774SOL    HW2 8901   0.429   8.227   5.811 -0.0461  0.4339  0.8809
 2775SOL     OW 8902   0.048   3.255   6.650  0.0973  0.7037 -0.3860
 2775SOL    HW1 8903   0.029   3.348   6.637  2.1487  1.2878  0.3469
 2775SOL    HW2 8904   0.056   3.246   6.744  1.0758  0.0550 -0.5222
 2776SOL     OW 8905   7.593   7.118   8.338 -0.0951  0.1505  0.3983
 2776SOL    HW1 8906   7.528   7.185   8.361 -0.3734  0.2628 -0.6594
 2776SOL    HW2 8907   7.651   7.161   8.275  1.1922  0.1368  1.5300
 2777SOL     OW 8908   5.572   3.392   3.559  0.5855  0.4862 -0.1763
 2777SOL    HW1 8909   5.657   3.385   3.515  0.5444  2.1356 -0.5755
 2777SOL    HW2 8910   5.587   3.456   3.629 -0.6878  2.0546 -1.2537
 2778SOL     OW 8911   2.933   9.254   4.318  0.1757  0.6262  0.3295
 2778SOL    HW1 8912   2.910   9.182   4.377  0.5458 -0.5321 -0.9000
 2778SOL    HW2 8913   2.965   9.211   4.239 -2.6828  2.0905 -1.7603
 2779SOL     OW 8914   4.622   3.994   4.984  0.0569 -0.1225  0.3889
 2779SOL    HW1 8915   4.527   3.993   4.987 -0.1119 -0.0016 -2.3309
 2779SOL    HW2 8916   4.647   3.902   4.984 -0.0632 -0.1574  0.8271
 2780SOL     OW 8917   2.963   0.395   3.901 -0.5958  0.1493  0.2393
 2780SOL    HW1 8918   3.029   0.334   3.869  1.1309  1.7280  0.5976
 2780SOL    HW2 8919   2.899   0.340   3.946 -0.6265 -1.6393 -1.8267
 2781SOL     OW 8920   6.353   4.861   1.795 -0.2354  0.4441  0.2925
 2781SOL    HW1 8921   6.390   4.949   1.802 -0.7973  0.7680 -0.7454
 2781SOL    HW2 8922   6.263   4.874   1.768 -0.9451 -0.3763  2.0537
 2782SOL     OW 8923   7.871   9.219   6.318  0.3431 -0.4695  0.3978
 2782SOL    HW1 8924   7.933   9.195   6.387 -0.3616 -0.6361  0.9733
 2782SOL    HW2 8925   7.804   9.271   6.362 -0.5228 -1.2114 -0.0142
 2783SOL     OW 8926   6.151   4.757   3.654 -0.3480  0.3458 -0.3183
 2783SOL    HW1 8927   6.209   4.727   3.585 -2.1452 -1.4241 -1.1903
 2783SOL    HW2 8928   6.070   4.781   3.609 -1.3744 -0.3119  1.0836
 2784SOL     OW 8929   3.537   4.772   5.533 -0.1691  1.0228 -1.1020
 2784SOL    HW1 8930   3.501   4.683   5.532 -0.3412  1.0692 -0.2761
 2784SOL    HW2 8931   3.625   4.763   5.497  0.6831  0.0851  1.0081
 2785SOL     OW 8932   2.045   0.922   9.153 -0.2094 -0.1701  0.3866
 2785SOL    HW1 8933   2.121   0.957   9.105 -0.1856 -1.1627 -0.3300
 2785SOL    HW2 8934   2.033   0.834   9.118 -0.6328 -0.6717  1.7319
 2786SOL     OW 8935   6.452   6.952   4.188 -0.4945 -0.1936  0.2375
 2786SOL    HW1 8936   6.515   7.024   4.195 -0.0845 -0.6413  1.3368
 2786SOL    HW2 8937   6.498   6.884   4.139 -1.6038  1.0153 -2.7435
 2787SOL     OW 8938   4.006   3.777   5.656  0.1818  0.1536 -0.0071
 2787SOL    HW1 8939   3.917   3.764   5.625 -0.7764 -1.6789  3.0366
 2787SOL    HW2 8940   4.021   3.871   5.647 -2.7675  0.8201  0.9706
 2788SOL     OW 8941   1.447   7.586   5.466  0.0362 -0.2118 -0.2044
 2788SOL    HW1 8942   1.512   7.656   5.471  0.8123 -0.9550  0.5148
 2788SOL    HW2 8943   1.437   7.556   5.556  0.3297 -1.5603 -0.5958
 2789SOL     OW 8944   1.716   8.921   4.589  0.0282  0.1121 -0.0037
 2789SOL    HW1 8945   1.729   8.966   4.506  0.2796  0.0316 -0.0097
 2789SOL    HW2 8946   1.699   8.992   4.652  0.9621  0.2700  0.0900
 2790SOL     OW 8947   5.117   5.943   9.010 -0.1738 -0.1170  0.0078
 2790SOL    HW1 8948   5.031   5.977   9.036 -0.3809 -0.2679 -0.4719
 2790SOL    HW2 8949   5.097   5.872   8.949  0.2811 -0.5456  0.3546
 2791SOL     OW 8950   8.421   5.841   6.621  0.0806  0.2330  0.0556
 2791SOL    HW1 8951   8.373   5.923   6.627  0.3693  0.3577  0.7828
 2791SOL    HW2 8952   8.504   5.865   6.578  0.4206  0.4468  0.8163
 2792SOL     OW 8953   7.040   3.285   4.544 -0.4958  0.2269 -0.0299
 2792SOL    HW1 8954   7.070   3.196   4.522  0.4531  0.1811  1.2592
 2792SOL    HW2 8955   7.043   3.333   4.461  2.4890 -0.0118 -0.1896
 2793SOL     OW 8956   6.444   1.705   3.895 -0.1802 -0.1371 -0.5293
 2793SOL    HW1 8957   6.538   1.722   3.886 -0.2866  3.0159  2.2671
 2793SOL    HW2 8958   6.405   1.741   3.815  0.8251  1.1166 -0.4931
 2794SOL     OW 8959   9.030   5.861   6.189  0.3363  0.3728  0.1726
 2794SOL    HW1 8960   9.087   5.934   6.165 -1.2040  1.0760 -1.6189
 2794SOL    HW2 8961   8.981   5.841   6.109 -0.7889 -1.2551  1.1897
 2795SOL     OW 8962   6.220   1.012   5.641 -0.7292 -0.3234 -0.4789
 2795SOL    HW1 8963   6.148   1.025   5.703 -0.9339 -0.6714 -0.6425
 2795SOL    HW2 8964   6.281   1.082   5.661 -2.0672  1.2759 -1.7121
 2796SOL     OW 8965   0.017   2.871   3.399 -0.6566  0.0103 -0.0174
 2796SOL    HW1 8966   0.020   2.787   3.445 -0.5675 -0.7091 -1.2874
 2796SOL    HW2 8967   0.003   2.936   3.468  3.9098 -0.4595  1.7226
 2797SOL     OW 8968   5.412   4.486   7.957 -0.8465 -0.4433  0.3108
 2797SOL    HW1 8969   5.433   4.411   7.902  1.2032 -1.7784  2.7168
 2797SOL    HW2 8970   5.317   4.497   7.947 -1.0386 -2.6690 -0.9116
 2798SOL     OW 8971   4.570   6.456   9.060  0.9578  0.2136 -0.1975
 2798SOL    HW1 8972   4.508   6.441   9.131 -0.7407  0.0202 -1.6432
 2798SOL    HW2 8973   4.601   6.545   9.074  0.5979  0.2037  0.7370
 2799SOL     OW 8974   2.758   2.826   1.819 -0.0602 -0.3557 -0.2549
 2799SOL    HW1 8975   2.690   2.886   1.790  0.8597  0.5909 -0.5009
 2799SOL    HW2 8976   2.822   2.881   1.863 -0.5244 -1.5043  2.0345
 2800SOL     OW 8977   5.453   4.577   0.749  0.8942 -0.1968 -0.0743
 2800SOL    HW1 8978   5.377   4.630   0.774  2.7685  3.8401 -1.9826
 2800SOL    HW2 8979   5.426   4.534   0.667 -0.2975 -1.4336  0.9233
 2801SOL     OW 8980   7.103   0.987   6.191  0.2834 -0.4444 -0.0561
 2801SOL    HW1 8981   7.114   0.898   6.223 -0.4891 -1.3511 -2.1218
 2801SOL    HW2 8982   7.015   1.012   6.218  0.4949 -0.3081  0.5121
 2802SOL     OW 8983   9.924   2.712   4.058 -0.5615  0.2330 -0.0494
 2802SOL    HW1 8984   9.987   2.668   4.001  1.1157  0.8922  1.2228
 2802SOL    HW2 8985   9.910   2.797   4.017 -0.2713  0.2639 -0.0832
 2803SOL     OW 8986   9.573   9.382   7.707 -0.0083  0.3467  0.0771
 2803SOL    HW1 8987   9.604   9.440   7.638  0.4537  0.4250  0.3469
 2803SOL    HW2 8988   9.497   9.338   7.669 -0.3049  1.0570 -0.1650
 2804SOL     OW 8989   2.026   7.901   2.896  0.3284  0.7902 -0.3000
 2804SOL    HW1 8990   2.024   7.900   2.800 -1.0008  0.9272 -0.2861
 2804SOL    HW2 8991   2.077   7.980   2.918  0.4189  0.8954 -0.8805
 2805SOL     OW 8992   5.886   9.943   4.841 -0.6553  0.0085  0.5298
 2805SOL    HW1 8993   5.800   9.916   4.873 -1.0375 -0.1510 -0.6005
 2805SOL    HW2 8994   5.880   9.936   4.746  0.4627  0.4414  0.4098
 2806SOL     OW 8995   8.686   1.075   3.559 -0.0782  0.4881  0.4462
 2806SOL    HW1 8996   8.763   1.130   3.542 -0.7179  1.8455  1.7468
 2806SOL    HW2 8997   8.656   1.049   3.472  1.3958  0.5536 -0.1163
 2807SOL     OW 8998   3.703   8.029   1.704  0.1783 -0.1660  0.3851
 2807SOL    HW1 8999   3.642   7.985   1.645  1.8688  0.2184 -1.7559
 2807SOL    HW2 9000   3.769   8.066   1.647  0.2463  2.9818  2.2848
 2808SOL     OW 9001   9.509   7.343   2.556  0.7411  0.3524 -0.6498
 2808SOL    HW1 9002   9.422   7.329   2.520  1.1193  0.2077 -1.5414
 2808SOL    HW2 9003   9.511   7.436   2.579 -0.0962  0.0695  0.6625
 2809SOL     OW 9004   2.242   6.987   5.952 -0.0651  0.4899 -0.0110
 2809SOL    HW1 9005   2.333   6.960   5.949 -0.2236 -0.1896  1.1289
 2809SOL    HW2 9006   2.212   6.965   6.040 -2.5677 -3.4391 -1.5692
 2810SOL     OW 9007   9.877   8.233   1.357  0.2042 -0.2271  0.1351
 2810SOL    HW1 9008   9.860   8.325   1.334 -1.1687 -0.4888  0.0303
 2810SOL    HW2 9009   9.801   8.186   1.324  0.6873 -1.3552  0.5885
 2811SOL     OW 9010   0.699   2.592   3.166 -0.0966  0.1944 -0.5190
 2811SOL    HW1 9011   0.735   2.531   3.231 -1.7719  0.2614  0.5277
 2811SOL    HW2 9012   0.645   2.652   3.217  0.3699  1.6961 -1.7137
 2812SOL     OW 9013   8.157   5.632   1.964 -0.1203  0.7648  0.4375
 2812SOL    HW1 9014   8.139   5.643   1.870  2.2739  1.8578  0.0345
 2812SOL    HW2 9015   8.170   5.538   1.975  0.0703  0.6800 -0.4400
 2813SOL     OW 9016   9.412   6.329   7.717 -0.2664  0.3502  0.0205
 2813SOL    HW1 9017   9.424   6.234   7.708  0.0314  0.3253  0.6021
 2813SOL    HW2 9018   9.317   6.340   7.728 -0.5945  0.3420 -2.3513
 2814SOL     OW 9019   8.452   9.510   1.486 -0.0601  0.5161 -0.3099
 2814SOL    HW1 9020   8.363   9.478   1.496  0.4485 -0.6665  0.6377
 2814SOL    HW2 9021   8.442   9.604   1.470 -1.4449  0.6262  0.9420
 2815SOL     OW 9022   0.168   0.361   9.236  0.6342 -0.1137 -0.2891
 2815SOL    HW1 9023   0.186   0.388   9.146  1.3519  0.4761  0.0209
 2815SOL    HW2 9024   0.224   0.417   9.290 -1.5958  1.3120  0.7076
 2816SOL     OW 9025   3.465   0.464   5.180  0.1714  0.4687  0.1099
 2816SOL    HW1 9026   3.540   0.430   5.130 -0.8640 -1.4554 -0.2211
 2816SOL    HW2 9027   3.477   0.428   5.268  0.4384  1.4724  0.5069
 2817SOL     OW 9028   4.767   4.251   7.840 -0.4223 -0.6303 -0.3540
 2817SOL    HW1 9029   4.727   4.318   7.895  1.5293  0.0989  0.2670
 2817SOL    HW2 9030   4.813   4.299   7.772 -1.2916 -1.4707 -1.5745
 2818SOL     OW 9031   2.416   3.028   6.816 -0.0928 -0.6619  0.2833
 2818SOL    HW1 9032   2.389   2.953   6.869  1.3014 -0.2560  1.6490
 2818SOL    HW2 9033   2.380   3.010   6.729 -2.0467 -1.5940  1.2299
 2819SOL     OW 9034   8.799   5.809   9.062 -0.0045  0.1041  0.0645
 2819SOL    HW1 9035   8.760   5.722   9.054 -0.4788  0.4438 -1.9146
 2819SOL    HW2 9036   8.758   5.847   9.140  0.7041 -1.6484  1.3549
 2820SOL     OW 9037   3.515   5.940   0.080  0.1725  0.2675  0.1302
 2820SOL    HW1 9038   3.590   5.997   0.059  0.7854 -0.2975  0.7491
 2820SOL    HW2 9039   3.480   5.976   0.161 -2.1705  2.4242 -1.6600
 2821SOL     OW 9040   9.846   6.985   4.116  0.0943  0.0271  0.2550
 2821SOL    HW1 9041   9.881   6.908   4.071  0.9225  1.0733 -0.9229
 2821SOL    HW2 9042   9.914   7.010   4.178  0.1380  0.2512  0.1159
 2822SOL     OW 9043   1.063   1.872   7.916 -0.4146  0.2228 -0.0730
 2822SOL    HW1 9044   1.044   1.951   7.865 -2.2225  0.2392  0.5389
 2822SOL    HW2 9045   1.087   1.806   7.850 -1.4323  0.5945 -0.8482
 2823SOL     OW 9046   7.970   3.296   7.813 -0.6247  0.2880  0.0976
 2823SOL    HW1 9047   7.887   3.278   7.857 -0.3847  1.2823  0.9896
 2823SOL    HW2 9048   7.960   3.255   7.727 -1.3637 -1.0910  0.8025
 2824SOL     OW 9049   4.217   8.529   2.864 -0.3720  0.2101  0.6913
 2824SOL    HW1 9050   4.173   8.514   2.781  0.0499  1.5891  0.1993
 2824SOL    HW2 9051   4.154   8.580   2.916 -0.2015  0.3130  0.7983
 2825SOL     OW 9052   5.679   3.565   0.868 -0.3215  0.7495  0.4916
 2825SOL    HW1 9053   5.650   3.480   0.834 -0.0694  0.7966  0.1532
 2825SOL    HW2 9054   5.743   3.596   0.804 -0.9843  1.5507  0.1939
 2826SOL     OW 9055   2.022   5.218   0.054  0.1951 -0.1615 -0.3600
 2826SOL    HW1 9056   1.996   5.139   0.100 -1.1926  1.0069  0.9523
 2826SOL    HW2 9057   2.010   5.197  -0.039 -1.0092 -1.2042  0.0038
 2827SOL     OW 9058   4.689   6.343   8.652  0.4561 -0.1843 -0.0119
 2827SOL    HW1 9059   4.596   6.329   8.636  0.3699  1.7116 -1.4732
 2827SOL    HW2 9060   4.700   6.329   8.746 -1.0962 -1.3327  0.0410
 2828SOL     OW 9061   5.974   1.312   0.498 -0.3526 -0.1586 -0.2020
 2828SOL    HW1 9062   5.921   1.292   0.575 -0.1550 -0.9976 -0.2822
 2828SOL    HW2 9063   6.064   1.296   0.526 -0.2568 -0.1833 -0.5224
 2829SOL     OW 9064   5.057   2.684   4.284  0.9145 -0.1992 -0.3013
 2829SOL    HW1 9065   5.081   2.668   4.193  0.3012  1.2596 -0.7368
 2829SOL    HW2 9066   4.966   2.715   4.280  1.0928  0.5088  0.7535
 2830SOL     OW 9067   6.484   9.919   6.060  0.2131 -0.8180 -0.2244
 2830SOL    HW1 9068   6.553   9.862   6.027 -0.6311 -3.0542  1.6521
 2830SOL    HW2 9069   6.403   9.878   6.031 -0.4663  1.4620 -1.8944
 2831SOL     OW 9070   1.152   3.721   6.742  0.3039  0.7606 -0.1706
 2831SOL    HW1 9071   1.180   3.743   6.654  0.2514  0.8153 -0.1734
 2831SOL    HW2 9072   1.179   3.796   6.795  2.4647 -0.2299  0.2843
 2832SOL     OW 9073   2.424   9.494   6.405 -0.6038 -0.1759 -0.5180
 2832SOL    HW1 9074   2.465   9.540   6.479  0.3992 -1.3775 -0.2942
 2832SOL    HW2 9075   2.447   9.547   6.329  0.2472 -0.1060 -0.2271
 2833SOL     OW 9076   6.927   0.333   6.377 -0.1264 -0.2493  0.5622
 2833SOL    HW1 9077   6.967   0.247   6.360 -0.2650 -0.2948  0.4678
 2833SOL    HW2 9078   7.001   0.389   6.399 -0.1357 -0.6430  1.6637
 2834SOL     OW 9079   7.278   1.019   7.091 -0.1647  0.1812  0.1200
 2834SOL    HW1 9080   7.266   1.092   7.152  1.3775  0.7396 -0.1958
 2834SOL    HW2 9081   7.259   0.941   7.143 -0.7842  0.7356  0.7572
 2835SOL     OW 9082   2.957   5.337   5.422 -0.3453 -0.5439 -0.9729
 2835SOL    HW1 9083   3.010   5.416   5.437 -0.1142 -0.7608 -0.6128
 2835SOL    HW2 9084   2.895   5.362   5.354  0.0004 -0.1777 -1.1601
 2836SOL     OW 9085   9.146   4.953   2.090  0.3860  0.0688  0.7790
 2836SOL    HW1 9086   9.171   4.901   2.167 -1.4685 -1.4076  0.4339
 2836SOL    HW2 9087   9.138   4.889   2.019  1.6342  1.3535 -0.5917
 2837SOL     OW 9088   5.486   9.007   5.348  0.2338  0.1027  0.5006
 2837SOL    HW1 9089   5.534   8.928   5.372  3.4811  1.2979 -1.4214
 2837SOL    HW2 9090   5.407   9.005   5.402  1.6620 -2.8470  2.7373
 2838SOL     OW 9091   0.386   7.920   8.911 -0.0221 -0.4018 -0.5459
 2838SOL    HW1 9092   0.290   7.914   8.910  0.0224 -1.8480  0.8265
 2838SOL    HW2 9093   0.414   7.867   8.837 -0.2761 -0.2214 -0.7714
 2839SOL     OW 9094   3.148   8.338   1.059  0.2559  0.1169 -0.3687
 2839SOL    HW1 9095   3.172   8.420   1.100 -1.4403 -0.1886  1.3964
 2839SOL    HW2 9096   3.227   8.284   1.064  0.5840  0.6874  1.0460
 2840SOL     OW 9097   5.215   6.259   1.294 -0.0930 -0.2339 -0.2537
 2840SOL    HW1 9098   5.227   6.206   1.216  0.0793  0.8926 -1.0151
 2840SOL    HW2 9099   5.272   6.336   1.280 -0.1650  0.0508  0.9047
 2841SOL     OW 9100   6.721   1.943   0.303  0.1966 -0.0668 -0.1196
 2841SOL    HW1 9101   6.749   1.897   0.223  0.4969  0.9975 -0.6535
 2841SOL    HW2 9102   6.673   1.878   0.353 -0.4902 -0.6127 -1.4378
 2842SOL     OW 9103   3.650   0.578   0.029 -0.1505 -0.4788  0.7671
 2842SOL    HW1 9104   3.701   0.629  -0.034 -0.2801 -1.4580 -0.1624
 2842SOL    HW2 9105   3.594   0.643   0.072 -0.0482  0.2312 -0.1176
 2843SOL     OW 9106   9.048   5.354   7.975 -0.3135 -0.1371 -0.2845
 2843SOL    HW1 9107   9.064   5.317   7.888  0.3732 -0.7106  0.0771
 2843SOL    HW2 9108   9.010   5.440   7.957  0.4810  0.0538 -1.1722
 2844SOL     OW 9109   5.218   2.672   1.022  0.2762 -0.0267 -0.0073
 2844SOL    HW1 9110   5.245   2.668   0.931 -0.1312  0.7009 -0.1648
 2844SOL    HW2 9111   5.188   2.762   1.035  0.9384  0.0694  1.0166
 2845SOL     OW 9112   5.716   0.592   9.016 -0.5348 -0.0524  0.3129
 2845SOL    HW1 9113   5.716   0.593   9.111 -1.6433  2.8308  0.3935
 2845SOL    HW2 9114   5.798   0.636   8.992 -0.0933 -1.0741 -0.0833
 2846SOL     OW 9115   0.403   1.800   0.148  0.2357 -0.1782 -0.0421
 2846SOL    HW1 9116   0.373   1.850   0.072  3.4347  3.2031  0.6311
 2846SOL    HW2 9117   0.332   1.806   0.211 -0.2627  1.9888 -0.7371
 2847SOL     OW 9118   4.113   7.036   1.808 -0.1148  0.3961  0.0207
 2847SOL    HW1 9119   4.045   6.986   1.762  1.1810 -2.6605  1.1789
 2847SOL    HW2 9120   4.182   7.047   1.744 -0.7503  1.5146 -0.4923
 2848SOL     OW 9121   7.129   0.405   7.300 -0.3903 -0.5385  0.2072
 2848SOL    HW1 9122   7.203   0.451   7.260  0.3079 -1.2653  0.6471
 2848SOL    HW2 9123   7.088   0.470   7.357 -0.6342  0.1332 -0.7129
 2849SOL     OW 9124   7.037   7.840   5.375 -0.3002 -0.1635  0.7922
 2849SOL    HW1 9125   7.031   7.936   5.370  0.0642 -0.1964 -1.1441
 2849SOL    HW2 9126   7.130   7.821   5.364 -0.0802 -0.7019  3.1707
 2850SOL     OW 9127   0.064   2.531   3.873  0.1705 -1.1735 -0.4951
 2850SOL    HW1 9128   0.110   2.450   3.892 -0.2281 -2.1085 -3.0745
 2850SOL    HW2 9129   0.060   2.535   3.777 -0.4455  1.5489 -0.4471
 2851SOL     OW 9130   4.079   0.413   7.569  0.1329  0.0905 -0.3991
 2851SOL    HW1 9131   4.072   0.487   7.629 -1.8702  0.1062 -0.5834
 2851SOL    HW2 9132   4.168   0.380   7.581  0.1527  0.7946  1.7368
 2852SOL     OW 9133   9.816   6.154   2.959 -0.8492 -0.6196  0.3107
 2852SOL    HW1 9134   9.884   6.222   2.968 -2.2904  0.7677  1.1644
 2852SOL    HW2 9135   9.840   6.088   3.024 -0.6509  0.1583  1.0463
 2853SOL     OW 9136   0.289   7.212   2.768  0.0154  0.3285 -0.4911
 2853SOL    HW1 9137   0.341   7.239   2.844  0.2959  0.3858 -0.7006
 2853SOL    HW2 9138   0.198   7.213   2.798  0.0760  0.9499 -0.3336
 2854SOL     OW 9139   4.780   0.831   5.582  0.2237  0.6708  0.2982
 2854SOL    HW1 9140   4.762   0.821   5.676  0.4311  0.3894  0.3081
 2854SOL    HW2 9141   4.806   0.923   5.573  0.0174  0.7485  0.4864
 2855SOL     OW 9142   1.642   6.186   2.686  0.0923 -0.4219  0.6076
 2855SOL    HW1 9143   1.696   6.264   2.699 -1.7140  0.7303  1.7035
 2855SOL    HW2 9144   1.703   6.113   2.689  1.8401  0.9218 -0.4029
 2856SOL     OW 9145   6.179   6.846   7.303  0.4423 -0.4302 -0.3875
 2856SOL    HW1 9146   6.142   6.914   7.247 -0.0877  0.3580  0.8663
 2856SOL    HW2 9147   6.103   6.803   7.343  0.7980 -1.1959 -0.5080
 2857SOL     OW 9148   5.353   1.378   8.149  0.3626  0.7808  0.3792
 2857SOL    HW1 9149   5.444   1.357   8.166  0.3929 -0.1376 -0.8297
 2857SOL    HW2 9150   5.305   1.340   8.223  0.8864  0.6574  0.6593
 2858SOL     OW 9151   9.022   7.937   2.907  0.3130  0.2539 -0.3366
 2858SOL    HW1 9152   8.957   7.903   2.969  0.8458  2.4665  1.5772
 2858SOL    HW2 9153   9.097   7.961   2.962  1.5172  0.6872 -2.0864
 2859SOL     OW 9154   6.151   9.556   3.482  0.6002 -0.3951 -0.4961
 2859SOL    HW1 9155   6.125   9.539   3.572  1.6962 -1.9782 -0.4482
 2859SOL    HW2 9156   6.068   9.561   3.434  0.0572 -1.2843  0.3158
 2860SOL     OW 9157   8.151   4.148   9.569  0.1395 -0.5967  0.1809
 2860SOL    HW1 9158   8.165   4.098   9.489  0.3516  0.1007 -0.2312
 2860SOL    HW2 9159   8.082   4.211   9.547  2.2315  1.6351 -0.4435
 2861SOL     OW 9160   2.605   6.234   5.446 -0.6531  0.3717  0.1051
 2861SOL    HW1 9161   2.583   6.318   5.405 -0.4035  0.8388  0.9093
 2861SOL    HW2 9162   2.596   6.250   5.540 -1.9259 -0.8867  0.2190
 2862SOL     OW 9163   3.451   8.365   0.769 -0.1945 -0.2331 -0.2669
 2862SOL    HW1 9164   3.498   8.446   0.788 -0.5675  0.4788 -2.2311
 2862SOL    HW2 9165   3.486   8.302   0.833  2.2252  0.6985 -0.5714
 2863SOL     OW 9166   6.550   4.254   1.194  0.0782 -0.6674 -0.2728
 2863SOL    HW1 9167   6.550   4.348   1.178 -0.2023 -0.7269 -0.6637
 2863SOL    HW2 9168   6.537   4.245   1.288  1.0915 -0.3063 -0.0867
 2864SOL     OW 9169   8.525   8.020   4.833  0.3483  0.1948  0.2112
 2864SOL    HW1 9170   8.438   7.985   4.855  0.6681  0.6856  2.5829
 2864SOL    HW2 9171   8.586   7.964   4.881  1.2837  0.4418 -0.6673
 2865SOL     OW 9172   6.101   9.028   3.698  0.6259 -0.3581 -0.1217
 2865SOL    HW1 9173   6.019   9.017   3.651 -0.2374  1.9409  0.7029
 2865SOL    HW2 9174   6.147   8.945   3.686 -1.5807 -1.5308 -1.0349
 2866SOL     OW 9175   2.040   7.123   3.786 -0.3455 -0.1786 -0.1696
 2866SOL    HW1 9176   2.108   7.184   3.812 -1.4360  1.0437 -0.0963
 2866SOL    HW2 9177   2.001   7.094   3.868 -2.1795  1.8188 -0.2487
 2867SOL     OW 9178   0.332   8.801   0.637  0.2333  0.2039 -0.1957
 2867SOL    HW1 9179   0.339   8.735   0.569 -0.2216 -1.2386  1.0789
 2867SOL    HW2 9180   0.250   8.780   0.682 -0.3817  2.1908 -0.2810
 2868SOL     OW 9181   2.842   1.923   3.218  0.1840  0.7316 -0.0562
 2868SOL    HW1 9182   2.893   1.846   3.192 -0.2698 -0.6306  2.6643
 2868SOL    HW2 9183   2.796   1.950   3.139  1.6795 -0.7419 -1.5014
 2869SOL     OW 9184   5.949   6.967   3.487 -0.6173  0.3066  0.4925
 2869SOL    HW1 9185   5.856   6.985   3.498 -0.4479  0.8980  1.0333
 2869SOL    HW2 9186   5.952   6.884   3.439 -1.4197  0.7746 -0.4072
 2870SOL     OW 9187   2.493   5.433   9.883  0.3395 -0.1799 -0.4295
 2870SOL    HW1 9188   2.415   5.467   9.927  0.6459  2.9778 -2.0018
 2870SOL    HW2 9189   2.565   5.479   9.925  1.0300 -0.5285 -1.2202
 2871SOL     OW 9190   3.318   1.543   0.199  0.0518  0.5198 -0.0228
 2871SOL    HW1 9191   3.392   1.596   0.169  0.2159  0.5274  0.3990
 2871SOL    HW2 9192   3.330   1.458   0.157  0.0283  0.6701 -0.3452
 2872SOL     OW 9193   1.403   9.433   6.594 -0.8646 -0.2346 -0.1013
 2872SOL    HW1 9194   1.372   9.343   6.588  1.7876 -1.3887  1.4634
 2872SOL    HW2 9195   1.450   9.436   6.678 -2.3242  3.1352  0.7539
 2873SOL     OW 9196   5.926   0.745   4.740  0.1996  0.1560  0.4719
 2873SOL    HW1 9197   5.854   0.682   4.743 -0.1113  0.5465  2.0602
 2873SOL    HW2 9198   5.995   0.700   4.692 -0.9939 -0.3203 -0.8616
 2874SOL     OW 9199   7.906   1.694   6.033 -0.1549 -0.2627  0.0330
 2874SOL    HW1 9200   7.890   1.786   6.013 -1.2183 -0.4377  0.0090
 2874SOL    HW2 9201   7.861   1.680   6.117  1.5151 -0.3284  0.9660
 2875SOL     OW 9202   0.311   9.978   8.629 -0.1429  0.3227  0.2760
 2875SOL    HW1 9203   0.373   9.917   8.590 -2.1226 -1.5642 -0.1012
 2875SOL    HW2 9204   0.275   9.931   8.704  1.8001  2.9487  3.1107
 2876SOL     OW 9205   9.648   0.719   5.314 -0.0951 -0.1234 -0.1526
 2876SOL    HW1 9206   9.725   0.742   5.262 -1.3148  2.2698 -1.0890
 2876SOL    HW2 9207   9.591   0.671   5.253 -1.3202  2.2728 -1.0340
 2877SOL     OW 9208   7.736   8.437   0.312  0.0220  0.0881 -0.2772
 2877SOL    HW1 9209   7.750   8.514   0.368 -0.8176 -0.1270  0.2374
 2877SOL    HW2 9210   7.643   8.418   0.320 -0.2433  0.3663 -2.1769
 2878SOL     OW 9211   1.396   6.598   2.255 -0.1009 -0.2803  0.4275
 2878SOL    HW1 9212   1.391   6.653   2.334 -0.2941 -0.7734  0.7656
 2878SOL    HW2 9213   1.489   6.591   2.237  0.0243 -1.0834  1.2822
 2879SOL     OW 9214   8.647   3.667   0.287 -0.2429  0.4652 -0.1530
 2879SOL    HW1 9215   8.656   3.746   0.234  0.5382  0.9435  0.6722
 2879SOL    HW2 9216   8.608   3.603   0.227 -1.0256  1.4977 -0.7963
 2880SOL     OW 9217   5.011   1.375   4.791  0.0430 -0.3814  0.2484
 2880SOL    HW1 9218   4.922   1.340   4.796  0.3727 -1.1307  1.5291
 2880SOL    HW2 9219   5.000   1.468   4.776 -0.9778 -0.4107  0.7568
 2881SOL     OW 9220   7.583   7.328   7.581  0.4228 -0.2332 -0.0024
 2881SOL    HW1 9221   7.545   7.393   7.522  2.4251  0.6765 -0.3445
 2881SOL    HW2 9222   7.574   7.245   7.534  0.5443  0.2417 -0.8899
 2882SOL     OW 9223   7.977   2.081   3.599  0.3479 -0.9243  0.3338
 2882SOL    HW1 9224   8.002   2.148   3.535  2.1681 -1.3140  0.5913
 2882SOL    HW2 9225   7.884   2.096   3.613  0.5126  0.9987 -0.2758
 2883SOL     OW 9226   9.707   5.443   0.954  0.2079 -0.2172 -0.1934
 2883SOL    HW1 9227   9.725   5.349   0.956 -0.3354 -0.3112  0.5454
 2883SOL    HW2 9228   9.614   5.450   0.929  0.1754  0.1071 -0.0003
 2884SOL     OW 9229   4.559   2.307   8.625  0.1654  0.1652 -0.2176
 2884SOL    HW1 9230   4.473   2.325   8.665  0.0990  0.5417 -0.5242
 2884SOL    HW2 9231   4.542   2.234   8.566 -0.2160  0.9771 -1.1540
 2885SOL     OW 9232   8.931   6.942   9.221  0.7266 -0.3041  0.0565
 2885SOL    HW1 9233   9.016   6.898   9.227  0.6838 -0.3816  0.0896
 2885SOL    HW2 9234   8.918   6.955   9.127  0.0868 -1.6308 -0.0502
 2886SOL     OW 9235   0.202   2.065   6.512  0.2141  0.0316 -0.0436
 2886SOL    HW1 9236   0.122   2.053   6.461  0.3287  0.0357 -0.2239
 2886SOL    HW2 9237   0.174   2.055   6.603  0.0567 -0.2483 -0.1207
 2887SOL     OW 9238   5.064   5.349   0.826  0.3224 -0.2776  0.1155
 2887SOL    HW1 9239   5.070   5.407   0.751 -0.3025 -0.6974 -0.2721
 2887SOL    HW2 9240   5.071   5.260   0.790 -0.1640 -0.4913  0.5185
 2888SOL     OW 9241   0.667   8.571   4.063 -0.3398 -0.3253 -0.6244
 2888SOL    HW1 9242   0.747   8.540   4.105 -0.3214 -0.6676 -0.9106
 2888SOL    HW2 9243   0.656   8.514   3.987 -0.8324 -0.2574 -0.6077
 2889SOL     OW 9244   8.290   1.481   4.788  0.0846 -0.4605  0.4002
 2889SOL    HW1 9245   8.378   1.477   4.750  0.1288  0.7319  0.3221
 2889SOL    HW2 9246   8.282   1.401   4.839  0.2573 -1.8184 -1.5767
 2890SOL     OW 9247   9.246   4.323   8.541  0.0629 -1.0907 -0.8350
 2890SOL    HW1 9248   9.311   4.384   8.576 -0.5171 -0.8995 -0.0645
 2890SOL    HW2 9249   9.173   4.328   8.603 -0.2579 -2.0799 -1.1236
 2891SOL     OW 9250   2.457   2.820   0.993  0.1663 -0.0711  0.4260
 2891SOL    HW1 9251   2.475   2.887   0.928 -0.1329 -0.5004 -0.1086
 2891SOL    HW2 9252   2.540   2.808   1.039  0.8104 -0.8369 -0.8862
 2892SOL     OW 9253   7.801   7.851   2.277  1.1499 -0.3199  0.4449
 2892SOL    HW1 9254   7.773   7.911   2.346 -0.3742 -0.0090 -0.3861
 2892SOL    HW2 9255   7.787   7.900   2.196 -1.2064 -2.1136 -0.3437
 2893SOL     OW 9256   8.998   4.808   3.205  0.0453 -0.0774 -0.2367
 2893SOL    HW1 9257   9.044   4.749   3.265 -0.4994  0.5243  0.7770
 2893SOL    HW2 9258   8.913   4.767   3.192 -0.4248  0.5814  0.6570
 2894SOL     OW 9259   0.399   3.191   9.787  0.5033 -0.0716  0.1956
 2894SOL    HW1 9260   0.428   3.116   9.838  0.8344  0.1938  0.4078
 2894SOL    HW2 9261   0.430   3.267   9.837  2.3732  0.1923 -1.2179
 2895SOL     OW 9262   2.949   7.329   3.803 -0.2007  0.1835 -0.6277
 2895SOL    HW1 9263   2.927   7.298   3.716 -0.4145 -0.6258 -0.2907
 2895SOL    HW2 9264   3.000   7.409   3.788  0.5474 -0.4485 -1.5128
 2896SOL     OW 9265   7.116   0.202   3.066 -0.0865 -0.0760  0.1356
 2896SOL    HW1 9266   7.176   0.275   3.054 -0.4193  0.2300  0.3422
 2896SOL    HW2 9267   7.166   0.137   3.115  0.2574 -0.0478 -0.1783
 2897SOL     OW 9268   9.726   5.745   7.369  1.1637 -0.3604  0.2165
 2897SOL    HW1 9269   9.641   5.722   7.331  1.0460 -0.0288  0.2766
 2897SOL    HW2 9270   9.780   5.771   7.295 -0.0234  3.4076  0.4820
 2898SOL     OW 9271   5.802   5.970   9.193 -0.1813 -0.0841 -0.1987
 2898SOL    HW1 9272   5.878   6.019   9.164 -0.7232  0.1425 -1.2831
 2898SOL    HW2 9273   5.748   5.960   9.115 -1.6757  0.5035  0.7078
 2899SOL     OW 9274   0.696   4.731   5.910 -0.4963 -0.1176  0.2031
 2899SOL    HW1 9275   0.787   4.711   5.931  0.5323  1.6319 -2.2400
 2899SOL    HW2 9276   0.646   4.687   5.979  2.1681 -0.9775  1.7308
 2900SOL     OW 9277   2.369   1.841   0.403  0.2487  0.6834 -0.1268
 2900SOL    HW1 9278   2.284   1.837   0.446 -0.9599  3.3489 -2.0153
 2900SOL    HW2 9279   2.413   1.916   0.444  1.5113 -0.3416  0.4524
 2901SOL     OW 9280   7.458   5.912   1.112 -0.0635  0.0034  0.0586
 2901SOL    HW1 9281   7.499   5.985   1.159 -1.5256  0.6548  0.3634
 2901SOL    HW2 9282   7.512   5.836   1.134  0.7960  0.7743  0.6816
 2902SOL     OW 9283   7.556   9.025   5.079 -0.3915 -0.0947  0.0218
 2902SOL    HW1 9284   7.548   9.095   5.014  1.0317 -0.2679 -0.3927
 2902SOL    HW2 9285   7.559   9.070   5.163  0.4666  0.3745 -0.2393
 2903SOL     OW 9286   2.087   6.633   5.370  0.0682  0.3521  0.0714
 2903SOL    HW1 9287   2.111   6.638   5.277 -2.7493  0.1929 -0.7760
 2903SOL    HW2 9288   2.053   6.720   5.391  2.0765  0.8666  1.4679
 2904SOL     OW 9289   8.989   7.428   6.260  0.2942 -0.1981 -0.5580
 2904SOL    HW1 9290   8.915   7.412   6.202  0.6905 -1.6372 -0.7071
 2904SOL    HW2 9291   9.011   7.521   6.247 -2.0468  0.5216  0.1993
 2905SOL     OW 9292   6.917   7.291   8.777  0.4005  0.2548  0.0269
 2905SOL    HW1 9293   7.003   7.264   8.808  0.4452 -0.1669 -0.4494
 2905SOL    HW2 9294   6.934   7.334   8.693  0.2303  0.9122  0.3266
 2906SOL     OW 9295   0.182   6.324   0.704  0.4662  0.2305 -0.0724
 2906SOL    HW1 9296   0.158   6.237   0.673 -0.4158  0.5302 -0.2408
 2906SOL    HW2 9297   0.116   6.383   0.668  0.9161  0.9472  0.2267
 2907SOL     OW 9298   5.645   3.576   5.619  0.0005  0.1012  0.2262
 2907SOL    HW1 9299   5.660   3.499   5.564  0.3802  0.0168  0.4391
 2907SOL    HW2 9300   5.690   3.556   5.702 -0.0973  0.4512  0.3681
 2908SOL     OW 9301   8.109   9.628   5.812 -0.2566 -0.5298  0.0202
 2908SOL    HW1 9302   8.145   9.673   5.889 -0.8981 -0.1736  0.1189
 2908SOL    HW2 9303   8.111   9.694   5.743 -1.5124 -0.2208  0.2508
 2909SOL     OW 9304   8.846   7.774   9.781  0.6758  0.2594  0.6843
 2909SOL    HW1 9305   8.761   7.817   9.774  0.5156 -0.2902 -1.7785
 2909SOL    HW2 9306   8.826   7.688   9.819  0.4063  0.7367  1.6581
 2910SOL     OW 9307   0.045   7.442   6.267 -0.2783  0.3155  0.0328
 2910SOL    HW1 9308   0.018   7.419   6.356 -1.2484  2.9283  0.5353
 2910SOL    HW2 9309   0.140   7.437   6.269 -0.3606 -1.4406  0.6497
 2911SOL     OW 9310   7.814   0.158   8.449 -0.0146 -0.2390 -0.2030
 2911SOL    HW1 9311   7.769   0.080   8.481 -0.4929  0.3951  0.7113
 2911SOL    HW2 9312   7.896   0.125   8.413 -0.0431 -1.1231  0.5162
 2912SOL     OW 9313   6.928   3.347   0.422 -0.0229 -0.1333  0.3860
 2912SOL    HW1 9314   6.889   3.260   0.434  0.1140 -0.2428  0.0440
 2912SOL    HW2 9315   7.021   3.330   0.413 -0.0529  0.0088 -0.1764
 2913SOL     OW 9316   7.910   9.387   4.690  0.3049 -0.3649  0.4579
 2913SOL    HW1 9317   7.933   9.418   4.777  0.2429  0.8704  0.0525
 2913SOL    HW2 9318   7.989   9.399   4.638 -0.6889  2.5300 -0.5745
 2914SOL     OW 9319   1.723   6.406   4.149  0.1862  0.3592 -0.0139
 2914SOL    HW1 9320   1.791   6.444   4.204 -0.3433  2.0253 -0.4175
 2914SOL    HW2 9321   1.769   6.370   4.073  0.6291  1.7141 -0.4162
 2915SOL     OW 9322   1.448   4.640   0.447 -0.3488  0.0412  0.1567
 2915SOL    HW1 9323   1.401   4.561   0.421 -2.0489  1.1406 -0.2460
 2915SOL    HW2 9324   1.445   4.639   0.543  1.0133 -1.1262  0.2349
 2916SOL     OW 9325   7.514   0.236   0.441  0.1869  0.1433  0.3494
 2916SOL    HW1 9326   7.446   0.288   0.398 -1.0486 -0.6626  1.2547
 2916SOL    HW2 9327   7.544   0.175   0.374 -0.6096 -0.0688  0.1759
 2917SOL     OW 9328   7.338   5.144   0.507  0.1216 -0.2367  0.3569
 2917SOL    HW1 9329   7.339   5.234   0.541  2.6028 -0.1463  0.2377
 2917SOL    HW2 9330   7.352   5.154   0.413  0.2148 -0.7291  0.3187
 2918SOL     OW 9331   8.251   2.855   8.788  0.3569  0.3062 -0.4716
 2918SOL    HW1 9332   8.238   2.761   8.801 -0.7839  0.6943  1.8508
 2918SOL    HW2 9333   8.194   2.878   8.715 -0.9505 -0.5071  0.2512
 2919SOL     OW 9334   2.394   9.666   7.919  0.1147  0.0781 -0.6006
 2919SOL    HW1 9335   2.430   9.731   7.860 -0.7050  0.5064 -0.6465
 2919SOL    HW2 9336   2.403   9.583   7.873  0.8857  0.1920 -0.6694
 2920SOL     OW 9337   1.506   3.610   1.505 -0.2495 -0.6279 -0.2539
 2920SOL    HW1 9338   1.415   3.605   1.532 -0.1976 -0.4039 -0.0363
 2920SOL    HW2 9339   1.534   3.698   1.530 -0.5941  0.1222 -2.2742
 2921SOL     OW 9340   7.221   9.255   1.146  0.2961 -0.0290 -0.0606
 2921SOL    HW1 9341   7.190   9.283   1.060 -0.8980  0.6037  0.5312
 2921SOL    HW2 9342   7.140   9.234   1.194  0.8461  0.6946  1.2393
 2922SOL     OW 9343   7.996   8.475   4.242 -0.1327 -0.0520  0.2553
 2922SOL    HW1 9344   8.034   8.561   4.223  0.0408  0.7756  3.6258
 2922SOL    HW2 9345   7.919   8.470   4.186  1.0350  1.2946 -1.6032
 2923SOL     OW 9346   8.217   7.696   4.584  0.1671  0.1371  0.0112
 2923SOL    HW1 9347   8.253   7.783   4.567 -1.8336  0.7593 -1.4263
 2923SOL    HW2 9348   8.122   7.710   4.585 -0.1561 -1.7204  1.7034
 2924SOL     OW 9349   3.645   3.325   5.605 -0.5675  0.0123  0.2845
 2924SOL    HW1 9350   3.595   3.292   5.530  0.3863 -1.1819  0.1510
 2924SOL    HW2 9351   3.696   3.398   5.570 -0.4582 -0.2614 -0.1288
 2925SOL     OW 9352   1.494   7.946   0.217  0.3376  0.0047 -0.0297
 2925SOL    HW1 9353   1.529   7.862   0.188  1.6409  0.0198  1.3852
 2925SOL    HW2 9354   1.452   7.927   0.302 -0.3688  0.5832 -0.2317
 2926SOL     OW 9355   3.363   1.489   7.383 -0.0401 -0.3845  0.1933
 2926SOL    HW1 9356   3.427   1.509   7.452 -0.3402 -2.3010  1.1081
 2926SOL    HW2 9357   3.366   1.393   7.375 -0.0632 -0.2441 -2.4492
 2927SOL     OW 9358   4.636   3.126   7.557  0.6990 -0.1179  0.1843
 2927SOL    HW1 9359   4.618   3.038   7.523  0.9869 -0.7936  1.7184
 2927SOL    HW2 9360   4.558   3.149   7.606  0.0298  1.1170 -1.3720
 2928SOL     OW 9361   9.901   1.050   1.637 -0.5295  0.3291 -0.4875
 2928SOL    HW1 9362   9.920   1.069   1.728 -2.1957 -0.0608 -0.0265
 2928SOL    HW2 9363   9.808   1.029   1.635 -0.1532 -1.5301 -1.9674
 2929SOL     OW 9364   3.142   7.656   3.345 -0.2756  0.4854 -0.0722
 2929SOL    HW1 9365   3.047   7.670   3.347 -0.7402 -1.6865 -2.4290
 2929SOL    HW2 9366   3.156   7.579   3.400  0.1901  0.9411  0.4624
 2930SOL     OW 9367   7.345   1.729   2.274 -0.4273  0.0790  0.1077
 2930SOL    HW1 9368   7.333   1.792   2.345 -0.5521 -1.1211  1.2021
 2930SOL    HW2 9369   7.265   1.736   2.222 -1.6527 -0.9719  1.7287
 2931SOL     OW 9370   1.292   5.224   5.582 -0.1139  0.1551 -0.0553
 2931SOL    HW1 9371   1.338   5.186   5.657  0.5101  0.8920 -0.0501
 2931SOL    HW2 9372   1.203   5.191   5.589 -0.0505  0.1641  0.9881
 2932SOL     OW 9373   1.841   7.903   5.192 -0.0062 -0.5684 -0.1552
 2932SOL    HW1 9374   1.864   7.838   5.259 -1.9256 -1.1038  0.0375
 2932SOL    HW2 9375   1.771   7.955   5.231  1.1084  1.3140 -0.5260
 2933SOL     OW 9376   2.931   7.668   8.079 -0.5126 -0.2009 -0.3173
 2933SOL    HW1 9377   2.851   7.651   8.128  0.9950 -1.8845  1.7141
 2933SOL    HW2 9378   2.980   7.586   8.083  1.4272  0.8286 -1.3228
 2934SOL     OW 9379   8.833   9.252   0.667  0.4047  0.4980 -0.0987
 2934SOL    HW1 9380   8.892   9.192   0.622  1.5200  1.0040  0.6401
 2934SOL    HW2 9381   8.820   9.213   0.753 -2.2185 -0.7908 -0.9668
 2935SOL     OW 9382   4.339   0.647   0.562 -0.6744 -0.6516 -0.2445
 2935SOL    HW1 9383   4.422   0.602   0.543 -0.6453 -0.2628 -1.0981
 2935SOL    HW2 9384   4.273   0.579   0.553 -0.5279 -0.7731 -0.4210
 2936SOL     OW 9385   6.923   8.168   6.686 -0.6973 -0.1593 -0.1608
 2936SOL    HW1 9386   6.849   8.138   6.738 -0.9440  0.2778 -0.2617
 2936SOL    HW2 9387   6.884   8.206   6.607 -0.4114  0.8534  0.1782
 2937SOL     OW 9388   9.417   8.926   4.821  0.3574 -0.0611  0.2790
 2937SOL    HW1 9389   9.420   8.924   4.726 -2.6142  2.6683 -0.0465
 2937SOL    HW2 9390   9.329   8.898   4.844  0.8648 -0.2489  2.2153
 2938SOL     OW 9391   5.801   9.521   1.999 -0.1286 -0.3732 -0.6072
 2938SOL    HW1 9392   5.826   9.613   1.988 -1.1981 -0.0307 -0.2510
 2938SOL    HW2 9393   5.825   9.500   2.090 -1.9399  0.2418  0.0527
 2939SOL     OW 9394   9.062   7.502   9.806 -0.4054  0.6925  0.2926
 2939SOL    HW1 9395   9.115   7.574   9.772  0.2577 -0.2206 -0.6592
 2939SOL    HW2 9396   9.048   7.524   9.898  0.9886  1.3273  0.3774
 2940SOL     OW 9397   1.213   1.367   5.852 -0.4420 -0.0366 -0.3861
 2940SOL    HW1 9398   1.284   1.345   5.913 -0.8849  0.2222  0.2441
 2940SOL    HW2 9399   1.258   1.399   5.774  0.2403 -3.1621 -1.4087
 2941SOL     OW 9400   7.933   0.618   6.410 -0.0316 -0.2308  0.4465
 2941SOL    HW1 9401   7.856   0.572   6.376  0.2045  0.2735 -0.8423
 2941SOL    HW2 9402   7.960   0.675   6.338  1.8409 -0.7379  0.6906
 2942SOL     OW 9403   1.245   5.262   0.314 -0.1056 -0.5370  0.3312
 2942SOL    HW1 9404   1.162   5.226   0.282 -1.3404  0.3632  2.3161
 2942SOL    HW2 9405   1.283   5.191   0.367 -0.6100 -0.2991  1.0318
 2943SOL     OW 9406   8.810   1.153   8.293 -0.0511  0.1119  1.0190
 2943SOL    HW1 9407   8.748   1.096   8.248  2.1259 -1.5910  0.0108
 2943SOL    HW2 9408   8.755   1.221   8.333 -2.3168  0.6080 -2.4900
 2944SOL     OW 9409   6.663   9.221   9.713  0.0595 -0.0537 -0.2392
 2944SOL    HW1 9410   6.732   9.275   9.751  0.5317 -0.5044 -0.4427
 2944SOL    HW2 9411   6.619   9.182   9.789 -0.2748  0.5956 -0.0940
 2945SOL     OW 9412   9.535   1.410   8.213  0.0997  0.1859 -0.6959
 2945SOL    HW1 9413   9.558   1.481   8.273 -0.6869  0.2258 -0.4309
 2945SOL    HW2 9414   9.440   1.403   8.220  0.2609 -1.6908  0.1884
 2946SOL     OW 9415   5.978   4.440   0.286 -0.1186  0.2221 -0.0031
 2946SOL    HW1 9416   5.995   4.533   0.300 -1.0957  0.1420  2.2106
 2946SOL    HW2 9417   5.882   4.432   0.289 -0.1206 -0.7200 -1.3873
 2947SOL     OW 9418   4.879   3.836   5.174 -0.3274  0.0622  0.0471
 2947SOL    HW1 9419   4.828   3.791   5.106 -1.9246 -0.1369  1.3263
 2947SOL    HW2 9420   4.890   3.925   5.140 -1.8317  0.2029 -0.1441
 2948SOL     OW 9421   2.607   6.354   4.717 -0.7860 -0.7086  0.3611
 2948SOL    HW1 9422   2.627   6.324   4.806  1.0057 -1.7314 -0.3270
 2948SOL    HW2 9423   2.663   6.301   4.661 -1.4820  0.2887 -1.3581
 2949SOL     OW 9424   4.070   0.753   2.076  0.0432  0.6437 -0.9429
 2949SOL    HW1 9425   4.067   0.736   2.170 -1.4973  0.6815 -0.9516
 2949SOL    HW2 9426   4.127   0.685   2.041 -1.2552 -0.8819 -0.2447
 2950SOL     OW 9427   1.416   9.518   8.853  0.6832 -0.2299  0.2224
 2950SOL    HW1 9428   1.509   9.535   8.868  0.6181 -0.0651  0.4425
 2950SOL    HW2 9429   1.412   9.424   8.833  0.9227 -0.1909 -0.0244
 2951SOL     OW 9430   3.974   8.319   6.627  1.2217  0.4480  0.1954
 2951SOL    HW1 9431   4.004   8.231   6.650  0.6452  0.0119 -0.6448
 2951SOL    HW2 9432   3.886   8.326   6.665  1.2078  0.6034  0.1363
 2952SOL     OW 9433   7.037   7.192   2.959 -0.0588 -0.0439  0.0908
 2952SOL    HW1 9434   7.041   7.108   3.005  0.8511 -1.0156 -1.6505
 2952SOL    HW2 9435   6.999   7.252   3.022 -0.8581 -1.7892  1.3599
 2953SOL     OW 9436   4.430   5.116   4.888  0.1218  0.7621  0.2229
 2953SOL    HW1 9437   4.461   5.028   4.867 -0.8827  0.7262 -1.3011
 2953SOL    HW2 9438   4.398   5.109   4.978  0.4659 -0.3196  0.2767
 2954SOL     OW 9439   2.363   9.189   5.145  0.1241  0.3539  0.0677
 2954SOL    HW1 9440   2.457   9.181   5.161  0.4299  0.5064 -1.4608
 2954SOL    HW2 9441   2.334   9.098   5.132  0.2231  0.3699 -0.2702
 2955SOL     OW 9442   2.867   0.072   5.469 -0.7088  0.0471  0.5520
 2955SOL    HW1 9443   2.879  -0.016   5.504 -0.5570  0.4093  1.4447
 2955SOL    HW2 9444   2.942   0.122   5.502 -2.3192  1.2634  2.6476
 2956SOL     OW 9445   2.154   4.500   6.153  0.2112  0.3468  1.1162
 2956SOL    HW1 9446   2.163   4.529   6.063  3.1396  0.2619  1.2870
 2956SOL    HW2 9447   2.093   4.426   6.149  0.6521  0.0339 -0.8690
 2957SOL     OW 9448   9.747   6.680   1.453  0.3080 -0.5657 -0.1073
 2957SOL    HW1 9449   9.791   6.765   1.454 -1.4166  0.3612  1.3840
 2957SOL    HW2 9450   9.658   6.698   1.423  0.7427 -2.3874 -2.9039
 2958SOL     OW 9451   8.598   4.787   1.331  0.1056  0.7343  0.1020
 2958SOL    HW1 9452   8.523   4.728   1.332  1.1866 -0.7070 -0.1525
 2958SOL    HW2 9453   8.598   4.828   1.417 -0.3787 -0.0435  0.4812
 2959SOL     OW 9454   5.064   4.921   5.687 -0.2653 -0.2994 -0.2003
 2959SOL    HW1 9455   5.041   4.854   5.752 -0.4628 -0.0900 -0.0505
 2959SOL    HW2 9456   5.072   4.873   5.605  0.2367 -0.6079  0.0252
 2960SOL     OW 9457   9.533   2.027   2.537 -0.2282 -0.6352  0.1565
 2960SOL    HW1 9458   9.606   1.967   2.549 -0.6309 -1.5420 -1.5404
 2960SOL    HW2 9459   9.569   2.113   2.557  1.4058 -1.0251 -0.9084
 2961SOL     OW 9460   8.920   9.624   2.729  0.3500 -0.6242 -0.0993
 2961SOL    HW1 9461   8.921   9.636   2.823 -0.5643 -1.2458  0.0026
 2961SOL    HW2 9462   8.998   9.670   2.698  0.9425 -0.8457  1.0071
 2962SOL     OW 9463   5.330   1.519   6.808  0.1594 -0.4333 -0.0132
 2962SOL    HW1 9464   5.295   1.536   6.895 -1.3442 -0.4312 -0.5853
 2962SOL    HW2 9465   5.422   1.546   6.813  0.1176 -0.5085  1.5766
 2963SOL     OW 9466   1.464   6.785   6.098  0.2482  0.1729  0.1844
 2963SOL    HW1 9467   1.549   6.811   6.133  0.9562 -1.4729 -0.2433
 2963SOL    HW2 9468   1.453   6.694   6.126 -1.7887  0.5995  0.9698
 2964SOL     OW 9469   0.297   5.769   0.308 -0.4048 -0.2955 -0.9577
 2964SOL    HW1 9470   0.217   5.759   0.256 -0.8745  0.4343 -0.3839
 2964SOL    HW2 9471   0.267   5.774   0.398  0.4340 -2.0961 -0.5218
 2965SOL     OW 9472   0.929   4.135   4.019  0.3934 -0.1962 -0.1124
 2965SOL    HW1 9473   0.855   4.118   4.077  0.5801  0.5417  0.3575
 2965SOL    HW2 9474   0.963   4.219   4.049  1.8604 -0.8588  0.1496
 2966SOL     OW 9475   2.421   6.415   6.011  0.8195 -0.0004  0.1115
 2966SOL    HW1 9476   2.390   6.401   5.921  0.3590 -3.5607  0.6765
 2966SOL    HW2 9477   2.341   6.424   6.063  1.0564  0.7268  0.3651
 2967SOL     OW 9478   2.900   8.671   0.563  0.0957  0.0968  0.0321
 2967SOL    HW1 9479   2.842   8.747   0.559 -0.2755 -0.2067 -3.0505
 2967SOL    HW2 9480   2.988   8.707   0.551  0.1700  0.2195  0.8970
 2968SOL     OW 9481   6.709   6.375   4.906  0.0023 -0.3753  0.3189
 2968SOL    HW1 9482   6.804   6.384   4.914  0.3093 -1.6040 -1.3852
 2968SOL    HW2 9483   6.683   6.449   4.851  0.3106 -1.2059 -0.9839
 2969SOL     OW 9484   9.914   1.171   4.631 -0.2018  0.4333 -0.0876
 2969SOL    HW1 9485   9.848   1.218   4.682 -0.1840  0.4815 -0.1097
 2969SOL    HW2 9486   9.955   1.112   4.694 -0.3554  0.3095 -0.1020
 2970SOL     OW 9487   4.425   5.197   2.434  0.0115  0.0943 -0.4032
 2970SOL    HW1 9488   4.412   5.102   2.438 -2.9034  0.4607  0.8512
 2970SOL    HW2 9489   4.376   5.231   2.508  3.0220  2.4944  0.7172
 2971SOL     OW 9490   4.602   1.053   2.294  0.2212  0.2609 -0.0293
 2971SOL    HW1 9491   4.637   1.097   2.371  3.0678 -1.7997 -0.0068
 2971SOL    HW2 9492   4.582   1.125   2.233 -2.0141  1.9320  2.4536
 2972SOL     OW 9493   7.493   1.617   4.977  0.8166  0.6391 -0.1018
 2972SOL    HW1 9494   7.478   1.523   4.984  0.8854  0.6418  0.0900
 2972SOL    HW2 9495   7.568   1.625   4.917  0.5836  0.5895 -0.4028
 2973SOL     OW 9496   3.684   9.381   3.942 -0.1021 -0.1429  0.2628
 2973SOL    HW1 9497   3.648   9.307   3.990 -0.0956 -0.1769  0.2152
 2973SOL    HW2 9498   3.617   9.401   3.876 -0.0138 -0.2358  0.1445
 2974SOL     OW 9499   1.380   4.674   7.363  0.2201  0.3919 -0.5001
 2974SOL    HW1 9500   1.334   4.742   7.411 -1.2650 -0.6074 -0.4285
 2974SOL    HW2 9501   1.346   4.680   7.274 -1.9119 -1.8236  0.0556
 2975SOL     OW 9502   9.037   5.216   4.494  0.2415 -0.0253  0.0023
 2975SOL    HW1 9503   9.093   5.149   4.532  2.0837  1.7422  0.5502
 2975SOL    HW2 9504   9.056   5.213   4.400  1.4156  0.6779  0.2073
 2976SOL     OW 9505   8.127   1.548   8.919 -0.2205 -0.0470 -0.0641
 2976SOL    HW1 9506   8.111   1.550   9.013  0.4526  1.6122  0.0481
 2976SOL    HW2 9507   8.198   1.484   8.908 -0.7776 -0.7705  0.4497
 2977SOL     OW 9508   4.154   4.846   0.054 -0.8498  0.1479  0.4875
 2977SOL    HW1 9509   4.239   4.877   0.084 -1.0032 -0.3318  1.4519
 2977SOL    HW2 9510   4.168   4.754   0.032 -1.0370  0.1661  0.2863
 2978SOL     OW 9511   3.890   2.054   7.208 -0.0192 -0.2240  0.4288
 2978SOL    HW1 9512   3.979   2.075   7.181  0.4555  1.0277  2.6793
 2978SOL    HW2 9513   3.841   2.047   7.126  1.2060  3.5081 -0.8471
 2979SOL     OW 9514   4.158   8.818   2.225 -0.2006  0.1864 -0.5341
 2979SOL    HW1 9515   4.150   8.870   2.304  0.5905  2.2378 -1.7283
 2979SOL    HW2 9516   4.070   8.786   2.208 -0.4500  0.0192  0.9282
 2980SOL     OW 9517   6.042   9.539   5.960 -0.0020  0.2738  0.5328
 2980SOL    HW1 9518   5.961   9.497   5.932  0.5742 -0.4749 -0.0543
 2980SOL    HW2 9519   6.108   9.470   5.956  0.8553  1.0893  0.0943
 2981SOL     OW 9520   6.336   8.639   4.277  0.0596 -0.1116  0.1184
 2981SOL    HW1 9521   6.391   8.561   4.277  1.4325  0.7738 -1.8815
 2981SOL    HW2 9522   6.277   8.627   4.202 -0.0014  0.5621  0.0489
 2982SOL     OW 9523   7.218   8.838   9.041 -0.2945  0.6547  0.3192
 2982SOL    HW1 9524   7.237   8.789   8.961 -0.6088  0.8176  0.1418
 2982SOL    HW2 9525   7.123   8.830   9.051 -0.2821  0.8105  0.5599
 2983SOL     OW 9526   1.379   5.990   9.236  0.0561  0.0182 -0.2149
 2983SOL    HW1 9527   1.434   5.933   9.181  1.1340  1.0691 -0.2702
 2983SOL    HW2 9528   1.442   6.044   9.284 -0.9339  0.8210  0.1962
 2984SOL     OW 9529   7.213   2.186   5.308  0.0900 -0.4661  0.0141
 2984SOL    HW1 9530   7.235   2.172   5.400 -2.5889 -1.0756  0.6612
 2984SOL    HW2 9531   7.232   2.102   5.266 -0.1096 -0.6857  0.3532
 2985SOL     OW 9532   6.036   4.112   8.366  0.0893 -0.2473 -0.4484
 2985SOL    HW1 9533   6.103   4.168   8.406 -1.0708  0.4370  0.5915
 2985SOL    HW2 9534   5.953   4.147   8.397 -0.6890 -3.3548  1.4607
 2986SOL     OW 9535   4.277   4.059   4.041 -0.6539  0.0105 -0.3351
 2986SOL    HW1 9536   4.341   4.111   3.993  0.4729  0.1026  1.2207
 2986SOL    HW2 9537   4.280   3.973   3.999 -0.1860  0.2827 -0.8685
 2987SOL     OW 9538   8.874   6.043   0.834  0.7891 -0.4594 -0.1020
 2987SOL    HW1 9539   8.945   5.983   0.811  1.0307 -0.5016  0.7045
 2987SOL    HW2 9540   8.857   6.025   0.927  1.7160  1.5436  0.5082
 2988SOL     OW 9541   4.876   1.490   6.184 -0.2727 -0.4348  0.5180
 2988SOL    HW1 9542   4.884   1.414   6.241  0.3490  0.2753  1.4079
 2988SOL    HW2 9543   4.952   1.485   6.126 -0.1204 -0.3802  0.7134
 2989SOL     OW 9544   2.617   0.336   3.894  0.6242  0.2425  0.4132
 2989SOL    HW1 9545   2.619   0.317   3.988  1.2525  0.3517  0.4261
 2989SOL    HW2 9546   2.538   0.293   3.862  0.8558 -0.5174  0.8387
 2990SOL     OW 9547   7.598   0.239   6.129  0.8193  0.3080 -0.0775
 2990SOL    HW1 9548   7.651   0.219   6.206  2.1052 -0.1796 -1.0780
 2990SOL    HW2 9549   7.608   0.334   6.117  0.0511  0.5118  0.7344
 2991SOL     OW 9550   3.916   2.880   5.665  0.1320  0.5605 -0.8056
 2991SOL    HW1 9551   3.998   2.927   5.651 -0.6773  2.4619  0.3682
 2991SOL    HW2 9552   3.876   2.875   5.579  1.4719 -0.4375 -1.4058
 2992SOL     OW 9553   3.261   6.874   7.778  0.0244 -0.3728  0.4545
 2992SOL    HW1 9554   3.331   6.809   7.776  0.1701 -0.2820  1.8068
 2992SOL    HW2 9555   3.205   6.846   7.850 -1.2291 -0.3295 -0.4697
 2993SOL     OW 9556   8.559   6.575   1.344 -0.2608  0.5166  0.5697
 2993SOL    HW1 9557   8.480   6.552   1.294 -0.9655  0.6346  1.5981
 2993SOL    HW2 9558   8.588   6.658   1.307 -0.5631  0.4292  0.1275
 2994SOL     OW 9559   3.899   6.888   5.674  0.1692 -0.3614  0.0305
 2994SOL    HW1 9560   3.875   6.796   5.676  0.1031 -0.3347  1.5745
 2994SOL    HW2 9561   3.981   6.891   5.625 -0.3060 -1.1093 -0.8241
 2995SOL     OW 9562   0.784   5.366   6.924 -0.0982 -0.5473 -0.8216
 2995SOL    HW1 9563   0.691   5.365   6.949  0.4195  1.3843  1.5022
 2995SOL    HW2 9564   0.809   5.273   6.924 -1.7450 -1.0279 -0.2976
 2996SOL     OW 9565   3.649   3.757   5.971 -0.1848 -0.2259  0.2661
 2996SOL    HW1 9566   3.720   3.813   5.939  0.0107 -1.2653 -1.1813
 2996SOL    HW2 9567   3.690   3.672   5.985 -1.0985 -0.8035 -0.4453
 2997SOL     OW 9568   3.865   9.916   9.321  0.2005  0.2205  0.2870
 2997SOL    HW1 9569   3.813   9.947   9.247 -0.3788 -0.1009  0.5591
 2997SOL    HW2 9570   3.879   9.995   9.374  0.3177  0.3798  0.0262
 2998SOL     OW 9571   4.960   5.451   8.478  0.3195  0.3551  0.1799
 2998SOL    HW1 9572   5.017   5.433   8.553  0.5187 -0.2773 -0.1183
 2998SOL    HW2 9573   4.965   5.546   8.467  2.2113  0.2223 -0.5270
 2999SOL     OW 9574   1.002   0.225   7.154 -0.1196  0.2543 -1.1690
 2999SOL    HW1 9575   0.958   0.204   7.071 -0.2431 -1.0357 -0.7998
 2999SOL    HW2 9576   1.068   0.156   7.164 -2.7976 -2.2090  1.7779
 3000SOL     OW 9577   6.801   1.338   9.312 -0.6590  0.0135 -0.1656
 3000SOL    HW1 9578   6.709   1.359   9.299 -0.8047 -1.8222 -2.8590
 3000SOL    HW2 9579   6.800   1.253   9.355 -0.2366 -0.3639 -0.8954
 3001SOL     OW 9580   7.438   9.129   1.280 -0.1959  0.0391 -0.3579
 3001SOL    HW1 9581   7.481   9.200   1.233  0.0778 -0.3228 -0.6564
 3001SOL    HW2 9582   7.345   9.141   1.260 -0.3988  1.4612  1.1435
 3002SOL     OW 9583   3.392   2.333   5.929 -0.1822  0.2786  0.2735
 3002SOL    HW1 9584   3.469   2.299   5.884 -0.9500  0.4632 -1.2690
 3002SOL    HW2 9585   3.416   2.334   6.021  1.6652  0.3547 -0.1667
 3003SOL     OW 9586   5.001   3.957   1.785  0.7174 -0.3017 -0.6085
 3003SOL    HW1 9587   5.041   4.015   1.849 -0.5809  1.0031 -0.9259
 3003SOL    HW2 9588   5.070   3.939   1.722  1.4815 -0.1014  0.1560
 3004SOL     OW 9589   9.641   1.574   4.758  0.1571 -0.4797  0.3959
 3004SOL    HW1 9590   9.665   1.619   4.840  3.5231 -0.4151 -0.4877
 3004SOL    HW2 9591   9.661   1.637   4.689 -2.1639 -0.7205 -0.6163
 3005SOL     OW 9592   6.244   0.131   0.722 -0.0874 -0.0290  0.7509
 3005SOL    HW1 9593   6.334   0.150   0.747  0.6130 -1.7141 -0.3162
 3005SOL    HW2 9594   6.200   0.110   0.804  1.0568 -1.2512  1.0909
 3006SOL     OW 9595   3.276   6.904   0.701 -0.0717 -0.1564  0.5493
 3006SOL    HW1 9596   3.188   6.899   0.739  0.3762 -3.9244  1.5365
 3006SOL    HW2 9597   3.264   6.881   0.609 -0.3357  1.9439  0.0112
 3007SOL     OW 9598   2.246   8.677   7.672  0.1846  0.6020 -0.3912
 3007SOL    HW1 9599   2.264   8.649   7.582 -0.0466  0.0830 -0.2835
 3007SOL    HW2 9600   2.173   8.739   7.665 -0.4871 -0.1748 -0.4818
 3008SOL     OW 9601   7.934   8.076   3.807  0.5744  0.0290 -0.1311
 3008SOL    HW1 9602   7.951   7.987   3.774 -1.5377 -0.3449 -0.3138
 3008SOL    HW2 9603   7.943   8.067   3.902 -0.8675 -0.7186 -0.0375
 3009SOL     OW 9604   3.136   0.412   8.281 -0.7058 -0.1389  0.1197
 3009SOL    HW1 9605   3.116   0.404   8.187 -1.7122 -0.5176  0.3536
 3009SOL    HW2 9606   3.124   0.505   8.300  0.5433  0.1451 -0.3332
 3010SOL     OW 9607   1.672   7.525   9.887 -0.3779  0.3695 -0.2143
 3010SOL    HW1 9608   1.638   7.597   9.835 -0.6767 -0.6453 -1.4727
 3010SOL    HW2 9609   1.644   7.446   9.841  1.3864 -0.5433  0.1825
 3011SOL     OW 9610   6.995   7.888   3.308 -0.0937  0.1923 -0.1254
 3011SOL    HW1 9611   7.005   7.928   3.222  1.5467 -1.1287 -0.5949
 3011SOL    HW2 9612   6.951   7.955   3.361  0.3768  1.6519 -1.5127
 3012SOL     OW 9613   9.019   5.540   6.647  0.0960  0.4915  0.0444
 3012SOL    HW1 9614   8.936   5.556   6.601 -0.3074 -0.2942  0.4922
 3012SOL    HW2 9615   8.999   5.555   6.739  0.4890  0.4318  0.1427
 3013SOL     OW 9616   2.806   5.255   5.647 -0.3346  0.0556 -0.0090
 3013SOL    HW1 9617   2.856   5.279   5.569 -2.0760  1.3613 -0.7926
 3013SOL    HW2 9618   2.839   5.312   5.716  0.1584 -0.0270 -0.1758
 3014SOL     OW 9619   0.266   6.330   7.455 -0.4333  0.2746 -0.0963
 3014SOL    HW1 9620   0.309   6.366   7.377 -2.0793 -0.8085 -1.5971
 3014SOL    HW2 9621   0.247   6.405   7.510  1.0555  1.0337 -0.5604
 3015SOL     OW 9622   9.400   3.444   8.158  0.1224 -0.0302 -0.0227
 3015SOL    HW1 9623   9.464   3.426   8.090  0.4283  0.8396  0.0200
 3015SOL    HW2 9624   9.451   3.471   8.234 -0.2801  0.7076  0.0014
 3016SOL     OW 9625   1.018   1.412   2.920  0.0751 -0.0688  0.1990
 3016SOL    HW1 9626   0.992   1.320   2.914  0.9690 -0.3628  0.6308
 3016SOL    HW2 9627   0.937   1.459   2.936 -0.6600 -0.5719 -1.7898
 3017SOL     OW 9628   6.550   3.620   6.412  0.3560  0.1814 -0.1817
 3017SOL    HW1 9629   6.463   3.657   6.397  0.5132  0.7453  0.2513
 3017SOL    HW2 9630   6.543   3.529   6.384 -1.0055 -0.4041  1.8186
 3018SOL     OW 9631   0.831   2.859   4.326  0.1502 -0.5674  0.7251
 3018SOL    HW1 9632   0.926   2.866   4.335  0.3043 -1.2630 -0.2179
 3018SOL    HW2 9633   0.806   2.935   4.272  0.2241 -0.5800  0.6729
 3019SOL     OW 9634   2.116   6.482   8.782  0.1932 -0.1018  0.0629
 3019SOL    HW1 9635   2.112   6.578   8.786  3.4484  0.0988  1.6089
 3019SOL    HW2 9636   2.170   6.463   8.705  0.2671 -0.6467  0.2440
 3020SOL     OW 9637   7.162   0.219   9.027 -0.6848  0.1841 -0.4101
 3020SOL    HW1 9638   7.244   0.184   9.061 -0.4238  0.1641 -1.0499
 3020SOL    HW2 9639   7.163   0.311   9.053 -0.7911  0.0265  0.1807
 3021SOL     OW 9640   2.510   5.383   8.649 -0.1512  0.9530  0.6459
 3021SOL    HW1 9641   2.570   5.318   8.685  0.1973  0.6319 -0.4821
 3021SOL    HW2 9642   2.423   5.354   8.677  0.1379  0.9447  1.5635
 3022SOL     OW 9643   1.604   9.038   3.124  0.4311  0.2348 -0.4110
 3022SOL    HW1 9644   1.575   9.058   3.213 -1.1598 -1.3045 -0.5370
 3022SOL    HW2 9645   1.699   9.054   3.126  0.6716 -0.9931  1.9343
 3023SOL     OW 9646   9.253   9.075   3.281  0.2699  0.0727  0.0613
 3023SOL    HW1 9647   9.221   8.987   3.262  0.7639  0.3147 -2.0865
 3023SOL    HW2 9648   9.219   9.130   3.210  0.9909  1.3751  0.6759
 3024SOL     OW 9649   8.852   7.517   5.592  0.3906 -0.4342  0.3390
 3024SOL    HW1 9650   8.760   7.491   5.584  0.5111 -0.8396  0.2603
 3024SOL    HW2 9651   8.858   7.556   5.679  0.2044 -0.6564  0.4535
 3025SOL     OW 9652   1.491   0.254   9.558 -0.1073 -0.0766  0.3610
 3025SOL    HW1 9653   1.513   0.189   9.625  2.6236  0.2239 -0.1215
 3025SOL    HW2 9654   1.497   0.338   9.604  0.8059  0.0675  0.0019
 3026SOL     OW 9655   8.550   6.604   1.852 -0.0867 -0.2222 -0.2879
 3026SOL    HW1 9656   8.500   6.561   1.922 -0.6301 -0.7260 -0.9682
 3026SOL    HW2 9657   8.532   6.551   1.775  2.8159 -1.3927 -0.2725
 3027SOL     OW 9658   4.831   6.577   0.819 -0.0484  0.6081 -0.5082
 3027SOL    HW1 9659   4.845   6.651   0.761 -1.0587  1.1776 -0.0538
 3027SOL    HW2 9660   4.755   6.532   0.783 -0.6041  0.8939  0.2828
 3028SOL     OW 9661   3.121   7.389   5.385  0.2534 -0.5882 -0.0679
 3028SOL    HW1 9662   3.116   7.323   5.454  1.0824 -0.7634 -0.1630
 3028SOL    HW2 9663   3.195   7.444   5.410  0.1889 -0.2940 -0.5098
 3029SOL     OW 9664   2.234   2.400   1.889 -0.7273  0.1905  0.2220
 3029SOL    HW1 9665   2.224   2.484   1.843 -0.5769  0.3655  0.5090
 3029SOL    HW2 9666   2.217   2.420   1.980 -1.8982 -0.3377  0.1306
 3030SOL     OW 9667   4.139   9.769   2.754  0.0837 -0.1255  0.1661
 3030SOL    HW1 9668   4.193   9.830   2.803  0.3787 -0.5131  0.3309
 3030SOL    HW2 9669   4.177   9.768   2.666  0.2867 -0.3240  0.2556
 3031SOL     OW 9670   6.830   3.318   3.281 -0.9224 -0.4432 -0.2096
 3031SOL    HW1 9671   6.789   3.271   3.208 -2.7897  1.2754 -0.3795
 3031SOL    HW2 9672   6.789   3.281   3.359  0.0418 -1.3214 -0.1076
 3032SOL     OW 9673   2.266   1.174   9.560  0.0329  0.2664  0.0043
 3032SOL    HW1 9674   2.238   1.108   9.496  1.3718  1.0114 -1.4189
 3032SOL    HW2 9675   2.197   1.240   9.559  0.7072  1.0114 -1.8446
 3033SOL     OW 9676   3.205   2.503   8.188  0.0723  0.4347  0.2722
 3033SOL    HW1 9677   3.150   2.567   8.143  1.3809  1.6112  0.2790
 3033SOL    HW2 9678   3.149   2.426   8.197 -0.8714  0.8366 -1.6190
 3034SOL     OW 9679   7.981   7.707   3.846 -0.6705 -0.4516 -0.1006
 3034SOL    HW1 9680   8.036   7.742   3.776 -0.5172  0.0007  0.2423
 3034SOL    HW2 9681   8.041   7.660   3.903 -0.6596 -0.0857  0.1926
 3035SOL     OW 9682   0.945   8.863   5.029 -0.4593  0.5765 -0.0016
 3035SOL    HW1 9683   0.971   8.771   5.041 -1.4199  0.4801  1.6625
 3035SOL    HW2 9684   0.891   8.882   5.106  1.2264  3.1062  0.6499
 3036SOL     OW 9685   7.394   8.496   4.785 -0.3914 -0.5234 -0.2227
 3036SOL    HW1 9686   7.465   8.560   4.778 -0.3934 -0.3381  1.2550
 3036SOL    HW2 9687   7.320   8.537   4.740  0.6685 -1.1661 -2.7536
 3037SOL     OW 9688   5.039   3.281   4.283  0.6290 -0.1338  0.0479
 3037SOL    HW1 9689   5.106   3.304   4.218  0.2507  0.0673 -0.2746
 3037SOL    HW2 9690   5.033   3.358   4.340 -0.3064  0.4161 -0.7551
 3038SOL     OW 9691   5.412   8.333   5.184  0.5398 -0.2680 -0.7196
 3038SOL    HW1 9692   5.475   8.405   5.192  1.4071 -1.0335 -0.5846
 3038SOL    HW2 9693   5.465   8.257   5.160 -0.1547 -1.2286  0.6672
 3039SOL     OW 9694   9.415   4.583   8.130 -0.1726  0.1637 -0.2114
 3039SOL    HW1 9695   9.495   4.613   8.173  0.5577 -0.8947 -0.7914
 3039SOL    HW2 9696   9.355   4.565   8.202  0.1444  0.8446  0.2361
 3040SOL     OW 9697   7.031   9.562   5.881 -0.0761  0.2740 -0.2682
 3040SOL    HW1 9698   6.994   9.474   5.869  0.5346  0.1231 -1.1751
 3040SOL    HW2 9699   7.026   9.602   5.794  0.5025  0.7907 -0.0734
 3041SOL     OW 9700   4.111   0.091   4.794 -0.2704  0.1142 -0.2251
 3041SOL    HW1 9701   4.139   0.006   4.760  1.0790  0.5091 -0.1499
 3041SOL    HW2 9702   4.090   0.142   4.715  0.4525  0.2219 -0.3531
 3042SOL     OW 9703   7.141   1.241   1.680 -1.0180 -0.1168  0.4023
 3042SOL    HW1 9704   7.112   1.329   1.657  1.8145  0.7850 -0.1057
 3042SOL    HW2 9705   7.147   1.242   1.776  1.5109  1.2446  0.3259
 3043SOL     OW 9706   0.179   9.156   7.756 -0.0106 -0.7228 -0.1853
 3043SOL    HW1 9707   0.182   9.146   7.851  3.5610 -1.2700 -0.2098
 3043SOL    HW2 9708   0.164   9.068   7.722  2.8201 -1.3801 -0.0410
 3044SOL     OW 9709   4.795   8.246   4.216  0.4164 -0.0337  0.3869
 3044SOL    HW1 9710   4.882   8.282   4.199  0.5970 -0.6366  0.0044
 3044SOL    HW2 9711   4.808   8.151   4.212 -0.1663 -0.1327  0.7958
 3045SOL     OW 9712   8.405   0.680   0.534  0.1497 -0.4903  0.1207
 3045SOL    HW1 9713   8.413   0.677   0.630 -1.9109 -0.6455  0.3190
 3045SOL    HW2 9714   8.408   0.588   0.507  0.1299 -0.4814  0.0881
 3046SOL     OW 9715   3.913   0.812   1.179 -0.9286  0.8118 -0.1717
 3046SOL    HW1 9716   4.006   0.792   1.190 -1.1868 -1.5686 -1.6230
 3046SOL    HW2 9717   3.912   0.894   1.129  0.4018  0.5393 -0.6957
 3047SOL     OW 9718   6.689   9.631   4.151  0.2394  0.3817  0.6166
 3047SOL    HW1 9719   6.597   9.654   4.144 -0.3026 -2.0764 -3.0616
 3047SOL    HW2 9720   6.692   9.536   4.141  3.1018  0.0412  3.0901
 3048SOL     OW 9721   9.797   7.317   1.618 -0.8935 -0.1430 -0.1817
 3048SOL    HW1 9722   9.883   7.274   1.615  0.0029  1.4652  0.9008
 3048SOL    HW2 9723   9.734   7.245   1.611  0.5045 -1.2381 -2.4119
 3049SOL     OW 9724   6.360   7.356   1.448 -0.1868 -0.5522  0.5259
 3049SOL    HW1 9725   6.351   7.448   1.473 -0.6773 -0.6160  0.5871
 3049SOL    HW2 9726   6.450   7.333   1.474 -0.3489 -0.3306  1.3254
 3050SOL     OW 9727   5.125   1.628   9.076  0.2639 -0.2220  0.3623
 3050SOL    HW1 9728   5.162   1.696   9.132  1.2112 -0.0322 -0.4713
 3050SOL    HW2 9729   5.058   1.586   9.130  0.7000  0.3857  1.3976
 3051SOL     OW 9730   7.402   1.984   3.110  0.1960  0.1386  0.0744
 3051SOL    HW1 9731   7.441   1.901   3.139  0.4211  0.8069  1.7704
 3051SOL    HW2 9732   7.371   2.026   3.190 -2.0160  0.6732 -0.9976
 3052SOL     OW 9733   7.117   3.673   1.710 -0.2901 -0.2753  0.1714
 3052SOL    HW1 9734   7.089   3.663   1.801  0.0822 -0.2127  0.2942
 3052SOL    HW2 9735   7.180   3.602   1.696  0.4376  0.3376  0.2784
 3053SOL     OW 9736   8.378   8.619   0.725 -0.3488 -0.3814  0.3019
 3053SOL    HW1 9737   8.313   8.586   0.787 -0.8196 -2.1736 -1.0346
 3053SOL    HW2 9738   8.457   8.569   0.745 -0.3397 -0.5585 -0.1630
 3054SOL     OW 9739   9.306   4.255   3.714 -0.4006 -0.0898 -0.5958
 3054SOL    HW1 9740   9.401   4.249   3.725 -0.2964  1.1439 -0.7378
 3054SOL    HW2 9741   9.272   4.176   3.757  0.7515 -1.1605 -1.5619
 3055SOL     OW 9742   8.775   9.716   0.798  0.1816 -0.9219 -0.5122
 3055SOL    HW1 9743   8.781   9.629   0.837  0.1726 -0.2223  1.1206
 3055SOL    HW2 9744   8.860   9.757   0.816 -0.5415  0.1466  0.6336
 3056SOL     OW 9745   6.509   0.230   0.835  0.0243 -0.1504  0.2368
 3056SOL    HW1 9746   6.488   0.264   0.923  1.2086  0.9098  0.1381
 3056SOL    HW2 9747   6.517   0.308   0.781 -0.7926 -0.8028 -0.8575
 3057SOL     OW 9748   4.385   7.826   6.351  0.1884  0.0085 -0.1000
 3057SOL    HW1 9749   4.294   7.828   6.322  0.6284  1.2666 -1.5667
 3057SOL    HW2 9750   4.387   7.763   6.422 -1.9282  0.3691  0.3300
 3058SOL     OW 9751   3.748   6.494   8.276  0.1016 -0.1739  0.0391
 3058SOL    HW1 9752   3.746   6.589   8.291 -0.0596  0.0798 -1.4720
 3058SOL    HW2 9753   3.808   6.461   8.344  1.3852  1.1990 -0.3607
 3059SOL     OW 9754   2.489   4.905   8.660  0.9656 -0.3102  0.6172
 3059SOL    HW1 9755   2.394   4.902   8.644  0.8293  0.5448  1.2155
 3059SOL    HW2 9756   2.515   4.993   8.634  2.2865 -1.5937 -3.0306
 3060SOL     OW 9757   2.345   8.882   9.384 -0.2840  0.6715 -0.6115
 3060SOL    HW1 9758   2.264   8.839   9.413  1.2839 -0.5766  2.4315
 3060SOL    HW2 9759   2.384   8.820   9.322  0.2230 -0.7342  1.0308
 3061SOL     OW 9760   6.514   3.482   6.720  0.0774  0.0576  0.1474
 3061SOL    HW1 9761   6.600   3.461   6.756  0.6054  0.1741 -1.0229
 3061SOL    HW2 9762   6.498   3.414   6.655 -0.9434 -0.2460  0.6868
 3062SOL     OW 9763   4.920   4.215   7.436 -0.5857 -0.2354 -0.6759
 3062SOL    HW1 9764   5.009   4.214   7.401 -0.8381  1.6384 -1.4916
 3062SOL    HW2 9765   4.891   4.125   7.429  1.1553 -0.8459 -0.6098
 3063SOL     OW 9766   2.962   4.329   6.363  0.6801  0.0782  0.5924
 3063SOL    HW1 9767   3.019   4.365   6.295  1.2086 -1.6720  0.0584
 3063SOL    HW2 9768   3.023   4.290   6.426  0.1201 -0.3053  0.8940
 3064SOL     OW 9769   5.074   2.077   5.757  0.2999  0.1130 -0.6480
 3064SOL    HW1 9770   5.047   1.990   5.727  0.7002 -0.1310 -0.3154
 3064SOL    HW2 9771   5.004   2.105   5.815 -0.5518  0.6505 -1.8918
 3065SOL     OW 9772   5.355   2.960   2.235 -0.1010  0.3524  0.6127
 3065SOL    HW1 9773   5.417   2.894   2.265  0.1741  0.0351 -0.5894
 3065SOL    HW2 9774   5.402   3.007   2.166 -0.5724  1.2940  0.9153
 3066SOL     OW 9775   2.475   2.418   8.340 -0.3631  0.2432  0.8418
 3066SOL    HW1 9776   2.441   2.356   8.276  1.0326 -0.6671  0.9358
 3066SOL    HW2 9777   2.504   2.493   8.287 -0.2236 -0.0365  0.5180
 3067SOL     OW 9778   2.826   7.910   7.629  0.3711 -0.0221 -0.0954
 3067SOL    HW1 9779   2.747   7.964   7.625 -0.0784 -0.4410  1.9031
 3067SOL    HW2 9780   2.849   7.907   7.722  2.5105 -0.2776 -0.5712
 3068SOL     OW 9781   6.682   7.174   8.724 -0.2697  0.0111 -0.5012
 3068SOL    HW1 9782   6.601   7.193   8.772 -0.3236 -0.5302 -0.3702
 3068SOL    HW2 9783   6.750   7.220   8.773 -0.1978 -1.2145  0.6046
 3069SOL     OW 9784   7.306   2.142   1.427 -0.4437 -0.7103  0.4663
 3069SOL    HW1 9785   7.396   2.108   1.431 -0.0917  0.1892  0.4325
 3069SOL    HW2 9786   7.279   2.127   1.336 -0.0106 -0.1982  0.2519
 3070SOL     OW 9787   4.067   6.010   8.351 -0.2142 -0.2183  0.5349
 3070SOL    HW1 9788   4.125   6.086   8.345 -2.3279  1.6648  1.9949
 3070SOL    HW2 9789   4.051   6.001   8.445 -1.0166 -1.6836  0.2765
 3071SOL     OW 9790   8.089   0.533   9.376 -0.0232  0.7570 -0.2561
 3071SOL    HW1 9791   7.995   0.528   9.393  0.3119 -2.2544  1.3930
 3071SOL    HW2 9792   8.124   0.581   9.450 -0.1597  1.0239 -0.3643
 3072SOL     OW 9793   9.762   8.676   0.838  0.3936 -0.2465 -0.1789
 3072SOL    HW1 9794   9.786   8.592   0.797  1.2276 -0.9905  1.7418
 3072SOL    HW2 9795   9.759   8.738   0.765  1.4765 -1.5888 -1.4232
 3073SOL     OW 9796   8.152   0.893   7.577  0.1039  0.1606  0.6557
 3073SOL    HW1 9797   8.124   0.978   7.611 -1.0131  0.4494 -0.8999
 3073SOL    HW2 9798   8.180   0.911   7.487 -0.3787 -1.1340  0.2276
 3074SOL     OW 9799   4.992   6.096   8.139 -0.2940  0.4547  0.0498
 3074SOL    HW1 9800   4.966   6.155   8.068  0.3629  0.1160 -0.4852
 3074SOL    HW2 9801   5.044   6.151   8.197  0.1553  0.4507 -0.3457
 3075SOL     OW 9802   1.181   0.766   2.341  0.1483  0.0003 -0.6500
 3075SOL    HW1 9803   1.190   0.721   2.257  0.3110 -1.2753  0.0205
 3075SOL    HW2 9804   1.271   0.772   2.374  0.1552  1.0673 -0.8390
 3076SOL     OW 9805   2.118   8.402   1.022 -0.2249  0.2207  0.0578
 3076SOL    HW1 9806   2.031   8.374   1.053  0.3309 -2.2673 -0.4054
 3076SOL    HW2 9807   2.106   8.417   0.928 -0.7149  2.5836  0.4427
 3077SOL     OW 9808   2.799   4.794   7.292  1.1501  0.3880 -0.3434
 3077SOL    HW1 9809   2.739   4.748   7.234  1.1526  0.9846 -0.8312
 3077SOL    HW2 9810   2.876   4.738   7.296  0.3761 -0.6327  0.6935
 3078SOL     OW 9811   7.033   5.069   5.420  0.4209 -0.5959  0.5680
 3078SOL    HW1 9812   7.081   5.071   5.503  2.7787 -0.3143 -0.7028
 3078SOL    HW2 9813   7.075   4.999   5.370 -2.3924 -2.2526  0.3381
 3079SOL     OW 9814   3.273   8.950   8.043  0.2977  0.4644  0.1575
 3079SOL    HW1 9815   3.219   8.918   7.971  0.4046  0.4452  0.0861
 3079SOL    HW2 9816   3.334   9.011   8.001  0.3043  0.5172  0.2447
 3080SOL     OW 9817   8.391   1.758   0.329 -0.1912 -0.2037 -0.8834
 3080SOL    HW1 9818   8.447   1.718   0.262  1.7074 -1.7508  1.4124
 3080SOL    HW2 9819   8.393   1.851   0.310  0.4942 -0.5665 -2.8161
 3081SOL     OW 9820   2.784   1.557   8.687  0.0871 -0.1524 -0.4368
 3081SOL    HW1 9821   2.780   1.607   8.606  2.2503  0.0384 -0.4607
 3081SOL    HW2 9822   2.715   1.595   8.741 -0.7633  0.3438 -1.8108
 3082SOL     OW 9823   2.929   0.032   1.057 -0.3754 -0.0379 -0.3307
 3082SOL    HW1 9824   2.881  -0.018   1.123  2.8751  0.0980  2.4254
 3082SOL    HW2 9825   3.021   0.005   1.068  0.6367  1.6935 -3.3104
 3083SOL     OW 9826   8.594   6.325   6.936 -0.1111 -0.0444  0.3367
 3083SOL    HW1 9827   8.521   6.275   6.900 -0.0722 -0.1850  0.4505
 3083SOL    HW2 9828   8.618   6.387   6.867 -1.6905  1.4433  1.0547
 3084SOL     OW 9829   1.642   5.537   1.810 -0.1624  0.4539 -0.0086
 3084SOL    HW1 9830   1.677   5.448   1.804  0.9390  0.9399 -1.5160
 3084SOL    HW2 9831   1.601   5.552   1.724  1.2832  2.0087 -0.4848
 3085SOL     OW 9832   9.151   2.261   2.413  0.2909 -0.3849  0.6343
 3085SOL    HW1 9833   9.183   2.211   2.488 -0.9149 -3.0233 -0.4921
 3085SOL    HW2 9834   9.145   2.197   2.342 -0.4166  1.6027 -1.2082
 3086SOL     OW 9835   3.436   4.103   0.028 -0.6182 -0.1304  0.2703
 3086SOL    HW1 9836   3.448   4.156  -0.051  0.2452  1.2298  1.2695
 3086SOL    HW2 9837   3.341   4.102   0.042 -0.5835  2.9003  1.3147
 3087SOL     OW 9838   2.184   6.004   7.725 -0.2435 -0.1257  0.1826
 3087SOL    HW1 9839   2.211   6.029   7.637 -0.4845 -1.9009 -0.4400
 3087SOL    HW2 9840   2.090   6.024   7.728  0.1650  1.9408  0.8286
 3088SOL     OW 9841   7.928   9.946   5.459 -0.1906 -0.5596 -0.4614
 3088SOL    HW1 9842   7.990  10.016   5.436 -0.9643  0.6098  0.8323
 3088SOL    HW2 9843   7.904   9.907   5.375 -0.6307  1.5305 -1.3928
 3089SOL     OW 9844   8.385   6.114   9.464  0.1185  0.2372 -0.6263
 3089SOL    HW1 9845   8.369   6.076   9.550 -0.3049 -0.8656 -1.1756
 3089SOL    HW2 9846   8.481   6.123   9.459  0.1819 -0.2572 -0.2801
 3090SOL     OW 9847   9.813   8.448   2.393 -0.6441  0.3416 -0.1497
 3090SOL    HW1 9848   9.720   8.431   2.380 -0.7962 -1.0045  2.1203
 3090SOL    HW2 9849   9.816   8.521   2.455 -0.3106 -1.0447  1.5539
 3091SOL     OW 9850   7.385   4.794   5.030 -0.2657 -1.0288  0.1922
 3091SOL    HW1 9851   7.365   4.836   4.946 -0.7663 -1.4478  0.0964
 3091SOL    HW2 9852   7.479   4.809   5.042 -0.2238 -0.8127 -0.3576
 3092SOL     OW 9853   4.707   1.023   6.362 -0.0998 -0.3175  0.1752
 3092SOL    HW1 9854   4.692   0.952   6.299  2.4362 -0.7227 -0.0729
 3092SOL    HW2 9855   4.621   1.038   6.401 -1.3682 -1.3944 -1.9663
 3093SOL     OW 9856   5.800   7.400   6.355  0.2426 -0.0818  0.0922
 3093SOL    HW1 9857   5.757   7.370   6.275 -0.0412 -2.5491  1.0690
 3093SOL    HW2 9858   5.866   7.463   6.325  0.2575 -1.0410 -2.0948
 3094SOL     OW 9859   8.527   5.483   5.043 -0.0289  0.2150 -0.1030
 3094SOL    HW1 9860   8.538   5.401   5.092 -1.4398  0.5916  0.8949
 3094SOL    HW2 9861   8.449   5.469   4.990  0.4577  0.4752 -0.9065
 3095SOL     OW 9862   0.094   3.702   1.608  0.7082 -0.6713 -0.0938
 3095SOL    HW1 9863   0.123   3.683   1.697  0.3743 -0.7816 -0.0106
 3095SOL    HW2 9864   0.081   3.797   1.607 -3.2076 -1.0454  1.1668
 3096SOL     OW 9865   2.700   8.703   1.971 -0.1867 -0.0222 -0.1902
 3096SOL    HW1 9866   2.605   8.713   1.969 -0.1593  0.0964 -1.5575
 3096SOL    HW2 9867   2.731   8.745   1.890  1.1204  0.7860  0.6754
 3097SOL     OW 9868   6.182   4.445   1.915 -0.1225 -0.2962  0.0945
 3097SOL    HW1 9869   6.181   4.493   1.832  0.2851  3.1096  1.8552
 3097SOL    HW2 9870   6.264   4.396   1.914 -0.2478 -0.5208 -1.5886
 3098SOL     OW 9871   2.008   0.276   0.235  0.1775  0.1150 -0.2613
 3098SOL    HW1 9872   2.058   0.208   0.191 -1.7437 -1.0179 -0.8468
 3098SOL    HW2 9873   1.926   0.281   0.186  0.3330  3.0966 -0.4218
 3099SOL     OW 9874   1.575   2.336   5.313 -0.3002 -0.5658  0.0987
 3099SOL    HW1 9875   1.546   2.247   5.330 -1.3108  0.1026  2.3438
 3099SOL    HW2 9876   1.669   2.328   5.294 -0.0606 -1.9951  1.6793
 3100SOL     OW 9877   1.327   5.176   4.637 -0.3969  0.5464 -0.1823
 3100SOL    HW1 9878   1.279   5.119   4.577 -0.3447 -0.3775  0.6185
 3100SOL    HW2 9879   1.269   5.251   4.651 -0.8812  0.2382 -0.5113
 3101SOL     OW 9880   2.549   5.052   9.491  0.4637  0.0578  0.0065
 3101SOL    HW1 9881   2.606   5.064   9.415  0.1448  1.3777 -0.0490
 3101SOL    HW2 9882   2.597   5.093   9.563  0.2813 -0.2328  0.2933
 3102SOL     OW 9883   9.873   7.363   6.042  0.3854 -0.2302  0.1611
 3102SOL    HW1 9884   9.927   7.411   5.978 -0.5960 -0.4500 -0.8649
 3102SOL    HW2 9885   9.909   7.389   6.127  1.0300  0.9349 -0.4293
 3103SOL     OW 9886   1.691   2.608   0.146 -0.6061 -0.2739  0.5019
 3103SOL    HW1 9887   1.672   2.521   0.109 -0.4406  0.5999 -1.8425
 3103SOL    HW2 9888   1.748   2.649   0.081  0.1799  1.2354  2.0715
 3104SOL     OW 9889   5.423   7.492   3.671 -0.2031 -0.3450  0.5526
 3104SOL    HW1 9890   5.507   7.535   3.690 -0.1700 -0.4106  0.5538
 3104SOL    HW2 9891   5.362   7.532   3.732 -0.4059  0.4800 -0.1736
 3105SOL     OW 9892   7.888   1.058   6.214  0.2350 -0.3618  0.1299
 3105SOL    HW1 9893   7.884   1.074   6.308  0.0103 -0.4672  0.1399
 3105SOL    HW2 9894   7.814   1.107   6.179  1.5390  1.4303 -0.2521
 3106SOL     OW 9895   3.403   3.670   6.793 -0.6677 -0.1457  0.4898
 3106SOL    HW1 9896   3.325   3.615   6.797 -1.9153  1.5693  3.5970
 3106SOL    HW2 9897   3.386   3.731   6.721 -1.1482 -1.1824 -0.2956
 3107SOL     OW 9898   4.740   3.474   9.319  0.0942  0.2775 -0.3950
 3107SOL    HW1 9899   4.733   3.548   9.379  1.8854  0.9835 -0.9965
 3107SOL    HW2 9900   4.726   3.396   9.374 -0.6677  0.9888  0.4510
 3108SOL     OW 9901   5.678   8.687   2.519  0.5060 -0.4163  0.1264
 3108SOL    HW1 9902   5.611   8.626   2.486 -0.6321  0.3304  0.9594
 3108SOL    HW2 9903   5.693   8.747   2.446  0.1137 -0.4698 -0.0033
 3109SOL     OW 9904   9.073   0.589   2.619 -0.5346 -0.0858  0.1543
 3109SOL    HW1 9905   9.106   0.588   2.529  1.0968  0.0916  0.7081
 3109SOL    HW2 9906   8.980   0.569   2.611  0.0587 -2.7454 -1.3837
 3110SOL     OW 9907   0.096   2.350   2.952 -0.3556 -0.0282 -0.1357
 3110SOL    HW1 9908   0.096   2.354   3.048 -0.1026 -0.6101 -0.1030
 3110SOL    HW2 9909   0.043   2.425   2.925  2.3982  2.2529  0.3555
 3111SOL     OW 9910   6.077   9.452   5.379 -0.3977  0.2418  0.2887
 3111SOL    HW1 9911   5.997   9.503   5.386 -0.1581  0.5412  0.9324
 3111SOL    HW2 9912   6.147   9.515   5.396 -0.1470 -0.5339  2.3923
 3112SOL     OW 9913   0.513   8.434   4.271  1.0236 -0.4291  0.4010
 3112SOL    HW1 9914   0.521   8.495   4.197 -0.4395 -1.3976 -0.6036
 3112SOL    HW2 9915   0.510   8.490   4.348  0.9485  0.7010 -0.3934
 3113SOL     OW 9916   4.651   1.735   5.476 -0.7705  0.4824  0.5307
 3113SOL    HW1 9917   4.695   1.651   5.494 -1.9544  0.2790  2.9162
 3113SOL    HW2 9918   4.652   1.780   5.560  0.5284  3.2919 -0.8651
 3114SOL     OW 9919   8.386   2.457   6.196 -0.1839  0.3745  0.6777
 3114SOL    HW1 9920   8.311   2.493   6.243 -0.8001 -0.1640  0.1442
 3114SOL    HW2 9921   8.453   2.525   6.201  0.3960 -0.2696  3.7020
 3115SOL     OW 9922   4.245   8.556   1.225  0.9042  0.4907 -0.2813
 3115SOL    HW1 9923   4.154   8.583   1.237  0.5149 -0.5458 -0.8099
 3115SOL    HW2 9924   4.296   8.626   1.265 -0.1420  0.7350  0.6923
 3116SOL     OW 9925   6.439   9.255   1.319  0.4211 -0.1919 -0.1401
 3116SOL    HW1 9926   6.487   9.240   1.238  0.2833 -2.2945  0.1187
 3116SOL    HW2 9927   6.352   9.281   1.291  0.1734 -1.5607 -0.6995
 3117SOL     OW 9928   4.350   2.312   8.061  0.0607  0.4862 -0.3040
 3117SOL    HW1 9929   4.266   2.327   8.104 -0.2200  1.3189 -1.1246
 3117SOL    HW2 9930   4.410   2.373   8.104  0.2501 -0.0564  0.2296
 3118SOL     OW 9931   9.715   9.912   3.530  0.0128  0.0598  0.5150
 3118SOL    HW1 9932   9.731   9.833   3.479  0.1173 -0.3247  1.1254
 3118SOL    HW2 9933   9.793   9.965   3.516  0.4927 -0.4800  1.0561
 3119SOL     OW 9934   5.887   3.566   4.232 -0.1151 -0.5443  0.4422
 3119SOL    HW1 9935   5.851   3.491   4.184  3.0749 -1.9113 -0.0877
 3119SOL    HW2 9936   5.968   3.588   4.185  0.3644  1.5722  2.1092
 3120SOL     OW 9937   2.341   8.416   6.207  0.3717  0.0357 -0.2707
 3120SOL    HW1 9938   2.361   8.405   6.114 -0.8951  0.9374 -0.6809
 3120SOL    HW2 9939   2.378   8.502   6.230  3.6244 -1.5388  0.9745
 3121SOL     OW 9940   8.689   2.405   1.146 -0.1663 -0.7640 -0.5001
 3121SOL    HW1 9941   8.614   2.382   1.202  0.9808 -3.1132  0.2292
 3121SOL    HW2 9942   8.738   2.323   1.138  0.6560 -0.0800 -3.5902
 3122SOL     OW 9943   3.176   1.446   1.998  0.2440 -0.5130 -0.1498
 3122SOL    HW1 9944   3.232   1.521   2.019  0.0092 -0.5135  0.4878
 3122SOL    HW2 9945   3.147   1.463   1.908 -1.3369  1.1415  0.6018
 3123SOL     OW 9946   4.615   7.125   2.633  0.1502 -0.0415  0.5369
 3123SOL    HW1 9947   4.707   7.147   2.645  0.4152 -1.4582  1.3948
 3123SOL    HW2 9948   4.570   7.209   2.630  1.5138  0.6981 -0.4362
 3124SOL     OW 9949   4.518   2.475   0.387 -0.1429  0.3911  1.0693
 3124SOL    HW1 9950   4.424   2.464   0.370  0.1474  0.9138 -1.1990
 3124SOL    HW2 9951   4.524   2.555   0.438 -0.8835  0.7291  0.6371
 3125SOL     OW 9952   0.965   3.987   1.757  0.0663  0.2372 -0.2949
 3125SOL    HW1 9953   1.011   4.068   1.736 -1.2207  0.7342 -1.3010
 3125SOL    HW2 9954   0.938   3.952   1.672 -0.1169 -0.8206  0.1807
 3126SOL     OW 9955   7.583   9.648   9.042 -0.2250  0.0185  0.8223
 3126SOL    HW1 9956   7.581   9.599   8.959 -0.7799 -0.9380  1.3728
 3126SOL    HW2 9957   7.655   9.709   9.032  0.1251 -0.5195 -0.1319
 3127SOL     OW 9958   3.594   8.277   5.009  0.2953 -0.1732 -0.8016
 3127SOL    HW1 9959   3.673   8.231   4.980  0.6475  1.3873 -2.4842
 3127SOL    HW2 9960   3.535   8.274   4.934 -0.4121  0.5145 -0.2958
 3128SOL     OW 9961   8.759   1.089   7.108  0.5627  0.2964  0.3480
 3128SOL    HW1 9962   8.749   1.000   7.075  0.8331 -0.1750  1.4979
 3128SOL    HW2 9963   8.749   1.144   7.030 -0.4015 -0.6808 -0.2487
 3129SOL     OW 9964   3.649   9.418   6.569  0.2805  0.0102 -0.1026
 3129SOL    HW1 9965   3.652   9.506   6.531 -0.7359 -0.0265 -0.3151
 3129SOL    HW2 9966   3.654   9.359   6.494  2.9861 -0.2070  0.1512
 3130SOL     OW 9967   1.333   4.405   0.416  0.0484  0.0631  0.4474
 3130SOL    HW1 9968   1.303   4.333   0.472 -0.5571  0.4167  0.5852
 3130SOL    HW2 9969   1.394   4.364   0.354  0.3436 -0.4205  1.0488
 3131SOL     OW 9970   8.695   0.984   2.346 -0.1321 -0.1539  0.9098
 3131SOL    HW1 9971   8.618   0.999   2.292  2.0913  1.3724 -2.1723
 3131SOL    HW2 9972   8.687   1.047   2.418 -1.2907  0.6376  0.1190
 3132SOL     OW 9973   4.320   3.475   0.924  0.0262  0.6091 -0.3048
 3132SOL    HW1 9974   4.375   3.553   0.932  0.4733  0.2948 -0.2660
 3132SOL    HW2 9975   4.382   3.404   0.908 -0.1461 -0.1134  1.8317
 3133SOL     OW 9976   4.078   7.640   2.915  0.1626  0.0051  0.0579
 3133SOL    HW1 9977   4.043   7.559   2.879  1.4918 -0.5344 -0.0655
 3133SOL    HW2 9978   4.148   7.666   2.854  1.0687  0.1789  1.1391
 3134SOL     OW 9979   7.677   2.763   2.256  0.0246 -0.2012 -0.0500
 3134SOL    HW1 9980   7.593   2.808   2.247  0.3302  0.4314  0.1912
 3134SOL    HW2 9981   7.731   2.798   2.185  0.1344 -0.4957 -0.1134
 3135SOL     OW 9982   1.556   7.995   9.511 -0.3672  0.9475 -0.1067
 3135SOL    HW1 9983   1.614   8.027   9.442 -0.8787 -0.4244 -1.2317
 3135SOL    HW2 9984   1.577   8.049   9.587  0.8083  1.9512 -1.0944
 3136SOL     OW 9985   9.119   7.764   9.711  0.4127 -0.3170  0.6589
 3136SOL    HW1 9986   9.028   7.772   9.738  0.1395  2.6979 -0.7105
 3136SOL    HW2 9987   9.115   7.723   9.625  0.0745  1.6802 -0.3347
 3137SOL     OW 9988   3.278   2.002   4.807 -0.2889  0.0605  0.0419
 3137SOL    HW1 9989   3.277   2.004   4.903 -2.7229  0.1050  0.0640
 3137SOL    HW2 9990   3.288   2.093   4.781 -1.5868  0.2924  0.2963
 3138SOL     OW 9991   8.698   4.574   9.349  0.2182 -0.2720 -0.4152
 3138SOL    HW1 9992   8.673   4.610   9.263  0.5170 -1.4077 -0.9979
 3138SOL    HW2 9993   8.778   4.621   9.372 -0.5573  0.9680 -0.1267
 3139SOL     OW 9994   9.781   8.098   9.898 -0.0210 -0.3330 -0.1681
 3139SOL    HW1 9995   9.823   8.181   9.921  1.4519 -0.9266 -0.5445
 3139SOL    HW2 9996   9.767   8.055   9.982  1.6507 -0.7868 -0.0729
 3140SOL     OW 9997   1.128   2.229   6.051 -0.3197  0.5149 -0.3882
 3140SOL    HW1 9998   1.178   2.240   6.132 -0.8657 -1.4824  0.2715
 3140SOL    HW2 9999   1.052   2.287   6.061  1.1878  2.7330 -0.9279
 3141SOL     OW10000   2.678   5.148   8.830  0.0503  0.0845 -0.1530
 3141SOL    HW110001   2.757   5.114   8.787 -0.2301  0.0643 -0.6602
 3141SOL    HW210002   2.628   5.069   8.854  0.8068  0.0364  1.4026
 3142SOL     OW10003   9.973   8.467   0.652 -0.3875  0.1523  0.0762
 3142SOL    HW110004   9.911   8.503   0.588  0.8327  1.7603 -0.2626
 3142SOL    HW210005  10.041   8.425   0.600  0.3637  1.0514  0.2970
 3143SOL     OW10006   5.689   0.811   4.515 -0.0049  0.3369 -0.0502
 3143SOL    HW110007   5.758   0.749   4.490 -0.1663  0.5645 -1.1064
 3143SOL    HW210008   5.630   0.760   4.570  0.7401  0.0018  0.4579
 3144SOL     OW10009   0.942   0.092   5.103 -0.0447  0.1946  0.2514
 3144SOL    HW110010   1.019   0.124   5.056  1.1741 -1.8782  0.6842
 3144SOL    HW210011   0.875   0.080   5.036  0.0355  1.8271 -0.1664
 3145SOL     OW10012   3.183   2.479   2.042  0.2506  0.2718 -0.0815
 3145SOL    HW110013   3.223   2.510   2.123  1.2768 -2.2313  0.4902
 3145SOL    HW210014   3.096   2.450   2.067  1.6581 -3.6028  1.0696
 3146SOL     OW10015   1.022   6.981   4.108  0.2244  0.2859  0.5216
 3146SOL    HW110016   0.990   7.033   4.034 -1.5952  0.0493  1.0901
 3146SOL    HW210017   0.992   6.892   4.088  0.3099  0.1030  1.2061
 3147SOL     OW10018   1.788   4.145   7.966 -0.0718  0.5571  0.4254
 3147SOL    HW110019   1.836   4.150   7.884  1.5472  0.4468  1.3221
 3147SOL    HW210020   1.729   4.221   7.965 -0.6038  0.1494 -1.1208
 3148SOL     OW10021   2.250   1.505   4.877  0.3982 -0.3007  0.7960
 3148SOL    HW110022   2.312   1.578   4.870 -0.6803  0.5754 -0.0238
 3148SOL    HW210023   2.165   1.547   4.895 -0.5171 -1.1978 -1.1005
 3149SOL     OW10024   9.556   0.677   0.519  0.7825  0.2286  0.2861
 3149SOL    HW110025   9.634   0.628   0.491  0.6760  0.5846 -0.6715
 3149SOL    HW210026   9.573   0.766   0.489  1.1036  0.8779  2.2603
 3150SOL     OW10027   1.065   6.101   3.308 -0.4909 -1.0365 -0.3285
 3150SOL    HW110028   1.033   6.065   3.391 -2.1988  0.1685 -0.4079
 3150SOL    HW210029   1.119   6.176   3.334 -0.4839 -1.0570 -0.2839
 3151SOL     OW10030   6.323   1.945   1.641  0.3994  0.0252  0.4219
 3151SOL    HW110031   6.328   1.944   1.736  0.4543 -3.2948  0.4923
 3151SOL    HW210032   6.234   1.915   1.621  0.5055  0.3229 -0.5798
 3152SOL     OW10033   3.251   0.198   0.526 -0.0952  0.3970 -0.0840
 3152SOL    HW110034   3.200   0.194   0.607 -2.4365  0.0990 -1.4595
 3152SOL    HW210035   3.201   0.258   0.470  2.0759  1.5129 -0.9389
 3153SOL     OW10036   4.229   9.932   3.007 -0.0653 -0.6377 -0.9864
 3153SOL    HW110037   4.182   9.955   3.087  2.0679 -0.9327  0.4276
 3153SOL    HW210038   4.199   9.996   2.943 -0.7338  0.5752  0.4544
 3154SOL     OW10039   9.577   3.022   1.517 -0.5030 -0.1495  0.0570
 3154SOL    HW110040   9.503   2.993   1.464 -0.6979  0.7937 -0.1875
 3154SOL    HW210041   9.538   3.077   1.585  0.0676  1.1914 -0.6724
 3155SOL     OW10042   0.719   8.907   1.231  0.2413  0.1934 -0.1064
 3155SOL    HW110043   0.631   8.889   1.265 -0.1329  0.9525 -0.6331
 3155SOL    HW210044   0.749   8.823   1.197 -0.3405 -0.0397 -0.0585
 3156SOL     OW10045   8.414   1.228   4.266 -0.8264  1.0882  0.6406
 3156SOL    HW110046   8.378   1.303   4.314 -0.5744  1.2091  0.6402
 3156SOL    HW210047   8.420   1.258   4.175 -2.1897  0.5490  0.3462
 3157SOL     OW10048   3.004   3.232   1.056 -0.5857  0.0981 -0.2816
 3157SOL    HW110049   3.099   3.240   1.057 -0.5705  1.8420 -3.5689
 3157SOL    HW210050   2.988   3.141   1.031  0.1198 -0.5271  1.3862
 3158SOL     OW10051   1.975   6.840   1.162 -0.1945 -0.2678  0.1497
 3158SOL    HW110052   1.900   6.799   1.205 -1.8795  2.8019  0.4029
 3158SOL    HW210053   2.050   6.816   1.218 -1.6784  0.1806  2.4513
 3159SOL     OW10054   0.956   6.092   8.259 -0.3904 -0.0616  0.1669
 3159SOL    HW110055   1.040   6.099   8.305 -0.6945 -1.5844  1.0111
 3159SOL    HW210056   0.936   6.182   8.233  0.5221  0.6355  1.7139
 3160SOL     OW10057   1.062   9.160   9.371 -0.1944 -0.2815 -0.0325
 3160SOL    HW110058   1.149   9.169   9.410  0.3902 -0.3220 -1.2552
 3160SOL    HW210059   1.032   9.250   9.359 -0.4649 -0.2727  0.6788
 3161SOL     OW10060   4.324   5.291   3.097 -0.5284 -0.0391 -0.1210
 3161SOL    HW110061   4.355   5.207   3.131  0.5098  0.3677 -0.0338
 3161SOL    HW210062   4.229   5.279   3.088 -0.3532 -1.3343 -0.4523
 3162SOL     OW10063   4.422   9.376   4.324  0.1288 -0.0649  0.0872
 3162SOL    HW110064   4.483   9.346   4.257 -0.2109  0.5291 -0.5007
 3162SOL    HW210065   4.365   9.438   4.279 -1.0506 -0.7579  0.5651
 3163SOL     OW10066   1.679  10.002   6.411  0.3988  0.2502 -1.1734
 3163SOL    HW110067   1.687   9.908   6.395  2.6769 -0.0876  1.2024
 3163SOL    HW210068   1.681  10.011   6.506 -2.2350  2.6096 -1.2186
 3164SOL     OW10069   9.272   6.313   4.326  0.1706  0.0605 -0.2523
 3164SOL    HW110070   9.291   6.285   4.237  0.4696  1.3979 -0.6194
 3164SOL    HW210071   9.190   6.362   4.319  0.8309  1.2482 -0.0265
 3165SOL     OW10072   6.911   0.936   5.740  0.0814  0.5410  0.1653
 3165SOL    HW110073   6.913   1.023   5.779  1.6298 -0.0573  1.5431
 3165SOL    HW210074   6.996   0.927   5.696 -0.4590  0.0829 -0.8144
 3166SOL     OW10075   3.903   7.216   0.002  0.0997  0.1933 -0.0851
 3166SOL    HW110076   3.831   7.245   0.058 -1.5924 -4.3660  0.4862
 3166SOL    HW210077   3.968   7.180   0.063  0.9398  0.4068 -0.8292
 3167SOL     OW10078   9.401   5.098   3.936  0.1449  0.4566  0.3092
 3167SOL    HW110079   9.362   5.127   3.854 -0.9338  0.9265  0.9743
 3167SOL    HW210080   9.494   5.089   3.916  0.0164  1.3010 -0.7573
 3168SOL     OW10081   2.893   6.372   7.228 -0.0049 -0.1992 -0.3501
 3168SOL    HW110082   2.872   6.407   7.314  1.3619 -0.8326  0.2570
 3168SOL    HW210083   2.812   6.385   7.177 -1.0108 -0.2996  1.1596
 3169SOL     OW10084   2.977   4.804   7.918 -0.3018 -0.5792 -0.2798
 3169SOL    HW110085   2.888   4.836   7.921 -0.3236 -0.5987 -0.6686
 3169SOL    HW210086   3.018   4.839   7.997 -0.8857 -1.2619  0.3425
 3170SOL     OW10087   7.788   2.518   3.471  0.5351  0.3944 -0.3153
 3170SOL    HW110088   7.822   2.606   3.454 -0.4822  0.8733  0.0659
 3170SOL    HW210089   7.713   2.509   3.412  1.1911 -0.5936 -1.0434
 3171SOL     OW10090   2.524   1.354   4.279 -0.4210  0.1075 -0.4747
 3171SOL    HW110091   2.532   1.263   4.309 -0.9709 -0.2025 -1.1996
 3171SOL    HW210092   2.515   1.346   4.184 -1.7626  0.8267 -0.4289
 3172SOL     OW10093   1.368   9.346   9.600  0.2884  0.0536  0.5460
 3172SOL    HW110094   1.407   9.301   9.526  1.0437 -0.5375  1.2834
 3172SOL    HW210095   1.439   9.356   9.663 -0.0731  1.5045  0.7705
 3173SOL     OW10096   3.100   1.445   4.692 -0.5610  0.3430 -0.0273
 3173SOL    HW110097   3.076   1.520   4.637  1.3198  1.6161  0.7979
 3173SOL    HW210098   3.036   1.446   4.763  0.1668  1.9496  0.6362
 3174SOL     OW10099   0.106   0.020   7.116  0.3382  0.0814 -0.5980
 3174SOL    HW110100   0.155   0.086   7.067 -1.4987 -0.7924 -3.9078
 3174SOL    HW210101   0.017   0.054   7.120  0.3550  0.0825  2.3199
 3175SOL     OW10102   6.653   9.456   1.990  0.0566 -0.1461 -0.3381
 3175SOL    HW110103   6.640   9.551   1.991 -0.1392 -0.1705  0.4741
 3175SOL    HW210104   6.703   9.438   2.070 -0.4966 -0.7936 -0.1230
 3176SOL     OW10105   2.813   0.654   8.565  0.1676  0.1430  0.0867
 3176SOL    HW110106   2.906   0.665   8.583  0.3671 -0.9093 -0.2358
 3176SOL    HW210107   2.800   0.694   8.479  1.0362 -2.6270 -1.4307
 3177SOL     OW10108   7.646   9.106   6.970  0.4073 -0.0036  0.0789
 3177SOL    HW110109   7.589   9.143   7.037  1.0656 -0.4520  0.8972
 3177SOL    HW210110   7.590   9.045   6.922  0.0287  0.0383  0.4560
 3178SOL     OW10111   6.441   5.809   1.967  0.0974 -0.0124  0.2280
 3178SOL    HW110112   6.404   5.823   1.879  1.3393  0.0495 -0.3048
 3178SOL    HW210113   6.421   5.889   2.015  0.2225  0.3367 -0.2987
 3179SOL     OW10114   6.843   2.200   4.768 -0.3618 -0.2808  0.0322
 3179SOL    HW110115   6.786   2.256   4.716  0.2713  1.1483  0.8234
 3179SOL    HW210116   6.812   2.111   4.751  0.7248 -0.0694 -3.9181
 3180SOL     OW10117   8.300   9.268   7.637  0.1202  0.2750 -0.3495
 3180SOL    HW110118   8.216   9.315   7.643 -0.5471 -0.8115 -0.7775
 3180SOL    HW210119   8.284   9.200   7.572  0.8288 -0.9903  0.7654
 3181SOL     OW10120   8.873   7.434   1.541 -0.3067 -0.1144 -0.2896
 3181SOL    HW110121   8.798   7.461   1.594 -1.4231  0.1149 -1.8992
 3181SOL    HW210122   8.917   7.516   1.518  1.1172 -0.3036  1.4968
 3182SOL     OW10123   3.440   2.084   2.764  0.0584  0.4041  0.1988
 3182SOL    HW110124   3.420   2.144   2.835  0.5694 -0.0507  0.7346
 3182SOL    HW210125   3.429   1.997   2.802 -0.1899  0.1566 -0.4287
 3183SOL     OW10126   2.779   5.984   7.771 -0.4593  0.0474 -0.1894
 3183SOL    HW110127   2.701   6.001   7.718 -0.6097 -4.0103 -1.5784
 3183SOL    HW210128   2.778   5.890   7.787  1.8918  0.4262  3.5438
 3184SOL     OW10129   7.447   7.164   2.813 -0.3459  0.6411  0.0329
 3184SOL    HW110130   7.516   7.220   2.849  1.5934 -0.6002 -1.6061
 3184SOL    HW210131   7.417   7.211   2.735  1.4588 -0.6154 -1.4878
 3185SOL     OW10132   5.486   0.454   0.236 -0.3679 -0.0866  0.2286
 3185SOL    HW110133   5.400   0.417   0.259  0.7842 -2.6307  0.7392
 3185SOL    HW210134   5.508   0.511   0.310 -1.6745  0.7773 -0.0071
 3186SOL     OW10135   1.231   0.439   4.242  0.5452 -0.3891  0.3336
 3186SOL    HW110136   1.170   0.497   4.197 -0.7586 -1.9797 -0.0264
 3186SOL    HW210137   1.276   0.392   4.172  2.2814  0.7860  0.5893
 3187SOL     OW10138   9.922   0.975   4.044 -0.0491  0.6319 -0.2246
 3187SOL    HW110139   9.947   0.901   3.988 -0.0898 -0.1290  0.7318
 3187SOL    HW210140   9.988   1.042   4.027  0.6510 -0.0552 -0.2698
 3188SOL     OW10141   1.660   7.379   9.567 -0.4618  0.1971 -0.2401
 3188SOL    HW110142   1.656   7.371   9.472  0.6808  0.7685 -0.3488
 3188SOL    HW210143   1.660   7.474   9.583 -0.5437  0.1052  0.3321
 3189SOL     OW10144   5.506   5.290   8.022  0.4814  0.1910 -0.1165
 3189SOL    HW110145   5.443   5.228   7.985  1.2350 -0.7567  0.1425
 3189SOL    HW210146   5.455   5.340   8.085 -0.3306  0.3980 -0.9154
 3190SOL     OW10147   4.939   9.610   8.175 -0.0823 -0.4666 -0.5667
 3190SOL    HW110148   4.844   9.599   8.187  0.3304 -2.1403  2.0732
 3190SOL    HW210149   4.953   9.704   8.189 -1.3987 -0.0773 -1.6348
 3191SOL     OW10150   9.203   2.419   3.410 -0.9635 -0.2082  0.1187
 3191SOL    HW110151   9.223   2.508   3.438 -1.0051 -0.0420 -0.3683
 3191SOL    HW210152   9.287   2.381   3.384 -1.1424  0.2433 -1.2223
 3192SOL     OW10153   4.935   9.195   4.614  0.1404 -0.4548 -0.2965
 3192SOL    HW110154   4.893   9.138   4.678  1.1991  0.7041  1.5386
 3192SOL    HW210155   4.915   9.156   4.529 -1.1335 -2.1904  0.7445
 3193SOL     OW10156   5.247   3.215   3.810  0.0446  0.1035  0.0200
 3193SOL    HW110157   5.179   3.189   3.872 -0.0557  0.6538  0.1450
 3193SOL    HW210158   5.231   3.162   3.732  0.1298 -0.5444  0.4378
 3194SOL     OW10159   0.935   7.417   9.579 -0.4773  0.4316  0.2863
 3194SOL    HW110160   1.017   7.454   9.545 -0.7433  1.5866  0.8221
 3194SOL    HW210161   0.867   7.475   9.545 -1.6039 -2.5908 -3.3072
 3195SOL     OW10162   9.296   9.590   6.552 -0.0550  1.1709 -0.2157
 3195SOL    HW110163   9.205   9.610   6.572  0.1340 -0.0265  2.1491
 3195SOL    HW210164   9.295   9.499   6.522  0.5129  0.5514  1.5311
 3196SOL     OW10165   9.468   9.552   2.460  0.2011 -0.0555  1.0198
 3196SOL    HW110166   9.455   9.483   2.395 -0.4964  0.1262  0.9519
 3196SOL    HW210167   9.410   9.622   2.431  2.6721  1.5752 -0.3121
 3197SOL     OW10168   8.078   1.111   7.177  0.0593  0.4583 -0.5901
 3197SOL    HW110169   8.129   1.044   7.223 -0.5471  0.7341  0.5271
 3197SOL    HW210170   8.088   1.189   7.231 -0.5756  0.8318 -1.0062
 3198SOL     OW10171   1.461   9.196   2.676  0.5283  1.0601 -0.0890
 3198SOL    HW110172   1.484   9.103   2.685 -0.5681  0.8507  0.6877
 3198SOL    HW210173   1.393   9.197   2.608  1.4032  1.4519 -0.9825
 3199SOL     OW10174   8.467   1.418   0.600 -0.0067 -0.6041 -0.0173
 3199SOL    HW110175   8.411   1.340   0.598 -1.8573  0.6810 -0.0725
 3199SOL    HW210176   8.518   1.407   0.680 -0.7879 -1.5133  0.3885
 3200SOL     OW10177   6.428   3.645   7.540 -0.2739  0.0766  0.4802
 3200SOL    HW110178   6.413   3.555   7.571  0.8840 -0.6735 -1.0086
 3200SOL    HW210179   6.510   3.639   7.491 -1.2140  1.5397 -1.3380
 3201SOL     OW10180   7.945   1.100   2.411 -0.0221  0.0267  0.0771
 3201SOL    HW110181   7.852   1.124   2.418  0.0903  0.2048  1.2765
 3201SOL    HW210182   7.960   1.043   2.487  0.5250 -1.1418 -0.8837
 3202SOL     OW10183   1.860   3.556   9.949 -0.0697 -0.5460 -0.1122
 3202SOL    HW110184   1.776   3.571   9.906  0.4555 -0.8667 -1.2887
 3202SOL    HW210185   1.921   3.536   9.878  0.6917 -1.7716  0.8293
 3203SOL     OW10186   6.093   5.609   4.310 -0.0341 -0.0121 -0.4268
 3203SOL    HW110187   6.145   5.563   4.376  0.2407 -0.4576 -0.9446
 3203SOL    HW210188   6.005   5.614   4.347 -0.0303 -0.8278 -0.3037
 3204SOL     OW10189   1.117   9.475   2.484  0.0496 -0.4224 -0.2065
 3204SOL    HW110190   1.079   9.474   2.396  0.5745 -1.5616 -0.4410
 3204SOL    HW210191   1.167   9.557   2.488  0.7150 -0.7541 -1.2812
 3205SOL     OW10192   5.501   7.431   5.131 -0.6921 -0.5792  0.5076
 3205SOL    HW110193   5.590   7.443   5.164 -0.7963 -1.1381  1.0140
 3205SOL    HW210194   5.510   7.429   5.036 -0.0645 -1.3745  0.5810
 3206SOL     OW10195   9.189   6.551   3.736  0.2270  0.9152 -0.0009
 3206SOL    HW110196   9.255   6.614   3.764  1.1130  0.1280 -0.2896
 3206SOL    HW210197   9.236   6.488   3.682 -0.8295  0.5426 -0.5266
 3207SOL     OW10198   0.734   3.970   4.799 -0.0196  0.5200  0.0862
 3207SOL    HW110199   0.673   4.029   4.755 -0.9683  0.1724  0.8989
 3207SOL    HW210200   0.819   3.990   4.761 -0.7417  0.4955 -1.6393
 3208SOL     OW10201   0.064   7.590   4.098 -0.3072  0.1593 -0.1380
 3208SOL    HW110202  -0.026   7.594   4.128 -0.8019  0.6371 -1.6185
 3208SOL    HW210203   0.058   7.577   4.003  1.1583  1.3909 -0.4443
 3209SOL     OW10204   4.500   9.713   4.936 -0.3844  0.1906  0.2886
 3209SOL    HW110205   4.573   9.686   4.991  0.0995 -0.1070 -0.4850
 3209SOL    HW210206   4.448   9.771   4.991  0.4273  0.3918  0.8492
 3210SOL     OW10207   3.461   1.608   1.430  0.4883  0.0561  0.6318
 3210SOL    HW110208   3.480   1.659   1.509  0.0638  0.7217  0.3158
 3210SOL    HW210209   3.536   1.549   1.421  1.3188  1.0646  0.6639
 3211SOL     OW10210   2.269   8.572   9.318  0.1709 -0.6334 -0.4709
 3211SOL    HW110211   2.363   8.556   9.308  0.6042  1.9178 -1.2994
 3211SOL    HW210212   2.230   8.540   9.236  0.5189 -0.4823 -0.6981
 3212SOL     OW10213   1.111   4.048   4.961 -0.2325  0.1831 -0.2865
 3212SOL    HW110214   1.070   3.973   5.004  0.0386  0.3875  0.3331
 3212SOL    HW210215   1.177   4.009   4.903  0.6834 -0.0241  0.8596
 3213SOL     OW10216   1.805   0.839   1.987 -0.0503  0.1952 -0.4799
 3213SOL    HW110217   1.846   0.889   2.057 -1.5752 -0.4302  0.9179
 3213SOL    HW210218   1.754   0.903   1.938 -0.8653  0.2591  0.4354
 3214SOL     OW10219   5.097   5.569   1.010 -0.1649  0.7268 -0.4232
 3214SOL    HW110220   5.039   5.644   1.005 -0.3010  0.6783  0.2714
 3214SOL    HW210221   5.050   5.498   0.966  0.5458  1.3847 -2.3103
 3215SOL     OW10222   3.055   6.990   0.853 -0.3359  0.4428  0.1288
 3215SOL    HW110223   2.992   7.063   0.852 -0.9619 -0.1039 -0.6626
 3215SOL    HW210224   3.029   6.938   0.929  0.3864  1.2532  0.9686
 3216SOL     OW10225   1.630   7.943   0.623  0.0361  0.1382  0.2344
 3216SOL    HW110226   1.594   8.005   0.687  1.3603  0.1898  0.9593
 3216SOL    HW210227   1.633   7.860   0.671 -0.4727 -0.1992 -0.3031
 3217SOL     OW10228   8.917   3.382   4.371 -0.4772 -0.0731 -0.3430
 3217SOL    HW110229   8.936   3.474   4.391  0.2215 -0.3470  0.3113
 3217SOL    HW210230   8.931   3.336   4.454  1.7957 -1.1465 -1.2252
 3218SOL     OW10231   5.960   5.264   4.675  0.0931  0.6245  0.2320
 3218SOL    HW110232   6.003   5.180   4.687  2.3051  1.2544 -2.3074
 3218SOL    HW210233   5.946   5.297   4.764  1.0972 -1.4957  1.2386
 3219SOL     OW10234   3.698   9.983   5.717 -0.4453 -0.1102  0.0905
 3219SOL    HW110235   3.710   9.906   5.772 -1.5930 -0.8818 -0.7024
 3219SOL    HW210236   3.737   9.960   5.633 -0.5026  0.2956 -0.0523
 3220SOL     OW10237   2.344   8.028   0.330  0.8155 -0.0255 -0.3708
 3220SOL    HW110238   2.414   8.012   0.267  1.0439 -1.0508  0.1258
 3220SOL    HW210239   2.287   7.951   0.323 -0.2785  0.7827 -0.7648
 3221SOL     OW10240   4.484   7.152   3.373 -0.0652  0.5042  0.0033
 3221SOL    HW110241   4.427   7.087   3.413 -0.6083  0.7970 -0.2786
 3221SOL    HW210242   4.567   7.107   3.359 -0.4373 -0.1240 -0.1898
 3222SOL     OW10243   8.661   2.294   4.692  0.1397 -0.0771  0.0157
 3222SOL    HW110244   8.755   2.286   4.671  0.5121  0.7318  1.2948
 3222SOL    HW210245   8.659   2.331   4.780 -1.3971 -0.8282  0.3282
 3223SOL     OW10246   2.981   5.555   4.182 -0.7289 -0.1233 -0.2488
 3223SOL    HW110247   2.955   5.647   4.180 -1.3834 -0.3104 -0.4593
 3223SOL    HW210248   3.060   5.553   4.236 -0.9761  0.4941  0.1337
 3224SOL     OW10249   7.943   9.934   9.257 -0.2153  0.0273 -0.4448
 3224SOL    HW110250   7.962  10.020   9.295 -1.1124 -0.1605  0.4620
 3224SOL    HW210251   8.014   9.878   9.289 -0.5138  0.0613  0.2811
 3225SOL     OW10252   8.655   5.781   3.928 -0.6852  0.2442  0.1746
 3225SOL    HW110253   8.739   5.778   3.974 -0.7626 -1.3214  0.2676
 3225SOL    HW210254   8.671   5.840   3.854  0.5861 -0.2138  0.0497
 3226SOL     OW10255   4.874   8.375   8.786  0.1025 -0.0888  0.0333
 3226SOL    HW110256   4.797   8.389   8.841 -0.2459  0.8276 -0.6689
 3226SOL    HW210257   4.946   8.414   8.835 -0.2064  0.7279 -0.1564
 3227SOL     OW10258   0.698   9.523   5.556 -0.4359 -0.0534 -0.3727
 3227SOL    HW110259   0.676   9.435   5.524 -1.0237 -1.2085  2.8539
 3227SOL    HW210260   0.789   9.515   5.584 -0.5800  0.2849  0.1889
 3228SOL     OW10261   0.218   4.760   1.206 -0.5018  0.3453  0.2140
 3228SOL    HW110262   0.232   4.729   1.117 -0.4930  0.7543  0.0689
 3228SOL    HW210263   0.173   4.688   1.250 -1.2671  0.4609 -0.3559
 3229SOL     OW10264   6.735   5.993   2.521 -0.0525  0.7846  0.2919
 3229SOL    HW110265   6.726   6.041   2.439 -1.7352 -1.0735 -0.6911
 3229SOL    HW210266   6.646   5.985   2.554  0.1208 -1.7440  0.3222
 3230SOL     OW10267   0.455   4.018   9.906 -0.5229  0.3964 -0.7390
 3230SOL    HW110268   0.389   4.056   9.963  0.4987  0.9878  0.0966
 3230SOL    HW210269   0.520   3.981   9.966  1.6457  2.8298 -1.3915
 3231SOL     OW10270   0.751   1.585   0.863 -0.1187  0.1741  0.1711
 3231SOL    HW110271   0.789   1.669   0.837  1.8126 -1.1199 -1.4096
 3231SOL    HW210272   0.658   1.595   0.843  0.1738  1.6932 -0.6526
 3232SOL     OW10273   8.467   8.332   3.391  0.0232 -0.3139 -0.4166
 3232SOL    HW110274   8.436   8.406   3.340  1.5679  0.3103 -0.5009
 3232SOL    HW210275   8.482   8.263   3.327  0.5119 -0.0246 -0.6205
 3233SOL     OW10276   7.089   9.912   1.496 -0.6046  0.1537  0.0112
 3233SOL    HW110277   7.077   9.966   1.574  1.1241  1.7868 -0.7671
 3233SOL    HW210278   7.150   9.843   1.523 -2.4920 -1.2626  0.8933
 3234SOL     OW10279   6.129   2.768   8.274  0.2635  0.1517  0.0978
 3234SOL    HW110280   6.075   2.692   8.253 -0.2869  0.6030 -0.1402
 3234SOL    HW210281   6.213   2.749   8.233 -0.2475  0.2128 -1.0356
 3235SOL     OW10282   4.505   6.859   3.230 -0.7836 -0.5892  0.3691
 3235SOL    HW110283   4.518   6.770   3.264 -0.1906 -0.4070  0.6345
 3235SOL    HW210284   4.433   6.851   3.168  0.7421 -1.7220 -1.3605
 3236SOL     OW10285   0.922   6.988   5.861 -0.0762  0.5201 -0.2901
 3236SOL    HW110286   0.891   6.936   5.787  1.1440  1.1046 -1.2435
 3236SOL    HW210287   1.013   7.010   5.839  0.7997 -0.4514  2.0120
 3237SOL     OW10288   8.970   7.005   7.240  0.0178 -0.4439  0.6464
 3237SOL    HW110289   9.043   6.995   7.180 -2.1524 -1.5545 -1.9972
 3237SOL    HW210290   8.945   6.915   7.263 -0.4294 -0.0765  1.6965
 3238SOL     OW10291   3.873   1.089   7.071  0.5027  0.0361 -0.0143
 3238SOL    HW110292   3.816   1.090   7.148 -0.9524  0.0714 -1.0508
 3238SOL    HW210293   3.816   1.061   6.999  1.8943 -0.2913 -1.0377
 3239SOL     OW10294   2.910   8.359   5.361 -0.1760  0.1411 -0.3663
 3239SOL    HW110295   2.827   8.326   5.327 -0.3814  2.0039 -1.8863
 3239SOL    HW210296   2.897   8.454   5.367  1.4833  0.3523  0.4446
 3240SOL     OW10297   1.919   6.554   7.416  0.2939 -0.0692  0.6153
 3240SOL    HW110298   1.832   6.515   7.410 -0.0403  0.8294 -0.9515
 3240SOL    HW210299   1.966   6.498   7.477 -2.1448  0.8793  3.6624
 3241SOL     OW10300   3.808   5.527   8.495 -1.3995 -0.3913 -0.2466
 3241SOL    HW110301   3.741   5.480   8.445 -2.7762  1.0655  0.1383
 3241SOL    HW210302   3.759   5.594   8.543  0.1605 -0.2883  1.2903
 3242SOL     OW10303   9.902   6.297   5.852 -0.2647  0.2431 -0.1104
 3242SOL    HW110304   9.817   6.314   5.892 -0.2170  2.0225 -0.6766
 3242SOL    HW210305   9.935   6.383   5.827  0.4952 -0.6023 -2.3412
 3243SOL     OW10306   1.783   2.625   5.193  0.1697  0.4557  0.6189
 3243SOL    HW110307   1.831   2.543   5.187  0.4118  0.6941 -1.8233
 3243SOL    HW210308   1.848   2.689   5.222  0.1561 -0.0496  1.8173
 3244SOL     OW10309   8.343   6.633   8.431  0.7845 -0.3838 -0.0893
 3244SOL    HW110310   8.343   6.699   8.500  1.9058  1.1358 -1.4760
 3244SOL    HW210311   8.433   6.599   8.430  1.8067  1.9208 -2.7763
 3245SOL     OW10312   9.819   1.414   8.117 -0.0987 -0.3332  0.2305
 3245SOL    HW110313   9.781   1.417   8.029  0.9127  4.1399 -0.2751
 3245SOL    HW210314   9.760   1.466   8.171  0.2845 -1.4605  1.8306
 3246SOL     OW10315   8.010   5.661   9.564  0.1539  0.0141  0.5506
 3246SOL    HW110316   7.973   5.601   9.628 -2.5347  1.3531  0.4084
 3246SOL    HW210317   8.065   5.720   9.616 -2.3026  1.3427  1.8399
 3247SOL     OW10318   0.022   7.381   5.723  0.1662 -0.1143  0.2037
 3247SOL    HW110319  -0.020   7.456   5.680 -0.2515 -0.6775 -0.3981
 3247SOL    HW210320   0.076   7.342   5.654  0.5866 -0.2161  0.5884
 3248SOL     OW10321   1.453   7.428   9.009 -0.3870 -0.3511 -0.0809
 3248SOL    HW110322   1.445   7.337   9.038 -0.5402 -0.7062 -1.1866
 3248SOL    HW210323   1.376   7.443   8.955  0.1628  0.0964 -0.7684
 3249SOL     OW10324   2.549   8.047   2.715 -0.2637  0.0570  0.0837
 3249SOL    HW110325   2.521   7.969   2.666  0.7861  0.3079 -0.9593
 3249SOL    HW210326   2.569   8.111   2.647 -0.4232  1.0101  0.9176
 3250SOL     OW10327   7.118   4.904   2.023 -0.5715  0.1543 -0.5723
 3250SOL    HW110328   7.035   4.857   2.025  0.0938 -1.1575 -1.6965
 3250SOL    HW210329   7.182   4.842   2.057 -0.0781  1.3098  0.7397
 3251SOL     OW10330   9.747   4.179   8.993 -0.6745  0.2245 -0.9398
 3251SOL    HW110331   9.813   4.238   9.028 -0.8248  0.0916 -0.4299
 3251SOL    HW210332   9.763   4.178   8.898  0.0852  0.1524 -0.8163
 3252SOL     OW10333   4.197   2.397   4.230 -0.0174  0.0864 -0.1056
 3252SOL    HW110334   4.229   2.358   4.148  1.8100  0.4529  0.3913
 3252SOL    HW210335   4.276   2.428   4.274 -1.1144  1.2947  1.0917
 3253SOL     OW10336   1.117   5.472   4.915  0.2456  0.2010  0.1356
 3253SOL    HW110337   1.158   5.479   4.829  1.0592 -2.9961  0.1555
 3253SOL    HW210338   1.191   5.476   4.977 -0.3646  2.9611  0.8451
 3254SOL     OW10339   3.771   3.032   5.468  0.1541  0.2205 -0.2491
 3254SOL    HW110340   3.848   3.086   5.452  0.1712  0.8437  1.6633
 3254SOL    HW210341   3.731   3.070   5.547 -0.2028 -2.1253  0.7930
 3255SOL     OW10342   2.672   7.152   6.901  0.4326  0.1031 -0.6969
 3255SOL    HW110343   2.725   7.206   6.959  0.7012  0.2566 -1.0864
 3255SOL    HW210344   2.696   7.062   6.924 -0.3802  0.1255  0.2989
 3256SOL     OW10345   6.001   2.171   6.707  0.0475  0.2617  0.1746
 3256SOL    HW110346   6.074   2.193   6.764 -0.1987 -0.4375  0.7819
 3256SOL    HW210347   5.936   2.239   6.723  0.6243  0.9789 -0.4923
 3257SOL     OW10348   3.537   9.292   6.978 -0.0599  0.2938 -0.3225
 3257SOL    HW110349   3.512   9.201   6.991  1.8193 -0.0714  1.0711
 3257SOL    HW210350   3.505   9.337   7.057  3.7292 -0.2663  1.7310
 3258SOL     OW10351   5.760   9.858   5.184  0.2100  0.2238 -0.3874
 3258SOL    HW110352   5.830   9.912   5.220  1.5872 -2.3135  1.1095
 3258SOL    HW210353   5.804   9.799   5.122 -0.8407 -0.4643 -0.5119
 3259SOL     OW10354   1.661   9.501   3.837 -0.1040  0.3810  0.5360
 3259SOL    HW110355   1.724   9.519   3.906 -0.6092 -0.2636  1.1836
 3259SOL    HW210356   1.622   9.586   3.817  2.6886  1.2963 -1.6730
 3260SOL     OW10357   0.901   1.054   4.025 -0.1248 -0.3439 -0.3103
 3260SOL    HW110358   0.971   1.009   3.978  0.4367  0.3893 -0.1856
 3260SOL    HW210359   0.821   1.026   3.981  0.3252 -0.3692 -1.1186
 3261SOL     OW10360   6.660   8.914   5.366 -0.3978  0.4648 -0.1700
 3261SOL    HW110361   6.644   8.862   5.287  0.1497  0.6197 -0.3897
 3261SOL    HW210362   6.644   8.854   5.438 -0.2466  0.1251 -0.4155
 3262SOL     OW10363   3.992   9.855   7.300 -0.4309 -0.0057  0.5119
 3262SOL    HW110364   4.036   9.913   7.362  2.1571 -1.9003  0.6281
 3262SOL    HW210365   4.012   9.892   7.214  0.4942 -0.2241  0.6214
 3263SOL     OW10366   6.410   5.998   7.160  0.0001 -0.2449 -0.5103
 3263SOL    HW110367   6.414   5.923   7.101  3.0848 -2.2716  1.9654
 3263SOL    HW210368   6.499   6.007   7.194 -1.1753  1.9334  2.4182
 3264SOL     OW10369   5.716   2.196   4.749  0.4064  0.9390 -0.0413
 3264SOL    HW110370   5.718   2.131   4.679 -0.0770 -0.0831  0.8792
 3264SOL    HW210371   5.773   2.160   4.817  0.0963  1.4510  0.4983
 3265SOL     OW10372   2.454   9.780   2.113 -0.0021  0.3152  0.0510
 3265SOL    HW110373   2.531   9.821   2.151 -0.6948 -0.4065  2.4465
 3265SOL    HW210374   2.389   9.850   2.108  0.3467  0.5997 -0.6253
 3266SOL     OW10375   6.877   5.384   7.620  0.1385  0.6158  0.6078
 3266SOL    HW110376   6.809   5.323   7.650 -0.3461  0.2020 -1.2147
 3266SOL    HW210377   6.830   5.468   7.610  0.0368  0.4833 -0.0413
 3267SOL     OW10378   2.192   2.167   5.094  0.3001 -0.5546  0.4537
 3267SOL    HW110379   2.143   2.135   5.019 -0.7105  1.4788  0.1591
 3267SOL    HW210380   2.151   2.126   5.170  0.7177 -1.8922 -0.0239
 3268SOL     OW10381   7.333   2.507   6.909  0.6221 -0.0306 -0.4941
 3268SOL    HW110382   7.347   2.577   6.845  0.6991  0.0610 -0.3762
 3268SOL    HW210383   7.289   2.438   6.859 -0.1900  0.4258 -0.4230
 3269SOL     OW10384   3.932   7.374   8.512 -0.4257  0.3841 -0.1602
 3269SOL    HW110385   3.908   7.312   8.443  2.8204 -1.9854  0.5966
 3269SOL    HW210386   3.919   7.326   8.593 -0.1953  1.6120  0.6285
 3270SOL     OW10387   3.798   7.058   4.733  0.6044 -0.2598 -0.7362
 3270SOL    HW110388   3.865   7.026   4.673 -0.8945  0.0363 -2.6933
 3270SOL    HW210389   3.718   7.012   4.706 -0.5857  1.5245 -0.4592
 3271SOL     OW10390   0.943   8.700   9.971  0.4817  0.4577 -0.0961
 3271SOL    HW110391   1.027   8.717   9.927  0.5287  0.2319 -0.0939
 3271SOL    HW210392   0.894   8.781   9.959  0.3559  0.2805 -0.8780
 3272SOL     OW10393   6.654   9.541   7.168  0.0774 -0.7143 -0.3669
 3272SOL    HW110394   6.629   9.449   7.160  0.6741 -0.9471  0.3139
 3272SOL    HW210395   6.697   9.561   7.085  2.9651 -2.0487  0.6540
 3273SOL     OW10396   2.288   6.690   7.468  0.2735  0.1333 -0.3513
 3273SOL    HW110397   2.260   6.734   7.387  2.0428  1.9904 -0.0646
 3273SOL    HW210398   2.294   6.598   7.444 -1.1344  0.3537 -1.7585
 3274SOL     OW10399   3.176   1.192   7.099 -0.1219  0.1491  0.2340
 3274SOL    HW110400   3.086   1.167   7.122  0.0073 -1.6325 -0.9798
 3274SOL    HW210401   3.168   1.244   7.019 -0.1537  1.3831  1.0120
 3275SOL     OW10402   0.642   1.010   3.932  0.2726 -0.4480 -0.8362
 3275SOL    HW110403   0.561   1.053   3.960  0.6463  0.2980 -0.8741
 3275SOL    HW210404   0.615   0.921   3.907  0.0614 -1.7014  3.1115
 3276SOL     OW10405   2.194   4.603   1.934  0.7605 -0.2604 -0.3585
 3276SOL    HW110406   2.219   4.542   1.865  0.7375 -0.0158 -0.5833
 3276SOL    HW210407   2.206   4.690   1.896  1.2606 -0.1131  0.1220
 3277SOL     OW10408   6.885   2.944   5.089  0.6132 -0.2994 -0.0404
 3277SOL    HW110409   6.902   2.957   5.182  1.8776 -0.3547 -0.2539
 3277SOL    HW210410   6.897   2.850   5.075 -2.9240 -0.9663  0.3741
 3278SOL     OW10411   5.708   4.150   5.307 -0.5313 -0.1683  0.4358
 3278SOL    HW110412   5.793   4.126   5.272 -0.9061 -1.6510  0.4464
 3278SOL    HW210413   5.714   4.132   5.401  0.0851  2.6472  1.0325
 3279SOL     OW10414   2.422   4.803   2.501  0.1317  0.4869  0.1096
 3279SOL    HW110415   2.401   4.890   2.536 -0.2816 -0.0836  1.3663
 3279SOL    HW210416   2.416   4.746   2.577  2.3523 -0.3652 -0.2925
 3280SOL     OW10417   7.820   5.305   2.626 -0.3888 -0.3679  0.2882
 3280SOL    HW110418   7.878   5.263   2.563 -0.6030 -0.1818 -0.0302
 3280SOL    HW210419   7.833   5.255   2.707 -1.3692 -1.6725 -0.3265
 3281SOL     OW10420   7.152   3.556   0.238  0.2277  0.6015 -0.5697
 3281SOL    HW110421   7.082   3.501   0.274  0.3613 -0.0323 -1.2423
 3281SOL    HW210422   7.210   3.494   0.193  0.4164  1.2837 -1.2950
 3282SOL     OW10423   2.381   8.192   5.210  0.0750  0.6739  0.1189
 3282SOL    HW110424   2.320   8.210   5.140  1.0416  1.4911 -0.5411
 3282SOL    HW210425   2.440   8.267   5.211  0.4575  0.3944  1.4070
 3283SOL     OW10426   0.132   7.194   6.397  0.1455 -0.0432 -0.3376
 3283SOL    HW110427   0.114   7.127   6.463  2.1948  0.3317  0.6788
 3283SOL    HW210428   0.096   7.158   6.316  0.9213 -2.2648  0.2305
 3284SOL     OW10429   0.643   8.588   7.661  0.4089 -0.4026 -0.3733
 3284SOL    HW110430   0.652   8.520   7.728  1.9118  0.5537  0.4578
 3284SOL    HW210431   0.587   8.655   7.702 -0.3459 -0.7419 -0.8518
 3285SOL     OW10432   9.370   9.850   9.184 -0.4387 -0.2966  0.1652
 3285SOL    HW110433   9.366   9.941   9.213 -0.9283 -0.9014  2.1077
 3285SOL    HW210434   9.462   9.826   9.192 -0.2998  0.0236 -0.4057
 3286SOL     OW10435   4.634   1.783   0.855  0.9091  0.7492 -0.1455
 3286SOL    HW110436   4.571   1.764   0.786  0.1745  1.3881  0.3309
 3286SOL    HW210437   4.663   1.873   0.838  0.1290  1.2071  0.7959
 3287SOL     OW10438   5.478   4.668   9.598  0.0034 -0.3843  0.0025
 3287SOL    HW110439   5.567   4.633   9.588 -0.0505 -0.1676 -1.5411
 3287SOL    HW210440   5.429   4.630   9.525 -1.1522 -0.3984  0.7555
 3288SOL     OW10441   5.965   1.705   4.783  0.0486  0.2788  0.3764
 3288SOL    HW110442   5.875   1.725   4.759  0.3703  0.2938 -0.9227
 3288SOL    HW210443   6.017   1.773   4.741  0.6039  0.8664  1.9616
 3289SOL     OW10444   3.716   2.435   3.166  0.3919 -0.2177 -0.2544
 3289SOL    HW110445   3.810   2.426   3.183  0.3723 -0.3851 -0.2318
 3289SOL    HW210446   3.680   2.348   3.181  0.2716 -0.2157 -0.5110
 3290SOL     OW10447   2.343   7.821   8.155  0.0447  0.4287 -0.3699
 3290SOL    HW110448   2.424   7.870   8.143  0.1520  0.3883  0.1985
 3290SOL    HW210449   2.362   7.733   8.121  0.7200 -0.0322  1.1432
 3291SOL     OW10450   3.158   6.177   5.767  0.5649  0.1817 -0.0017
 3291SOL    HW110451   3.119   6.254   5.726  0.7525  0.8136  0.9692
 3291SOL    HW210452   3.178   6.118   5.694  1.2294  1.4233 -0.8667
 3292SOL     OW10453   7.929   9.672   9.625 -0.2224 -0.0813 -0.0482
 3292SOL    HW110454   7.905   9.676   9.533 -1.3131 -0.2568  0.2165
 3292SOL    HW210455   7.942   9.764   9.650 -0.3423 -0.0020 -0.2732
 3293SOL     OW10456   7.845   2.181   4.027 -0.1231  0.2472  0.1217
 3293SOL    HW110457   7.824   2.156   3.937 -2.9687 -1.6176  1.1420
 3293SOL    HW210458   7.764   2.220   4.061  0.9780  1.2280  1.8039
 3294SOL     OW10459   7.384   0.073   9.155  0.1067 -0.1687 -0.5144
 3294SOL    HW110460   7.472   0.088   9.190  0.6552 -1.9912 -1.0288
 3294SOL    HW210461   7.398   0.058   9.062 -0.3529 -3.2115 -0.1910
 3295SOL     OW10462   3.481   9.165   9.945 -0.4973 -0.4870  0.2987
 3295SOL    HW110463   3.571   9.184   9.918 -1.0224  0.9040 -0.5923
 3295SOL    HW210464   3.485   9.159  10.040  0.6981 -1.4502  0.2137
 3296SOL     OW10465   6.404   3.833   0.989 -0.0499  0.3921 -0.0459
 3296SOL    HW110466   6.352   3.795   1.059  0.7833 -1.5691 -0.4150
 3296SOL    HW210467   6.477   3.875   1.034 -0.0690  0.0446  0.3160
 3297SOL     OW10468   2.456   9.760   4.533  0.5613 -0.2784  0.0412
 3297SOL    HW110469   2.501   9.739   4.615 -0.6074  1.0638  1.0861
 3297SOL    HW210470   2.374   9.801   4.561  0.8054  1.6328 -1.8072
 3298SOL     OW10471   9.310   4.157   5.289  0.4632 -0.1902 -0.5425
 3298SOL    HW110472   9.353   4.135   5.372 -0.0689  0.8590  0.0250
 3298SOL    HW210473   9.277   4.073   5.257  3.0584 -1.0887 -1.1079
 3299SOL     OW10474   1.289   6.147   7.373 -0.4822  0.0031 -0.3127
 3299SOL    HW110475   1.250   6.063   7.349 -0.1512  0.2452 -1.7755
 3299SOL    HW210476   1.229   6.213   7.338 -0.6709  0.4039  0.7089
 3300SOL     OW10477   9.736   7.281   1.018 -0.4311  0.5986 -0.1163
 3300SOL    HW110478   9.721   7.248   1.107  0.5254  0.8630  0.1606
 3300SOL    HW210479   9.811   7.231   0.986 -0.9840  0.2633 -0.9182
 3301SOL     OW10480   3.080   3.688   5.087 -0.0405 -0.3403 -0.2383
 3301SOL    HW110481   3.023   3.627   5.133 -0.5134 -0.1413 -0.5456
 3301SOL    HW210482   3.084   3.653   4.998  0.6408 -0.5715 -0.1194
 3302SOL     OW10483   6.401   2.534   6.517 -0.2296 -0.0215 -0.2423
 3302SOL    HW110484   6.414   2.447   6.479  1.6463  0.1865 -0.1392
 3302SOL    HW210485   6.450   2.593   6.460  0.1573  0.6915  0.8071
 3303SOL     OW10486   8.574   1.744   0.810 -0.5837 -0.0434 -0.2343
 3303SOL    HW110487   8.558   1.678   0.743  1.3225  0.9773 -1.7843
 3303SOL    HW210488   8.531   1.709   0.888 -0.0245 -2.9112 -1.0782
 3304SOL     OW10489   4.168   4.787   8.148 -0.1400  0.0151  0.1553
 3304SOL    HW110490   4.146   4.731   8.074 -1.7390  1.4626 -0.5233
 3304SOL    HW210491   4.182   4.726   8.221 -1.3933 -1.2785 -0.6522
 3305SOL     OW10492   4.876   8.328   2.231 -0.1130  0.5521  0.3080
 3305SOL    HW110493   4.911   8.258   2.286  1.0605  2.7041  2.4827
 3305SOL    HW210494   4.782   8.328   2.250 -0.6632 -2.1255 -1.8661
 3306SOL     OW10495   9.412   3.339   6.772  0.2856  0.2241 -0.3217
 3306SOL    HW110496   9.365   3.388   6.839  1.2142  0.4928  0.1453
 3306SOL    HW210497   9.445   3.261   6.817 -0.4958 -0.4432 -0.8685
 3307SOL     OW10498   2.369   4.473   3.165  0.4465  0.1500 -0.2891
 3307SOL    HW110499   2.417   4.549   3.197  0.5362 -0.0095 -0.0394
 3307SOL    HW210500   2.310   4.450   3.237  0.8985 -0.4279 -0.0906
 3308SOL     OW10501   7.402   8.964   9.958  0.4463 -0.2329 -0.4096
 3308SOL    HW110502   7.311   8.945   9.935  0.6456 -1.1475 -0.4664
 3308SOL    HW210503   7.430   9.028   9.893  0.2774 -1.0222 -1.2872
 3309SOL     OW10504   0.819   7.927   3.385  0.2356  0.0939 -0.1080
 3309SOL    HW110505   0.800   7.898   3.295  1.7811  0.7785 -0.6782
 3309SOL    HW210506   0.735   7.917   3.431 -0.3786 -1.0714 -1.3942
 3310SOL     OW10507   0.930   6.586   0.879  0.1497 -0.0764 -0.3783
 3310SOL    HW110508   0.995   6.522   0.906  1.3183  1.9743  2.2187
 3310SOL    HW210509   0.888   6.613   0.961 -0.5622  2.1233 -1.3888
 3311SOL     OW10510   6.431   9.686   4.134 -0.0494 -0.1639  0.3547
 3311SOL    HW110511   6.368   9.674   4.062  0.6520  0.4811 -0.3869
 3311SOL    HW210512   6.384   9.741   4.196 -0.1520  0.5140 -0.3043
 3312SOL     OW10513   2.694   1.281   5.877 -0.0721  0.2291 -0.3186
 3312SOL    HW110514   2.663   1.347   5.938  1.4659  2.1568 -1.4724
 3312SOL    HW210515   2.678   1.319   5.790  1.4863 -0.5577 -1.0062
 3313SOL     OW10516   6.274   6.333   9.445 -0.1943  0.8987 -0.3039
 3313SOL    HW110517   6.356   6.304   9.484 -0.4103 -0.5197 -0.8472
 3313SOL    HW210518   6.294   6.420   9.410  0.2985  1.7678  1.9427
 3314SOL     OW10519   5.496   2.591   5.646 -0.2451  0.1039 -0.1526
 3314SOL    HW110520   5.513   2.572   5.554  0.5695 -1.0853  0.2170
 3314SOL    HW210521   5.478   2.506   5.686  1.0850  0.3512  1.0962
 3315SOL     OW10522   6.815   3.014   4.433 -0.4843  0.4133  0.5192
 3315SOL    HW110523   6.788   3.099   4.396  0.7801  0.4191 -0.4600
 3315SOL    HW210524   6.901   3.031   4.471  0.5484 -0.7763 -1.1778
 3316SOL     OW10525   7.352   1.889   7.045  0.4317 -1.0079  0.3350
 3316SOL    HW110526   7.415   1.818   7.044  2.3884  0.6408 -0.4226
 3316SOL    HW210527   7.370   1.937   7.125  0.9417  0.1097 -0.4190
 3317SOL     OW10528   2.077   0.682   1.512 -0.3642 -0.6435  0.2520
 3317SOL    HW110529   2.001   0.624   1.521 -0.3175 -0.4124  3.4974
 3317SOL    HW210530   2.139   0.633   1.458 -2.5382 -1.0663 -2.0189
 3318SOL     OW10531   3.426   2.875   6.998 -0.6324  0.0397 -0.4500
 3318SOL    HW110532   3.423   2.970   7.010 -1.6020 -0.1767  1.2929
 3318SOL    HW210533   3.514   2.859   6.963  0.5635  1.3732  1.6516
 3319SOL     OW10534   1.850   8.339   1.183  0.6670 -0.2880  0.1270
 3319SOL    HW110535   1.769   8.293   1.203 -0.9687  1.6758 -1.5402
 3319SOL    HW210536   1.834   8.429   1.211  3.0836 -0.2325  1.6236
 3320SOL     OW10537   4.845   4.963   0.800 -0.7032 -0.2364  0.4427
 3320SOL    HW110538   4.835   4.915   0.882  1.1865  3.0633  2.8154
 3320SOL    HW210539   4.939   4.978   0.792 -0.9504  0.5389 -1.7410
 3321SOL     OW10540   2.528   1.803   7.202 -0.5240 -0.3408  0.2385
 3321SOL    HW110541   2.448   1.797   7.254 -0.6528  1.0646  0.2351
 3321SOL    HW210542   2.519   1.736   7.135 -0.1735 -2.5031  2.2364
 3322SOL     OW10543   3.563   8.061   7.624  0.6243 -0.6296  0.1518
 3322SOL    HW110544   3.472   8.083   7.610  0.5523 -1.0934 -0.1445
 3322SOL    HW210545   3.562   7.966   7.641  1.0756 -0.6898 -0.1423
 3323SOL     OW10546   2.649   6.536   7.311  0.0204  0.1388 -0.3228
 3323SOL    HW110547   2.643   6.449   7.350  1.0553 -0.4749 -1.4629
 3323SOL    HW210548   2.558   6.564   7.301 -0.3060 -0.4758  0.7536
 3324SOL     OW10549   8.917   2.051   4.644  0.5478 -0.1204  0.3952
 3324SOL    HW110550   8.917   2.146   4.649  1.5047 -0.0593 -0.3977
 3324SOL    HW210551   8.863   2.031   4.568 -2.3501 -0.3958  2.3834
 3325SOL     OW10552   4.333   0.280   8.693  0.0757 -0.7295  0.0029
 3325SOL    HW110553   4.241   0.279   8.666 -0.1508 -0.2309  0.7344
 3325SOL    HW210554   4.374   0.346   8.636 -0.3468  0.1391  0.6941
 3326SOL     OW10555   7.368   5.258   6.186  0.2922  0.3057  0.1376
 3326SOL    HW110556   7.406   5.192   6.244 -0.4764 -0.3553 -0.0903
 3326SOL    HW210557   7.310   5.208   6.128  0.0473  1.1264 -0.3345
 3327SOL     OW10558   5.644   8.392   9.801  0.5138  0.5454  0.1163
 3327SOL    HW110559   5.639   8.487   9.796 -2.7216  0.4954 -0.0067
 3327SOL    HW210560   5.597   8.370   9.881  0.0185 -0.9763 -0.5477
 3328SOL     OW10561   8.628   4.740   0.370 -0.1395  1.1692  0.0327
 3328SOL    HW110562   8.706   4.737   0.314 -0.4836 -1.3251 -0.4492
 3328SOL    HW210563   8.559   4.772   0.313 -0.0889  0.4244 -0.4673
 3329SOL     OW10564   5.714   5.532   2.316  0.3866  0.1226  1.1006
 3329SOL    HW110565   5.626   5.494   2.312 -0.2636  1.4908  1.8302
 3329SOL    HW210566   5.770   5.466   2.275 -1.0955 -0.3659 -0.2551
 3330SOL     OW10567   5.084   1.991   8.629  0.5319  0.1756  0.7051
 3330SOL    HW110568   5.049   1.913   8.586  1.8407  0.0724 -0.2185
 3330SOL    HW210569   5.115   2.046   8.558  2.7239  0.0195  1.4777
 3331SOL     OW10570   4.461   7.587   6.467  0.2195  0.1756 -0.3545
 3331SOL    HW110571   4.481   7.522   6.400 -1.3538 -0.9144  0.1735
 3331SOL    HW210572   4.482   7.544   6.549 -1.4664  0.0192  0.0455
 3332SOL     OW10573   3.429   2.899   4.476 -0.0114  0.1555  0.1754
 3332SOL    HW110574   3.397   2.857   4.396 -0.6530  2.8539 -1.1032
 3332SOL    HW210575   3.510   2.854   4.496 -0.7974 -1.8525 -0.8775
 3333SOL     OW10576   9.109   1.675   6.394 -0.6391 -0.4428  0.8491
 3333SOL    HW110577   9.182   1.638   6.344 -1.4579  0.4570 -1.1266
 3333SOL    HW210578   9.116   1.770   6.379 -3.5473 -0.4530 -1.4708
 3334SOL     OW10579   8.411   3.550   7.152 -0.2935 -0.5024  0.0478
 3334SOL    HW110580   8.374   3.629   7.193 -0.9523 -0.7994  0.0470
 3334SOL    HW210581   8.483   3.525   7.209 -0.7689 -0.5169  0.6552
 3335SOL     OW10582   1.688   3.557   9.490  0.8274  0.0662  0.0501
 3335SOL    HW110583   1.670   3.555   9.584  0.0539 -3.0225 -0.0818
 3335SOL    HW210584   1.768   3.504   9.480 -0.5357 -1.8694 -1.2250
 3336SOL     OW10585   5.771   1.500   2.983 -0.0490 -0.2250  0.0707
 3336SOL    HW110586   5.755   1.409   3.009  1.5695 -1.4786 -2.7535
 3336SOL    HW210587   5.704   1.518   2.917 -0.9661  1.0268  1.3121
 3337SOL     OW10588   8.543   3.368   4.468  0.0443  0.8451 -0.5047
 3337SOL    HW110589   8.470   3.426   4.446 -0.9996  0.1391  0.9974
 3337SOL    HW210590   8.532   3.350   4.561  1.8789  0.3358 -0.3592
 3338SOL     OW10591   7.732   5.466   6.563 -0.0547 -0.2318 -0.7454
 3338SOL    HW110592   7.797   5.396   6.558 -0.2200 -0.3690 -1.0362
 3338SOL    HW210593   7.784   5.547   6.568  0.1345 -0.3852 -0.2397
 3339SOL     OW10594   4.863   0.174   7.791  0.5774 -0.1465 -0.0685
 3339SOL    HW110595   4.922   0.231   7.742 -0.1312  0.7415  0.0750
 3339SOL    HW210596   4.918   0.102   7.822  1.0516 -0.7653 -2.1705
 3340SOL     OW10597   2.103   1.368   9.518 -0.2222 -0.3121 -0.4818
 3340SOL    HW110598   2.120   1.338   9.429  0.6829 -1.2346 -0.0188
 3340SOL    HW210599   2.141   1.456   9.522  0.6823 -0.6872 -0.6992
 3341SOL     OW10600   5.480   3.627   0.466 -0.2006  0.6353 -0.0712
 3341SOL    HW110601   5.480   3.722   0.454  0.2630  0.6447 -0.0338
 3341SOL    HW210602   5.408   3.610   0.527 -2.1442  0.6603 -2.2131
 3342SOL     OW10603   5.567   6.051   3.869  0.7991 -1.1182  0.5001
 3342SOL    HW110604   5.600   6.039   3.780 -0.2182  0.0277 -0.0552
 3342SOL    HW210605   5.645   6.069   3.921  1.2869 -0.5910 -0.3879
 3343SOL     OW10606   3.251   0.218   9.855 -0.2457 -0.2499 -0.3914
 3343SOL    HW110607   3.320   0.182   9.911 -0.5463  0.2828  0.3502
 3343SOL    HW210608   3.255   0.312   9.871  0.8251  0.1342 -2.6289
 3344SOL     OW10609   3.326   7.334   6.016 -0.4271 -0.4167  0.2171
 3344SOL    HW110610   3.248   7.332   5.961 -1.3604  0.9798  1.4305
 3344SOL    HW210611   3.395   7.369   5.958 -1.3087  0.7170 -0.1967
 3345SOL     OW10612   2.594   8.028   7.646  0.4656  0.4056 -0.0455
 3345SOL    HW110613   2.529   7.969   7.608  1.5532 -0.7974 -0.1006
 3345SOL    HW210614   2.586   8.109   7.595 -0.3803 -0.0186 -0.6099
 3346SOL     OW10615   3.492   9.681   9.605 -0.2795  0.1203  0.0817
 3346SOL    HW110616   3.562   9.713   9.548 -0.6946  2.1909  0.6555
 3346SOL    HW210617   3.536   9.654   9.685  0.0126 -0.0718 -0.1401
 3347SOL     OW10618   9.006   7.788   4.980  0.3883 -0.1385 -0.3723
 3347SOL    HW110619   9.024   7.844   4.905  2.0995 -0.7050 -0.4319
 3347SOL    HW210620   8.932   7.830   5.024 -0.6522  0.2168 -2.3290
 3348SOL     OW10621   7.410   2.637   3.632  0.2745 -0.1073 -0.6791
 3348SOL    HW110622   7.322   2.676   3.632 -0.2100 -1.1551  0.6184
 3348SOL    HW210623   7.469   2.712   3.648 -0.5873  0.2532  1.0551
 3349SOL     OW10624   6.822   2.329   3.478 -0.2920 -0.0087 -0.0955
 3349SOL    HW110625   6.802   2.342   3.385  0.2230  0.2249 -0.1809
 3349SOL    HW210626   6.791   2.241   3.498 -0.7063  0.0676 -0.4063
 3350SOL     OW10627   3.570   9.987   1.257  0.1016  0.3197 -0.4695
 3350SOL    HW110628   3.656   9.972   1.295 -0.3770 -0.5137  0.3217
 3350SOL    HW210629   3.577   9.954   1.167  0.1046 -1.4397  0.1436
 3351SOL     OW10630   3.708   6.821   2.354  0.4317 -0.1470 -0.2876
 3351SOL    HW110631   3.615   6.842   2.350  0.3559 -0.4520 -0.1526
 3351SOL    HW210632   3.739   6.830   2.264  0.4077  0.5586 -0.2319
 3352SOL     OW10633   7.555   7.670   3.027  0.0058  0.1450 -0.2664
 3352SOL    HW110634   7.564   7.668   3.122 -1.2627  0.6070 -0.1158
 3352SOL    HW210635   7.642   7.650   2.994  0.6050  0.5864  0.9958
 3353SOL     OW10636   1.268   0.545   1.411 -0.0787  0.3826 -0.0764
 3353SOL    HW110637   1.181   0.545   1.450 -1.0346 -0.7822 -2.0724
 3353SOL    HW210638   1.269   0.623   1.356  0.1609  0.4049 -0.0402
 3354SOL     OW10639   1.011   8.539   0.959  0.4082 -0.1447 -0.1493
 3354SOL    HW110640   1.080   8.578   0.906 -0.6147  2.5842  0.3150
 3354SOL    HW210641   1.044   8.544   1.049  0.4698 -0.8832 -0.1248
 3355SOL     OW10642   6.549   7.579   4.125  0.3826  0.3329  0.7263
 3355SOL    HW110643   6.501   7.658   4.153 -0.3296 -0.7312  2.6690
 3355SOL    HW210644   6.626   7.613   4.080  0.0661  2.1510  1.4705
 3356SOL     OW10645   5.464   5.134   2.984 -0.7596 -0.1185  0.0016
 3356SOL    HW110646   5.532   5.139   2.916 -0.0573 -3.1992  0.3225
 3356SOL    HW210647   5.503   5.175   3.061 -0.3400  0.5498 -0.5561
 3357SOL     OW10648   4.717   1.871   5.698 -0.1396  0.4314 -0.4035
 3357SOL    HW110649   4.659   1.860   5.773 -0.5617  1.1794 -0.6149
 3357SOL    HW210650   4.704   1.962   5.670 -0.1257  0.1117 -1.5007
 3358SOL     OW10651   0.703   7.006   4.055  0.1876  0.3267  0.0677
 3358SOL    HW110652   0.782   7.011   4.001  1.2051  2.0643  1.6116
 3358SOL    HW210653   0.641   7.066   4.013 -0.8624 -1.9274 -1.8373
 3359SOL     OW10654   0.457   3.809   9.171  0.0322  0.1792  0.2012
 3359SOL    HW110655   0.478   3.898   9.141  1.3702  0.2294  1.1995
 3359SOL    HW210656   0.445   3.818   9.266  0.4644 -0.7497  0.3538
 3360SOL     OW10657   3.760   1.021   9.576 -0.3190  0.0621 -0.6525
 3360SOL    HW110658   3.785   1.099   9.625 -0.4253 -0.3631  0.0880
 3360SOL    HW210659   3.677   0.994   9.615 -0.4228 -0.2590 -1.0944
 3361SOL     OW10660   5.454   4.138   2.891  0.1788 -0.2088  0.7637
 3361SOL    HW110661   5.497   4.180   2.817  0.7196 -1.3682  0.4034
 3361SOL    HW210662   5.522   4.131   2.958  0.3423 -1.2794  0.5023
 3362SOL     OW10663   9.627   4.533   9.156  0.0100 -0.2170  0.2659
 3362SOL    HW110664   9.639   4.441   9.176  2.8106  0.0237  0.1190
 3362SOL    HW210665   9.676   4.579   9.224 -0.4820  1.1314 -0.2461
 3363SOL     OW10666   4.696   7.697   3.297 -0.5279  0.1538  0.2284
 3363SOL    HW110667   4.634   7.654   3.356 -0.2108 -0.1380  0.3565
 3363SOL    HW210668   4.650   7.775   3.266 -1.9954 -1.3964 -1.7762
 3364SOL     OW10669   7.231   2.729   4.930  0.6155 -0.7158 -0.5345
 3364SOL    HW110670   7.223   2.814   4.888  0.7608 -0.1142  0.6325
 3364SOL    HW210671   7.181   2.670   4.874  1.1732 -0.0385 -1.7920
 3365SOL     OW10672   3.160   6.940   3.888 -0.6217 -0.1378 -0.1170
 3365SOL    HW110673   3.227   7.006   3.907 -1.6864  1.9111 -2.8430
 3365SOL    HW210674   3.094   6.952   3.956 -0.8075  1.6912 -0.5837
 3366SOL     OW10675   1.415   5.091   7.177  0.6380 -0.2530  0.0864
 3366SOL    HW110676   1.454   5.017   7.131  1.6069 -0.6881  1.5119
 3366SOL    HW210677   1.489   5.135   7.218 -0.0943  0.5920  0.5327
 3367SOL     OW10678   2.133   6.370   1.535  0.1736  0.0771 -0.3651
 3367SOL    HW110679   2.099   6.457   1.518 -0.1864 -0.2727 -1.5567
 3367SOL    HW210680   2.087   6.314   1.473  1.2290 -0.7820 -0.3970
 3368SOL     OW10681   5.081   9.342   2.919  0.3338 -0.2236  0.3685
 3368SOL    HW110682   5.002   9.347   2.974  1.4232 -0.4376  2.0403
 3368SOL    HW210683   5.103   9.248   2.919  0.8274 -0.1066  0.2758
 3369SOL     OW10684   2.472   5.090   5.429 -0.3503 -0.1261  0.9026
 3369SOL    HW110685   2.439   5.013   5.476 -0.1295 -0.4153  0.5902
 3369SOL    HW210686   2.560   5.103   5.463  0.0293 -0.6858  0.1692
 3370SOL     OW10687   5.815   5.200   3.555  0.2837  0.1672  0.0473
 3370SOL    HW110688   5.866   5.179   3.477 -0.1369  0.4641 -0.3131
 3370SOL    HW210689   5.844   5.287   3.580 -1.4529  1.1901 -1.3402
 3371SOL     OW10690   3.197   6.595   9.798  0.3762  0.2729 -0.0059
 3371SOL    HW110691   3.226   6.668   9.743 -1.4357  0.0133 -1.3976
 3371SOL    HW210692   3.116   6.626   9.837 -0.1876 -0.8324 -0.2677
 3372SOL     OW10693   6.559   8.927   9.557  0.2439 -0.4955 -0.1390
 3372SOL    HW110694   6.493   8.981   9.599  0.4423  0.2616 -0.7951
 3372SOL    HW210695   6.626   8.914   9.624  0.7074  0.9660 -0.2960
 3373SOL     OW10696   1.268   8.098   9.506  0.7253  0.1657  0.1024
 3373SOL    HW110697   1.295   8.094   9.414 -1.0453  2.3610 -0.6219
 3373SOL    HW210698   1.306   8.180   9.539  2.8444 -1.4373  1.9592
 3374SOL     OW10699   9.888   9.860   8.507  0.4833 -0.1057  0.2330
 3374SOL    HW110700   9.793   9.844   8.499 -0.1264  2.5671  1.0967
 3374SOL    HW210701   9.895   9.922   8.580  2.6768  1.5297 -1.2548
 3375SOL     OW10702   2.932   2.639   7.220 -0.1788  0.0596  0.2002
 3375SOL    HW110703   2.975   2.655   7.136  3.0434 -0.2141  1.6117
 3375SOL    HW210704   2.881   2.718   7.237  0.6573  0.9371 -1.1844
 3376SOL     OW10705   2.368   2.615   0.808  0.2148  0.2568 -0.1199
 3376SOL    HW110706   2.361   2.699   0.853  0.3068  1.1559 -1.6959
 3376SOL    HW210707   2.303   2.559   0.851 -0.8066  1.5565  0.0850
 3377SOL     OW10708   7.072   1.778   0.079  0.0480  0.4254  0.6154
 3377SOL    HW110709   7.136   1.801   0.012  0.5583 -1.0753  0.5535
 3377SOL    HW210710   7.113   1.805   0.162 -0.5684  2.2449  0.3718
 3378SOL     OW10711   4.700   3.057   5.103 -0.4554 -0.1382  0.1226
 3378SOL    HW110712   4.769   3.122   5.092 -0.2734 -0.4438 -0.5638
 3378SOL    HW210713   4.713   3.024   5.192 -2.0255  2.4443  1.4329
 3379SOL     OW10714   7.302   8.378   3.564 -0.0782 -0.1854  0.5437
 3379SOL    HW110715   7.298   8.467   3.601  0.7982  0.5892 -1.1349
 3379SOL    HW210716   7.395   8.355   3.568 -0.0696 -0.3654 -0.5346
 3380SOL     OW10717   6.849   5.867   1.180 -0.1116 -0.2586  0.3354
 3380SOL    HW110718   6.825   5.939   1.239  0.7982  0.4428 -0.1322
 3380SOL    HW210719   6.789   5.875   1.107  1.0632  1.1007 -0.5272
 3381SOL     OW10720   5.277   2.344   0.649  0.4070  0.2078 -0.3990
 3381SOL    HW110721   5.314   2.341   0.561 -1.3709  1.3371 -1.2315
 3381SOL    HW210722   5.183   2.337   0.636  0.2139 -2.6419  1.6378
 3382SOL     OW10723   8.434   4.263   3.750  0.0568 -0.2357  0.2399
 3382SOL    HW110724   8.347   4.287   3.783 -0.0213 -1.9173  1.3754
 3382SOL    HW210725   8.450   4.325   3.679 -3.1153 -1.2902 -1.6576
 3383SOL     OW10726   8.294   5.636   3.964 -0.2941  0.6093  0.4245
 3383SOL    HW110727   8.297   5.678   3.878  0.4459  1.3745  0.8037
 3383SOL    HW210728   8.372   5.669   4.009 -0.2004 -0.4614  1.0794
 3384SOL     OW10729   0.460   0.821   2.655 -0.0565  0.1631 -0.0628
 3384SOL    HW110730   0.366   0.804   2.646 -0.2023 -0.0987  1.6096
 3384SOL    HW210731   0.465   0.894   2.718  0.8525  0.6315 -0.6562
 3385SOL     OW10732   0.820   7.551   2.217 -0.1900 -0.5673  0.2124
 3385SOL    HW110733   0.840   7.467   2.176  2.4537  1.1590 -2.4478
 3385SOL    HW210734   0.743   7.583   2.170  0.5182 -0.2798 -0.7639
 3386SOL     OW10735   1.644   0.285   5.882 -0.0814 -0.2046  0.4474
 3386SOL    HW110736   1.708   0.297   5.952 -0.7745 -1.3974  1.3197
 3386SOL    HW210737   1.633   0.190   5.875 -1.3617 -0.0486 -0.0373
 3387SOL     OW10738   0.015   8.933   9.768 -0.1794 -0.2711  0.3001
 3387SOL    HW110739  -0.061   8.899   9.720  0.8688  0.2410 -1.8339
 3387SOL    HW210740   0.087   8.875   9.742  0.8581  1.3212 -0.4906
 3388SOL     OW10741   8.614   9.505   3.651  0.3610  0.0513  0.2706
 3388SOL    HW110742   8.577   9.571   3.710 -0.3274  0.0123 -0.1076
 3388SOL    HW210743   8.633   9.553   3.571 -0.8537 -0.3457 -0.2754
 3389SOL     OW10744   7.286   3.571   4.096  0.4661  1.0622 -0.2189
 3389SOL    HW110745   7.361   3.528   4.138 -0.7145  1.5667  2.6847
 3389SOL    HW210746   7.302   3.665   4.108  0.2383  1.2451 -1.2554
 3390SOL     OW10747   9.885   8.487   4.988  0.8860  0.0366 -0.2423
 3390SOL    HW110748   9.958   8.432   4.957  1.5146  0.3293  0.6756
 3390SOL    HW210749   9.858   8.446   5.070 -0.2970 -0.3276 -0.8023
 3391SOL     OW10750   0.882   8.323   8.889 -0.2452 -0.5486 -0.6302
 3391SOL    HW110751   0.839   8.328   8.974  0.1772 -2.1403 -0.2870
 3391SOL    HW210752   0.976   8.318   8.909 -0.1363 -0.8750 -1.1774
 3392SOL     OW10753   3.467   6.985   2.313  0.0536  0.2593  0.0700
 3392SOL    HW110754   3.530   7.053   2.288  0.6235 -0.1441  0.3643
 3392SOL    HW210755   3.384   7.031   2.322  0.4348  0.9190  0.2880
 3393SOL     OW10756   4.180   6.817   5.577 -0.0798  0.0693  0.0106
 3393SOL    HW110757   4.206   6.725   5.583 -0.4465 -0.0293  0.1172
 3393SOL    HW210758   4.255   6.861   5.538 -0.3639 -0.4891 -1.2063
 3394SOL     OW10759   5.433   4.636   4.280  0.2002 -0.4711  0.5852
 3394SOL    HW110760   5.500   4.572   4.257 -0.4936 -1.0455  0.1120
 3394SOL    HW210761   5.417   4.622   4.373 -0.2279 -1.2771  0.4018
 3395SOL     OW10762   8.231   3.073   1.414 -0.2219 -0.6206 -0.0155
 3395SOL    HW110763   8.312   3.119   1.435 -0.0632 -0.9134  0.0203
 3395SOL    HW210764   8.162   3.132   1.444 -0.1920  1.4447 -3.4526
 3396SOL     OW10765   5.776   8.202   3.050 -0.8023 -0.1876  0.0664
 3396SOL    HW110766   5.795   8.174   3.140 -1.0196 -0.1731  0.1172
 3396SOL    HW210767   5.741   8.290   3.059  0.3673  0.3194 -0.1355
 3397SOL     OW10768   5.272   5.924   9.763  0.5682 -0.5654 -0.3371
 3397SOL    HW110769   5.227   5.891   9.685  0.0661 -0.0947 -0.2564
 3397SOL    HW210770   5.220   5.891   9.836  1.1793 -1.2126 -0.1837
 3398SOL     OW10771   0.663   2.159   6.028  0.1077 -0.1245  0.1922
 3398SOL    HW110772   0.576   2.136   5.994 -0.6695  0.5495  1.6073
 3398SOL    HW210773   0.692   2.080   6.074  0.4092 -0.4690 -0.5812
 3399SOL     OW10774   8.892   3.925   6.107  0.2465  0.1064  0.5196
 3399SOL    HW110775   8.867   3.849   6.054 -0.7420  0.9359 -0.2444
 3399SOL    HW210776   8.865   3.902   6.196 -0.3065 -0.3307  0.2457
 3400SOL     OW10777   2.351   3.787   9.034 -0.2300 -0.0951 -0.1302
 3400SOL    HW110778   2.261   3.756   9.023 -0.0449 -0.8595  0.4242
 3400SOL    HW210779   2.399   3.710   9.066  1.4812 -0.8808 -4.0042
 3401SOL     OW10780   4.099   3.503   1.591  0.1256 -0.0997  0.3051
 3401SOL    HW110781   4.188   3.537   1.597  0.9071 -2.0349  0.4321
 3401SOL    HW210782   4.053   3.542   1.666 -0.1648  3.4714 -1.4957
 3402SOL     OW10783   7.392   1.579   2.498 -0.2683  0.4990 -0.0238
 3402SOL    HW110784   7.392   1.609   2.407 -1.8937  1.5995  0.3038
 3402SOL    HW210785   7.423   1.653   2.549 -1.3055  0.6073  0.4916
 3403SOL     OW10786   0.561   8.806   2.636  0.3146  0.0564 -0.0488
 3403SOL    HW110787   0.634   8.812   2.573 -1.0945 -0.1174 -1.7846
 3403SOL    HW210788   0.519   8.892   2.632  0.2220  0.0464  0.6782
 3404SOL     OW10789   5.701   3.983   0.530 -0.5135  0.4676 -0.7525
 3404SOL    HW110790   5.706   4.078   0.518 -0.7784  0.5330 -0.3541
 3404SOL    HW210791   5.784   3.960   0.573 -1.4284  0.8630  1.3390
 3405SOL     OW10792   5.640   2.300   0.357 -0.0554 -0.0244  0.2077
 3405SOL    HW110793   5.637   2.214   0.399 -0.0280 -0.7168 -1.1540
 3405SOL    HW210794   5.697   2.288   0.281 -0.0572  1.1973 -0.0140
 3406SOL     OW10795   9.509   2.820   1.111 -0.3886 -0.1503  0.3127
 3406SOL    HW110796   9.485   2.728   1.103 -1.8249  0.1269  0.9834
 3406SOL    HW210797   9.556   2.826   1.194  2.4899 -0.7536 -1.1603
 3407SOL     OW10798   4.374   1.230   6.794 -0.1083  0.0899  0.5976
 3407SOL    HW110799   4.352   1.321   6.814  2.9957  0.8496  1.0139
 3407SOL    HW210800   4.469   1.230   6.783  0.1485 -3.3150  1.6965
 3408SOL     OW10801   2.235   4.565   0.929 -0.2441 -0.2435  0.1342
 3408SOL    HW110802   2.196   4.653   0.923  0.0538 -0.0970  0.3232
 3408SOL    HW210803   2.319   4.579   0.973 -0.6167 -0.7485  1.0413
 3409SOL     OW10804   3.554   1.429   8.118  0.6000  0.4615  0.5646
 3409SOL    HW110805   3.550   1.509   8.170 -1.5623  2.3957 -2.2700
 3409SOL    HW210806   3.622   1.445   8.053 -1.2157  1.0005 -1.3208
 3410SOL     OW10807   1.578   9.591   2.636  0.9595  0.4219  0.1628
 3410SOL    HW110808   1.607   9.507   2.600  2.8641  0.3798  1.6401
 3410SOL    HW210809   1.623   9.657   2.583  1.9749  0.4024  0.9600
 3411SOL     OW10810   1.261   6.557   0.891  0.3746  0.1563 -0.1549
 3411SOL    HW110811   1.294   6.550   0.981  0.8529 -0.0518 -0.3455
 3411SOL    HW210812   1.288   6.476   0.849  1.6788  0.9818 -0.9809
 3412SOL     OW10813   5.437   1.552   7.692  0.8737  0.0837 -0.0137
 3412SOL    HW110814   5.395   1.501   7.623  0.5119 -0.0066  0.2707
 3412SOL    HW210815   5.409   1.510   7.773  0.2522  0.9655  0.2409
 3413SOL     OW10816   8.016   6.362   5.944  0.2820 -0.0151  0.1107
 3413SOL    HW110817   8.098   6.312   5.943  0.8014  0.8179 -0.6967
 3413SOL    HW210818   7.952   6.304   5.903  0.9287  0.0278 -1.0077
 3414SOL     OW10819   7.818   7.167   9.603 -0.6119 -0.2086 -0.3683
 3414SOL    HW110820   7.834   7.195   9.693 -0.3479  0.2320 -0.5532
 3414SOL    HW210821   7.857   7.235   9.548 -1.1987 -0.2189 -0.8204
 3415SOL     OW10822   7.846   9.700   1.163 -0.3234 -0.0374 -0.5537
 3415SOL    HW110823   7.781   9.694   1.093 -0.2577  1.3014 -0.7503
 3415SOL    HW210824   7.886   9.786   1.151  0.1541 -0.0621  0.7301
 3416SOL     OW10825   1.727   1.755   7.683  0.0623 -0.5131 -0.5445
 3416SOL    HW110826   1.700   1.761   7.592  2.0833 -0.1260 -1.1764
 3416SOL    HW210827   1.810   1.804   7.686  1.0930 -2.2397  1.0396
 3417SOL     OW10828   2.852   7.898   2.501  0.3285 -0.3519 -0.0804
 3417SOL    HW110829   2.885   7.932   2.584  0.7965 -0.1944 -0.3259
 3417SOL    HW210830   2.776   7.952   2.480 -0.9792 -1.6074  1.1962
 3418SOL     OW10831   8.223   6.542   7.869  0.3291  0.4188 -0.4068
 3418SOL    HW110832   8.214   6.632   7.902  0.8282  0.4109 -0.2339
 3418SOL    HW210833   8.282   6.500   7.931 -1.8995 -0.8094  0.9883
 3419SOL     OW10834   9.736   6.481   4.158  0.2767 -0.0978  0.1130
 3419SOL    HW110835   9.688   6.402   4.132  0.2277  0.5477 -1.9507
 3419SOL    HW210836   9.668   6.543   4.184  0.1525 -0.0130 -0.4026
 3420SOL     OW10837   4.750   0.682   9.246 -0.1773 -0.2510  0.2322
 3420SOL    HW110838   4.771   0.620   9.176 -0.0569  1.1183 -0.9788
 3420SOL    HW210839   4.656   0.673   9.260 -0.2304 -0.4211 -0.2222
 3421SOL     OW10840   2.141   4.764   8.853  0.2248  0.2551  0.5803
 3421SOL    HW110841   2.222   4.777   8.805  0.4629  2.0142  1.3885
 3421SOL    HW210842   2.086   4.711   8.794  1.1749  0.7835 -0.8258
 3422SOL     OW10843   6.257   6.043   7.889  0.4323 -0.0150  0.4984
 3422SOL    HW110844   6.247   6.056   7.795  0.7848  1.8083  0.6868
 3422SOL    HW210845   6.348   6.014   7.900  0.2966 -0.5468  0.2658
 3423SOL     OW10846   8.000   6.611   3.973 -0.0030  0.0744 -0.5030
 3423SOL    HW110847   7.967   6.700   3.988 -0.1214 -0.0974  0.2970
 3423SOL    HW210848   8.049   6.618   3.891  2.5940  1.5861  1.0555
 3424SOL     OW10849   5.629   1.356   8.194  0.0072  0.1035 -0.2702
 3424SOL    HW110850   5.699   1.413   8.164 -0.4196  1.0081  0.4226
 3424SOL    HW210851   5.613   1.381   8.285 -0.2066 -1.1034  0.0537
 3425SOL     OW10852   2.155   1.476   6.736  0.0529  0.6840 -0.0103
 3425SOL    HW110853   2.065   1.485   6.706 -0.4924  1.5634  1.7558
 3425SOL    HW210854   2.203   1.544   6.690 -0.5076  1.2154  0.1844
 3426SOL     OW10855   3.656   6.693   6.549 -0.3891  0.1163 -0.2167
 3426SOL    HW110856   3.660   6.675   6.643 -2.2906  1.4232  0.1600
 3426SOL    HW210857   3.679   6.785   6.540 -0.2693  0.0206 -1.0374
 3427SOL     OW10858   4.180   6.779   8.321 -0.4593 -0.5557 -0.1645
 3427SOL    HW110859   4.171   6.857   8.268  0.5369 -1.2057 -1.3345
 3427SOL    HW210860   4.225   6.808   8.400  0.3190 -0.0297 -0.7946
 3428SOL     OW10861   1.369   9.029   3.364 -0.1605 -0.3301 -0.1490
 3428SOL    HW110862   1.281   9.052   3.392  0.0438  0.7703 -0.3528
 3428SOL    HW210863   1.385   8.942   3.400 -1.9796 -1.3127 -1.5587
 3429SOL     OW10864   5.788   4.705   8.173 -0.2355 -0.1248  0.5511
 3429SOL    HW110865   5.811   4.794   8.198 -0.9160  0.2027  0.0664
 3429SOL    HW210866   5.762   4.663   8.255 -0.0375  0.1654  0.7633
 3430SOL     OW10867   7.756   9.443   9.809 -0.5108 -0.0999  0.1833
 3430SOL    HW110868   7.782   9.363   9.762 -0.6270 -1.7199  2.6925
 3430SOL    HW210869   7.839   9.488   9.827 -0.4129  0.1907 -0.9114
 3431SOL     OW10870   9.819   2.030   4.498 -0.0039  0.1241  0.2028
 3431SOL    HW110871   9.845   1.987   4.580 -0.8660  1.6584  1.3490
 3431SOL    HW210872   9.750   2.091   4.524  0.5176  1.5132 -1.4678
 3432SOL     OW10873   5.258   3.969   9.054 -0.2095  0.0534  0.6639
 3432SOL    HW110874   5.260   3.906   8.982 -0.3091 -0.0751  0.7722
 3432SOL    HW210875   5.318   3.934   9.119 -1.3707 -0.7199  1.3661
 3433SOL     OW10876   5.226   5.957   5.712  0.0593 -0.4842 -0.5963
 3433SOL    HW110877   5.132   5.959   5.729  0.3365  0.8585  1.0111
 3433SOL    HW210878   5.247   5.864   5.703 -1.3525 -0.8223 -0.5368
 3434SOL     OW10879   4.789   4.813   9.470  0.2087  0.6556 -0.0998
 3434SOL    HW110880   4.846   4.793   9.396 -0.9292 -0.7600 -0.6452
 3434SOL    HW210881   4.700   4.810   9.433 -0.3481  0.5833  1.1930
 3435SOL     OW10882   4.237   4.021   9.376  0.2960  0.4581 -0.3467
 3435SOL    HW110883   4.167   3.960   9.399  0.1157  0.9176  0.3470
 3435SOL    HW210884   4.312   3.965   9.356 -0.3512 -0.0581 -1.4367
 3436SOL     OW10885   6.785   1.817   1.545 -0.3511  0.2826  0.5407
 3436SOL    HW110886   6.813   1.801   1.455 -0.6252  1.1333  0.2946
 3436SOL    HW210887   6.692   1.839   1.537 -0.4731 -0.0244  1.0781
 3437SOL     OW10888   7.894   7.415   3.087 -0.1918 -0.2430  0.7477
 3437SOL    HW110889   7.826   7.383   3.147  0.6007 -0.7369  1.3929
 3437SOL    HW210890   7.955   7.342   3.079 -0.1099 -0.0733 -0.4243
 3438SOL     OW10891   5.728   0.554   4.739 -0.3192  0.0585 -0.1635
 3438SOL    HW110892   5.647   0.517   4.705 -0.8874  3.0740 -2.5288
 3438SOL    HW210893   5.725   0.535   4.833 -2.6743 -1.7652 -0.5088
 3439SOL     OW10894   4.855   0.851   4.789 -0.3603  0.1944  0.3010
 3439SOL    HW110895   4.840   0.910   4.715 -1.8459  0.3595  0.7007
 3439SOL    HW210896   4.934   0.885   4.832  1.1053 -0.4764 -1.7156
 3440SOL     OW10897   2.946   0.341   4.252  0.1563 -0.0048  0.1590
 3440SOL    HW110898   2.970   0.353   4.344  0.2747 -2.3312  0.4804
 3440SOL    HW210899   2.966   0.425   4.211  2.4673  0.3052  1.7471
 3441SOL     OW10900   9.706   1.049   0.290  0.4443  0.5600 -0.1879
 3441SOL    HW110901   9.647   0.982   0.257 -1.2152  1.7834  0.1787
 3441SOL    HW210902   9.672   1.131   0.254  0.1408  1.6327  2.3132
 3442SOL     OW10903   0.206   0.205   3.265  0.2236 -0.2866 -0.3084
 3442SOL    HW110904   0.179   0.273   3.326  1.8283 -1.5144  1.9233
 3442SOL    HW210905   0.131   0.193   3.207 -0.6366  2.3198  0.1424
 3443SOL     OW10906   2.198   4.874   7.197 -0.5978 -0.0892  0.1245
 3443SOL    HW110907   2.165   4.959   7.225 -0.2623 -0.0705  0.4821
 3443SOL    HW210908   2.276   4.894   7.145 -1.2367 -0.1219 -0.8679
 3444SOL     OW10909   1.790   5.137   8.139 -0.2997 -0.3448 -0.4352
 3444SOL    HW110910   1.859   5.097   8.087 -0.3021  0.0733 -0.7675
 3444SOL    HW210911   1.769   5.218   8.093  0.2882  0.4632  0.6875
 3445SOL     OW10912   3.304   0.806   3.093  0.0747 -0.4761  0.3703
 3445SOL    HW110913   3.250   0.758   3.030 -0.1246 -1.7913  1.4974
 3445SOL    HW210914   3.260   0.891   3.103  0.0469 -0.2891 -1.1414
 3446SOL     OW10915   6.854   0.199   0.700  0.1834  0.3618 -0.0596
 3446SOL    HW110916   6.854   0.103   0.696 -1.0494  0.3782 -1.4956
 3446SOL    HW210917   6.841   0.219   0.793  0.0878 -0.8715  0.2117
 3447SOL     OW10918   4.108   4.310   6.324  0.0107 -0.9083 -0.2686
 3447SOL    HW110919   4.115   4.348   6.412  0.6415 -0.0058 -0.7005
 3447SOL    HW210920   4.185   4.254   6.316 -0.9713 -2.4297  0.4077
 3448SOL     OW10921   6.704   8.503   6.313  0.4931  0.4103  0.3840
 3448SOL    HW110922   6.744   8.442   6.251  0.2447  1.8768 -1.2897
 3448SOL    HW210923   6.778   8.551   6.351  0.6424 -0.4614  1.2291
 3449SOL     OW10924   3.305   8.268   1.682  0.2270  0.5419  0.0381
 3449SOL    HW110925   3.253   8.333   1.636 -2.0789 -1.6059 -0.6492
 3449SOL    HW210926   3.247   8.191   1.688  3.0010 -1.7115  0.1104
 3450SOL     OW10927   5.779   8.076   1.409  0.7871 -0.7833  0.2735
 3450SOL    HW110928   5.694   8.073   1.453  0.4989  0.4199 -0.1789
 3450SOL    HW210929   5.822   8.154   1.444  1.7308 -1.3893  0.5110
 3451SOL     OW10930   0.045   8.711   8.269 -0.5173 -0.2079 -0.4963
 3451SOL    HW110931   0.105   8.776   8.304  0.7103 -0.3910 -2.1255
 3451SOL    HW210932  -0.042   8.744   8.290  0.0781 -0.3365  2.6420
 3452SOL     OW10933   4.109   1.722   9.603  0.1182  0.0827 -0.0392
 3452SOL    HW110934   4.186   1.668   9.584 -0.3086 -0.1899 -1.0969
 3452SOL    HW210935   4.135   1.777   9.677  1.1716 -0.3258 -0.0939
 3453SOL     OW10936   3.362   3.189   5.186  0.1655  0.4064  0.3955
 3453SOL    HW110937   3.308   3.268   5.190 -1.3555 -0.3925 -1.8415
 3453SOL    HW210938   3.352   3.159   5.095  4.0610 -0.0902 -0.0158
 3454SOL     OW10939   0.028   7.133   7.918 -0.3403  0.0625  0.0029
 3454SOL    HW110940   0.015   7.053   7.969  1.4323  0.5430  1.3136
 3454SOL    HW210941   0.092   7.184   7.968 -1.2759  2.2447 -0.8699
 3455SOL     OW10942   5.054   8.510   3.908 -0.5760 -0.2183  0.3061
 3455SOL    HW110943   5.107   8.493   3.830 -0.8663  1.2724 -0.2502
 3455SOL    HW210944   4.965   8.484   3.884 -0.5370 -0.4520  0.4072
 3456SOL     OW10945   0.183   0.910   4.259 -0.2731  0.2204  0.8764
 3456SOL    HW110946   0.137   0.974   4.205  1.0986  0.8671  0.4489
 3456SOL    HW210947   0.261   0.887   4.209 -0.2372 -1.0675  1.4687
 3457SOL     OW10948   5.202   8.371   8.562 -0.3040 -0.1620  0.5205
 3457SOL    HW110949   5.157   8.339   8.641  1.2027 -1.7004  0.8000
 3457SOL    HW210950   5.283   8.409   8.595  0.5210 -1.1756 -0.2977
 3458SOL     OW10951   1.488   2.430   6.303 -0.0256 -0.0998 -0.1444
 3458SOL    HW110952   1.573   2.412   6.343  0.2296 -3.2321 -1.7410
 3458SOL    HW210953   1.507   2.496   6.236  0.5231  1.3017  1.3140
 3459SOL     OW10954   4.200   5.510   0.208  0.2089 -0.3563 -0.1435
 3459SOL    HW110955   4.226   5.601   0.190  0.7638 -0.5580 -0.3665
 3459SOL    HW210956   4.281   5.460   0.204 -0.3438 -1.1954 -2.0682
 3460SOL     OW10957   9.516   3.238   3.327  0.1243  0.0693  0.0081
 3460SOL    HW110958   9.501   3.244   3.421 -1.2770  0.5213 -0.2181
 3460SOL    HW210959   9.576   3.310   3.308  1.4968 -0.8468  0.7350
 3461SOL     OW10960   5.264   9.494   8.911 -0.4116  0.0458 -0.2123
 3461SOL    HW110961   5.251   9.458   8.823 -0.7862 -1.4037  0.3983
 3461SOL    HW210962   5.330   9.562   8.900  1.4454 -1.7966 -1.2695
 3462SOL     OW10963   3.339   7.180   1.866  0.3037  0.2220 -0.2224
 3462SOL    HW110964   3.348   7.115   1.937 -0.6028 -0.8973 -1.0906
 3462SOL    HW210965   3.421   7.174   1.818  1.1033  1.2924  0.9376
 3463SOL     OW10966   9.870   3.078   1.732  0.4378 -0.5512 -0.1146
 3463SOL    HW110967   9.788   3.124   1.718  0.2059 -1.2400 -1.1213
 3463SOL    HW210968   9.886   3.085   1.826 -0.1403  0.6358 -0.0938
 3464SOL     OW10969   2.982   8.765   4.081  0.0398  0.9492  0.3100
 3464SOL    HW110970   2.917   8.695   4.074  0.0557  0.9149  0.4931
 3464SOL    HW210971   3.010   8.781   3.991  0.0642  0.6921  0.2718
 3465SOL     OW10972   4.154   8.488   3.783  0.6615  0.2518  0.2497
 3465SOL    HW110973   4.142   8.536   3.701  2.3987 -1.5086 -1.1628
 3465SOL    HW210974   4.214   8.541   3.834 -0.2684  1.2678  0.3088
 3466SOL     OW10975   7.951   1.237   5.858  0.1159 -0.2810 -0.0544
 3466SOL    HW110976   7.936   1.308   5.796 -0.4883 -1.0353 -0.7751
 3466SOL    HW210977   8.007   1.277   5.926  1.5686  0.3034 -1.5250
 3467SOL     OW10978   1.954   8.849   0.486 -0.4258 -0.0633  0.5845
 3467SOL    HW110979   1.923   8.758   0.481 -1.2310  0.1779  0.9130
 3467SOL    HW210980   1.944   8.872   0.578 -2.4628  1.0874  0.1356
 3468SOL     OW10981   4.641   6.930   4.990  0.0070 -0.7817 -0.3498
 3468SOL    HW110982   4.602   7.018   4.985 -0.7474 -1.1038 -0.3297
 3468SOL    HW210983   4.628   6.893   4.903  0.5850 -0.7757 -0.4437
 3469SOL     OW10984   4.748   7.619   7.441  0.3604  0.4797 -0.6197
 3469SOL    HW110985   4.799   7.699   7.453 -0.1303  0.7349 -0.1362
 3469SOL    HW210986   4.796   7.552   7.489 -0.5953  1.0817  1.2982
 3470SOL     OW10987   5.595   2.684   9.441  0.1056 -1.0405 -0.1491
 3470SOL    HW110988   5.512   2.638   9.443 -1.0045  0.8373 -0.1918
 3470SOL    HW210989   5.584   2.757   9.503  1.1926  0.0458 -1.1687
 3471SOL     OW10990   7.204   8.392   0.510  0.3384 -0.2447  0.1426
 3471SOL    HW110991   7.186   8.345   0.591  3.1150 -0.0729  0.9542
 3471SOL    HW210992   7.216   8.483   0.537 -1.4133  0.3588 -0.9123
 3472SOL     OW10993   1.324   2.971   2.441  1.0131 -0.2860 -0.5583
 3472SOL    HW110994   1.365   3.033   2.381  0.9858 -1.6106 -2.0082
 3472SOL    HW210995   1.397   2.921   2.477  0.8975 -0.7629 -0.9732
 3473SOL     OW10996   9.124   1.393   3.445 -0.1025  0.5511 -0.1847
 3473SOL    HW110997   9.176   1.358   3.518 -0.1316 -0.3429 -0.5750
 3473SOL    HW210998   9.068   1.459   3.485 -0.1040  0.0874  0.6070
 3474SOL     OW10999   7.704   6.968   9.951  0.0544  0.2969 -0.3463
 3474SOL    HW111000   7.645   6.929  10.016  1.2065 -0.3481  0.3396
 3474SOL    HW211001   7.710   6.902   9.882  1.4251 -0.4650  0.4689
 3475SOL     OW11002   1.978   5.604   3.155 -0.8287  0.2873  0.1403
 3475SOL    HW111003   2.022   5.655   3.223  1.6033  0.3643 -1.3557
 3475SOL    HW211004   1.886   5.630   3.160 -0.0991  2.9423  1.0591
 3476SOL     OW11005   3.934   2.209   8.315 -1.0151  0.1488 -0.3882
 3476SOL    HW111006   3.891   2.140   8.366 -1.0460  0.1881 -0.3619
 3476SOL    HW211007   3.900   2.290   8.351 -0.4129  0.1964  0.0907
 3477SOL     OW11008   0.322   6.883   8.280 -0.3272  0.0748  0.2281
 3477SOL    HW111009   0.278   6.800   8.259  1.7255 -1.0251 -0.0261
 3477SOL    HW211010   0.386   6.859   8.347 -1.3041  1.9674  1.9557
 3478SOL     OW11011   9.150   7.345   5.865  0.1064  0.2161  0.1739
 3478SOL    HW111012   9.193   7.389   5.791 -0.1841  0.0985 -0.0640
 3478SOL    HW211013   9.147   7.253   5.840 -0.9094  0.3168 -0.1195
 3479SOL     OW11014   9.737   7.528   3.536  0.2358  0.1279  0.1359
 3479SOL    HW111015   9.661   7.536   3.478  0.6899 -0.2465 -0.5359
 3479SOL    HW211016   9.721   7.447   3.585  0.4691 -0.2820 -0.4396
 3480SOL     OW11017   1.886   4.904   2.561  0.4075 -1.0002  0.6764
 3480SOL    HW111018   1.840   4.830   2.599 -2.3085  0.5710  0.7230
 3480SOL    HW211019   1.837   4.981   2.591  1.5299  0.6569 -1.4154
 3481SOL     OW11020   5.005   5.775   4.105 -0.7519  0.4331 -0.2801
 3481SOL    HW111021   4.939   5.706   4.121  1.2517 -1.7858 -0.9823
 3481SOL    HW211022   5.084   5.743   4.149  0.0122  2.8574  0.2509
 3482SOL     OW11023   9.601   5.587   9.701  0.3378  0.6477 -0.0793
 3482SOL    HW111024   9.597   5.675   9.738 -1.1089  1.2064 -1.4392
 3482SOL    HW211025   9.685   5.584   9.655  1.5109  0.4213  1.9929
 3483SOL     OW11026   2.586   8.341   8.136 -0.0783 -0.5745  0.0779
 3483SOL    HW111027   2.543   8.287   8.070 -3.5608  0.1994  1.4875
 3483SOL    HW211028   2.589   8.285   8.214  1.1398 -0.4463  0.1396
 3484SOL     OW11029   3.855   7.278   5.537  0.1710  0.3355  0.2193
 3484SOL    HW111030   3.826   7.369   5.540 -0.1284  0.2364  0.2792
 3484SOL    HW211031   3.819   7.245   5.455 -0.5973 -0.0306  0.6994
 3485SOL     OW11032   9.301   4.439   7.149 -0.5883 -0.1119 -0.3198
 3485SOL    HW111033   9.387   4.421   7.111  0.1003  1.9786  0.0908
 3485SOL    HW211034   9.289   4.371   7.214  0.8402 -0.3696 -0.2871
 3486SOL     OW11035   2.473   0.438   7.957  0.1043 -0.3609  0.4811
 3486SOL    HW111036   2.504   0.348   7.949 -0.2231 -0.4798  0.5357
 3486SOL    HW211037   2.383   0.430   7.989  0.0523 -0.0179  0.4274
 3487SOL     OW11038   5.573   7.786   9.643  0.3256  0.8770  0.9868
 3487SOL    HW111039   5.499   7.825   9.692 -0.4973  0.4282  0.1330
 3487SOL    HW211040   5.559   7.815   9.553  2.3965  2.5351  1.1398
 3488SOL     OW11041   5.552   6.196   8.465  0.0352  0.1853 -0.1555
 3488SOL    HW111042   5.541   6.283   8.426 -0.7726  0.3091  0.3321
 3488SOL    HW211043   5.480   6.144   8.429  1.4770 -0.8066 -1.7984
 3489SOL     OW11044   5.880   5.751   5.533  0.0266  0.1490  0.0547
 3489SOL    HW111045   5.857   5.659   5.520  1.0253 -0.6180  2.8933
 3489SOL    HW211046   5.796   5.795   5.547 -0.3631 -0.6474  0.2627
 3490SOL     OW11047   7.801   1.778   8.509 -0.1068  0.7479  0.4811
 3490SOL    HW111048   7.877   1.749   8.561 -0.2653 -0.5472  0.0362
 3490SOL    HW211049   7.734   1.711   8.526 -0.1201  0.2029 -1.4660
 3491SOL     OW11050   2.987   5.351   1.872 -0.1207  0.8686 -0.1550
 3491SOL    HW111051   2.933   5.411   1.922  1.0438  1.1787  0.7754
 3491SOL    HW211052   3.075   5.388   1.876  0.4879 -0.4998 -0.1900
 3492SOL     OW11053   7.027   4.921   4.762  0.3296 -0.3453  0.1393
 3492SOL    HW111054   7.024   4.966   4.678  0.6571 -2.1316 -0.8998
 3492SOL    HW211055   6.955   4.958   4.813 -0.0617  0.5584 -1.0379
 3493SOL     OW11056   8.916   5.969   8.580 -0.2951 -0.4019 -0.7681
 3493SOL    HW111057   8.824   5.973   8.554 -0.0588  1.5201 -1.5167
 3493SOL    HW211058   8.913   5.966   8.676 -1.1650  0.3392 -0.7497
 3494SOL     OW11059   2.697   6.409   7.045 -0.3833  0.1128 -0.4228
 3494SOL    HW111060   2.758   6.396   6.972 -0.3593  1.2102 -0.6200
 3494SOL    HW211061   2.650   6.490   7.023 -2.4689 -1.0958 -0.6537
 3495SOL     OW11062   6.376   0.183   1.814  0.1610  0.1023 -0.1164
 3495SOL    HW111063   6.311   0.221   1.873 -0.2161  1.7416 -1.5082
 3495SOL    HW211064   6.442   0.252   1.803  0.7319 -0.5405 -0.8352
 3496SOL     OW11065   3.482   2.007   6.969 -0.9958 -0.0547 -0.3535
 3496SOL    HW111066   3.540   1.960   7.029  0.2751 -0.2501 -1.6500
 3496SOL    HW211067   3.476   1.949   6.893  1.9651  2.3796 -2.7450
 3497SOL     OW11068   8.143   9.491   7.080  0.0687  0.3330  0.2319
 3497SOL    HW111069   8.103   9.429   7.019  0.9050  0.8872 -0.9028
 3497SOL    HW211070   8.180   9.435   7.149  0.6711 -0.4402 -0.6890
 3498SOL     OW11071   9.251   3.202   7.530 -0.9966 -0.6661 -0.2324
 3498SOL    HW111072   9.310   3.157   7.590 -0.6695  0.0047 -0.0418
 3498SOL    HW211073   9.235   3.139   7.459  0.2139 -0.7348 -0.4552
 3499SOL     OW11074   3.571   1.047   2.204  0.1390 -0.2271 -0.1245
 3499SOL    HW111075   3.502   0.982   2.220  0.2988 -0.3458  0.1077
 3499SOL    HW211076   3.598   1.074   2.292 -0.4787  0.7530 -0.2348
 3500SOL     OW11077   4.961   5.415   9.005 -0.2100 -0.3017 -0.3765
 3500SOL    HW111078   4.867   5.422   9.020 -0.3612 -0.5148 -1.1645
 3500SOL    HW211079   5.000   5.484   9.059 -1.0648  1.9402 -2.4043
 3501SOL     OW11080   8.922   2.684   6.544  0.1423 -0.0524 -0.0657
 3501SOL    HW111081   8.928   2.677   6.640 -2.0294 -0.4039  0.1112
 3501SOL    HW211082   8.830   2.704   6.528  0.5955  0.6003 -2.0784
 3502SOL     OW11083   8.028   6.192   0.082 -0.2685  0.0052  0.5047
 3502SOL    HW111084   7.991   6.139   0.153  1.5409  0.7690  2.1037
 3502SOL    HW211085   8.080   6.258   0.126 -0.6549  1.7692 -1.5190
 3503SOL     OW11086   6.574   8.163   2.934  0.3928  0.3658  0.7434
 3503SOL    HW111087   6.481   8.162   2.912  0.7265 -1.7473 -0.8828
 3503SOL    HW211088   6.581   8.226   3.006 -2.2019  0.8953  0.6286
 3504SOL     OW11089   5.021   6.628   6.825 -0.5702  0.0641  0.5354
 3504SOL    HW111090   5.105   6.644   6.868 -0.0755  0.3304 -0.4960
 3504SOL    HW211091   4.999   6.712   6.784 -0.2496 -0.5812 -1.0213
 3505SOL     OW11092   5.291   5.644   9.669  0.5575 -0.1265 -0.2371
 3505SOL    HW111093   5.240   5.716   9.632  0.4234 -0.5498 -0.8980
 3505SOL    HW211094   5.249   5.565   9.634  1.5065 -0.4882 -0.6045
 3506SOL     OW11095   4.557   5.844   9.840 -0.8714 -0.1400  0.0833
 3506SOL    HW111096   4.482   5.790   9.813 -0.9887  0.1707 -0.2246
 3506SOL    HW211097   4.630   5.813   9.786 -0.8475 -0.2519  0.1809
 3507SOL     OW11098   9.040   8.423   3.873  0.2199  0.2408 -0.2076
 3507SOL    HW111099   9.004   8.487   3.811 -0.9462  0.2341  0.4392
 3507SOL    HW211100   9.008   8.339   3.842 -1.4479  0.3470  1.0737
 3508SOL     OW11101   7.617   8.190   4.767  0.3650  0.1623  0.1928
 3508SOL    HW111102   7.683   8.191   4.837  1.2918  2.1179 -0.6248
 3508SOL    HW211103   7.582   8.280   4.767 -0.2465 -0.0556 -1.2749
 3509SOL     OW11104   8.908   9.563   9.636 -0.0380 -0.3043  0.0351
 3509SOL    HW111105   8.839   9.615   9.594  1.0913  0.1352 -1.3782
 3509SOL    HW211106   8.984   9.573   9.578  0.6912 -2.2475  0.5757
 3510SOL     OW11107   2.828   1.204   3.728 -0.0238  0.0437  0.1514
 3510SOL    HW111108   2.786   1.125   3.762 -2.0750  0.9150 -0.1942
 3510SOL    HW211109   2.780   1.223   3.647  0.6329  1.4565  0.0651
 3511SOL     OW11110   3.162   4.058   6.063  0.6921 -0.0647 -0.1793
 3511SOL    HW111111   3.069   4.068   6.087  0.7860 -2.7164  1.7649
 3511SOL    HW211112   3.165   4.078   5.970 -2.2819 -1.8286 -0.7962
 3512SOL     OW11113   4.105   5.957   1.833  0.5027 -0.1869 -0.4538
 3512SOL    HW111114   4.128   5.874   1.790 -0.1265 -0.8989  0.5601
 3512SOL    HW211115   4.012   5.967   1.816  0.6723  0.5771 -0.9832
 3513SOL     OW11116   3.981   3.096   4.640 -0.1441  0.3193  0.0453
 3513SOL    HW111117   4.023   3.171   4.683 -0.5392  0.3635  0.3586
 3513SOL    HW211118   3.891   3.124   4.626 -0.7451 -0.6792  1.6410
 3514SOL     OW11119   2.125   4.856   4.682 -0.3651 -0.4558 -0.0838
 3514SOL    HW111120   2.200   4.900   4.723 -1.2217 -1.8886  3.3872
 3514SOL    HW211121   2.165   4.797   4.618  1.2158  0.6897 -0.2363
 3515SOL     OW11122   9.062   5.083   3.978  0.1739  0.0860  0.5854
 3515SOL    HW111123   9.135   5.024   3.992  0.8648  1.1307  1.5252
 3515SOL    HW211124   8.990   5.026   3.951  1.3738 -0.9305 -0.5815
 3516SOL     OW11125   9.442   8.716   6.205  0.3734  0.3683  0.3578
 3516SOL    HW111126   9.518   8.666   6.236  0.4128  0.8213  1.0117
 3516SOL    HW211127   9.467   8.743   6.116  0.6200 -0.2099  0.2437
 3517SOL     OW11128   5.160   3.564   6.134  0.4663 -0.3524  0.4568
 3517SOL    HW111129   5.151   3.582   6.227 -0.1405  1.4528  0.0858
 3517SOL    HW211130   5.071   3.545   6.104  0.6683 -1.0151  0.2483
 3518SOL     OW11131   3.378   2.767   1.128 -0.6207 -0.4206 -0.0297
 3518SOL    HW111132   3.439   2.738   1.195  0.4662  0.8223 -0.4586
 3518SOL    HW211133   3.415   2.735   1.046  0.4859  1.8884 -0.4918
 3519SOL     OW11134   2.680   0.094   0.921  0.2605  0.2898  0.6302
 3519SOL    HW111135   2.749   0.085   0.987 -0.3182  0.6297  1.2994
 3519SOL    HW211136   2.599   0.075   0.968 -0.0532 -0.8990 -0.3363
 3520SOL     OW11137   7.329   7.803   1.440  0.2946 -0.6591 -0.4187
 3520SOL    HW111138   7.389   7.845   1.378  1.7780  0.2132  1.4995
 3520SOL    HW211139   7.251   7.783   1.388  0.7501  1.6608 -2.1529
 3521SOL     OW11140   3.582   4.363   2.700  0.0445  0.8427  0.2992
 3521SOL    HW111141   3.490   4.340   2.714  0.3894 -0.6498  0.2897
 3521SOL    HW211142   3.627   4.279   2.695  1.1613  1.5036 -1.5086
 3522SOL     OW11143   8.200   4.798   6.114  0.0999  0.0106 -0.1103
 3522SOL    HW111144   8.166   4.867   6.056  0.2676  1.4221  1.4143
 3522SOL    HW211145   8.295   4.804   6.104  0.0989 -0.4956 -0.4932
 3523SOL     OW11146   6.819   2.558   0.174  0.4286 -0.2180  0.4110
 3523SOL    HW111147   6.774   2.513   0.102  2.8540 -2.3962  0.1126
 3523SOL    HW211148   6.905   2.582   0.137  1.1879 -0.1106  2.1725
 3524SOL     OW11149   9.635   3.995   8.547 -0.6946 -0.3341  1.0444
 3524SOL    HW111150   9.646   3.943   8.467  3.3783  2.9297 -0.8752
 3524SOL    HW211151   9.561   4.053   8.528 -0.1782 -0.0352 -0.1338
 3525SOL     OW11152   9.542   7.822   5.296  0.3811  0.3767 -0.2050
 3525SOL    HW111153   9.560   7.773   5.376 -1.0950  1.1494  0.6644
 3525SOL    HW211154   9.595   7.902   5.305 -0.9059  1.1771  0.8048
 3526SOL     OW11155   2.969   4.267   2.689 -0.1253 -0.5851  0.2682
 3526SOL    HW111156   3.002   4.356   2.703  0.8307 -1.1062  1.6024
 3526SOL    HW211157   2.888   4.263   2.740 -0.6711 -0.2190 -0.5476
 3527SOL     OW11158   1.708   0.659   1.298  0.2503  0.3235 -0.0695
 3527SOL    HW111159   1.802   0.678   1.302  0.0846  1.8735 -2.0107
 3527SOL    HW211160   1.686   0.630   1.386  1.8720  3.1544  1.4150
 3528SOL     OW11161   2.693   2.685   8.929 -0.0811 -0.6773  0.5196
 3528SOL    HW111162   2.713   2.763   8.981  0.5277  0.0663 -0.7613
 3528SOL    HW211163   2.730   2.704   8.843 -0.1492 -2.2905  0.0980
 3529SOL     OW11164   7.855   5.927   0.247  0.2772  0.1148  0.7036
 3529SOL    HW111165   7.943   5.890   0.248 -0.5312 -1.9967 -0.2073
 3529SOL    HW211166   7.812   5.884   0.173 -1.2421  1.7978  0.5566
 3530SOL     OW11167   9.063   1.652   5.414  0.0201  0.4183  0.8285
 3530SOL    HW111168   9.158   1.661   5.419  0.0550  2.1690 -1.5929
 3530SOL    HW211169   9.049   1.564   5.377  0.7373  0.5412  0.2451
 3531SOL     OW11170   8.676   1.162   9.324 -0.0072 -0.0366 -0.4870
 3531SOL    HW111171   8.713   1.243   9.288  0.0637  0.3581  0.4393
 3531SOL    HW211172   8.646   1.186   9.411  0.5713 -1.1538  0.0479
 3532SOL     OW11173   8.581   5.244   8.514 -0.0340 -0.0342 -0.1929
 3532SOL    HW111174   8.600   5.307   8.444  1.3189  1.2861  1.2900
 3532SOL    HW211175   8.658   5.188   8.517 -0.6189 -0.8742 -0.5412
 3533SOL     OW11176   8.583   0.080   5.477 -0.3359 -0.7072  0.2587
 3533SOL    HW111177   8.658   0.097   5.534 -0.4627 -0.0204  0.2206
 3533SOL    HW211178   8.530   0.016   5.525  0.1390 -0.9981  0.3977
 3534SOL     OW11179   6.607   5.935   3.692  0.1972  0.2036  0.0639
 3534SOL    HW111180   6.699   5.963   3.695 -0.0323  0.9468  1.6176
 3534SOL    HW211181   6.609   5.843   3.718  0.5322  0.1040 -0.3054
 3535SOL     OW11182   3.423   5.567   3.239 -0.0068  0.1043 -0.3151
 3535SOL    HW111183   3.360   5.544   3.308 -0.6041  2.7243  0.1352
 3535SOL    HW211184   3.503   5.519   3.263 -1.7796 -3.6090 -1.1023
 3536SOL     OW11185   8.952   6.269   4.098  0.0727  0.3863 -0.0802
 3536SOL    HW111186   8.996   6.346   4.064 -0.2250 -0.3324 -2.2473
 3536SOL    HW211187   8.860   6.294   4.106  0.1453  0.5603  0.2172
 3537SOL     OW11188   0.605   1.258   3.573 -0.4453 -0.5628  0.2200
 3537SOL    HW111189   0.514   1.262   3.603  0.0847  2.5163  1.8039
 3537SOL    HW211190   0.650   1.208   3.641 -0.6965 -0.8382  0.1882
 3538SOL     OW11191   1.549   7.181   6.707 -0.4066  0.3427 -0.3446
 3538SOL    HW111192   1.487   7.151   6.774  2.3537 -1.2747  1.7063
 3538SOL    HW211193   1.633   7.185   6.753  1.7689 -1.2906 -3.7942
 3539SOL     OW11194   1.430   8.448   5.876  0.1222 -0.3482 -0.1167
 3539SOL    HW111195   1.479   8.502   5.938 -1.0417 -0.2385  0.7304
 3539SOL    HW211196   1.414   8.507   5.801  0.2044 -0.0077  0.1310
 3540SOL     OW11197   0.619   0.119   9.830  0.2594  0.4869  0.1629
 3540SOL    HW111198   0.646   0.038   9.872 -0.1794 -0.7858 -1.8625
 3540SOL    HW211199   0.526   0.129   9.853 -0.1517 -0.5445 -0.9565
 3541SOL     OW11200   8.442   3.895   6.726  0.2552 -0.2962  0.2796
 3541SOL    HW111201   8.454   3.983   6.763  2.6444 -0.4400 -0.0183
 3541SOL    HW211202   8.397   3.846   6.796 -0.1715  0.8687  0.8486
 3542SOL     OW11203   2.893   5.664   7.769 -0.2578 -0.3597 -0.1532
 3542SOL    HW111204   2.901   5.601   7.840 -0.4567  0.9763  1.1216
 3542SOL    HW211205   2.983   5.683   7.743 -0.0895  0.2846  0.8379
 3543SOL     OW11206   2.506   5.009   7.921 -0.2619  0.3212 -0.0335
 3543SOL    HW111207   2.517   5.104   7.923  1.1933  0.1546  0.7564
 3543SOL    HW211208   2.562   4.980   7.849 -1.0073  0.0875 -0.5278
 3544SOL     OW11209   7.997   7.140   1.222 -0.4427 -0.0169 -0.1836
 3544SOL    HW111210   8.067   7.148   1.287 -0.0696 -1.0838 -0.4261
 3544SOL    HW211211   7.980   7.046   1.217 -0.0948 -0.0243 -2.0229
 3545SOL     OW11212   7.477   9.152   5.337 -0.4399 -0.7286  0.5651
 3545SOL    HW111213   7.407   9.089   5.357  0.4150 -1.5332  1.1138
 3545SOL    HW211214   7.516   9.171   5.422  0.5006 -0.8878  0.1797
 3546SOL     OW11215   6.445   4.601   4.725 -0.0236 -0.0002 -0.3757
 3546SOL    HW111216   6.442   4.512   4.690 -1.4896  0.2092 -0.8525
 3546SOL    HW211217   6.384   4.600   4.798 -2.1674  1.2428 -2.0307
 3547SOL     OW11218   0.257   7.560   0.638  0.0009 -0.2160  0.2619
 3547SOL    HW111219   0.261   7.467   0.658 -0.1556 -0.4694 -0.8117
 3547SOL    HW211220   0.181   7.592   0.688  0.2926 -0.5673  0.9446
 3548SOL     OW11221   4.707   1.838   0.150 -0.4381  0.1738 -0.3716
 3548SOL    HW111222   4.615   1.814   0.162 -0.7988  1.4233 -0.5340
 3548SOL    HW211223   4.720   1.914   0.207  0.9080 -0.8806  0.8021
 3549SOL     OW11224   5.887   5.579   2.846  0.3256  0.1915 -0.7055
 3549SOL    HW111225   5.837   5.526   2.908 -0.2313 -0.2736 -1.5442
 3549SOL    HW211226   5.867   5.542   2.760  1.1505  0.7762 -1.1672
 3550SOL     OW11227   9.659   9.546   5.369  0.2908 -0.0041 -0.5451
 3550SOL    HW111228   9.602   9.475   5.398 -0.2760  0.5138 -0.3850
 3550SOL    HW211229   9.604   9.624   5.370  0.7367  0.3398 -1.3206
 3551SOL     OW11230   3.154   0.774   0.198  0.6689  0.2721  0.4658
 3551SOL    HW111231   3.069   0.731   0.208  1.2742 -1.9662 -2.5640
 3551SOL    HW211232   3.155   0.842   0.266 -2.0605 -1.8597  2.8834
 3552SOL     OW11233   6.755   8.498   5.395 -0.3398 -0.3516  0.3886
 3552SOL    HW111234   6.761   8.548   5.314 -1.0388 -1.5545 -0.4367
 3552SOL    HW211235   6.843   8.462   5.407 -0.2766 -0.3079  0.0756
 3553SOL     OW11236   8.200   7.973   3.171  0.2698 -0.1296 -0.3999
 3553SOL    HW111237   8.246   7.998   3.091 -0.8054 -0.7097 -1.2252
 3553SOL    HW211238   8.161   7.888   3.150  0.1043 -0.3651  0.8041
 3554SOL     OW11239   8.353   5.700   8.555  0.2780  0.1967  0.2844
 3554SOL    HW111240   8.282   5.638   8.572  0.4332  0.3600  1.5958
 3554SOL    HW211241   8.430   5.645   8.540  0.5916  0.0428  2.2321
 3555SOL     OW11242   6.730   0.529   3.638  0.4031 -0.3093 -0.2652
 3555SOL    HW111243   6.799   0.596   3.633  1.2057 -1.0444  0.6318
 3555SOL    HW211244   6.657   0.573   3.681  1.2134 -0.2121  1.0550
 3556SOL     OW11245   1.344   8.581   8.901 -0.3011 -0.3277 -0.2893
 3556SOL    HW111246   1.322   8.584   8.808 -1.3704  1.2485 -0.0073
 3556SOL    HW211247   1.314   8.664   8.936  1.4498 -0.2571  1.1940
 3557SOL     OW11248   1.509   8.550   0.449 -0.0614 -0.1969 -0.5798
 3557SOL    HW111249   1.568   8.604   0.395 -1.1815  0.2781 -1.3722
 3557SOL    HW211250   1.458   8.613   0.499  2.5889 -0.6254  3.0162
 3558SOL     OW11251   4.523   4.832   4.757  0.8297 -0.1374  0.0877
 3558SOL    HW111252   4.535   4.792   4.843  0.9664 -0.7543 -0.2188
 3558SOL    HW211253   4.466   4.772   4.710  0.6354  0.2739 -0.2089
 3559SOL     OW11254   1.849   2.487   7.152  0.0820 -0.4084  0.2790
 3559SOL    HW111255   1.875   2.416   7.211  0.7737 -0.0897  0.3645
 3559SOL    HW211256   1.756   2.501   7.171  0.3605 -0.0972  1.5296
 3560SOL     OW11257   4.155   5.032   7.930  0.1881 -0.3360  0.1056
 3560SOL    HW111258   4.170   5.110   7.876 -0.3548  1.4633  2.3493
 3560SOL    HW211259   4.234   5.026   7.984  0.2407 -1.3964 -0.0804
 3561SOL     OW11260   2.975   7.338   2.268 -0.2040 -0.0133  0.0273
 3561SOL    HW111261   2.981   7.338   2.173 -1.9488  0.4923 -0.1054
 3561SOL    HW211262   2.964   7.430   2.292 -2.9592 -0.3871  0.4390
 3562SOL     OW11263   4.139   2.521   8.040 -0.2922  0.2159  0.1297
 3562SOL    HW111264   4.138   2.563   7.954  1.2358  0.0798  0.0172
 3562SOL    HW211265   4.092   2.438   8.027 -1.7204  1.0178 -0.0837
 3563SOL     OW11266   6.973   1.536   5.243  0.4278 -0.1868 -0.7855
 3563SOL    HW111267   7.043   1.556   5.305 -0.3468  1.6362 -0.4511
 3563SOL    HW211268   6.971   1.611   5.184  0.6776 -1.5577 -2.6468
 3564SOL     OW11269   9.613   1.390   9.296  0.5116 -0.5151  0.0394
 3564SOL    HW111270   9.611   1.409   9.202 -1.3538 -0.2367  0.0910
 3564SOL    HW211271   9.582   1.471   9.337 -0.1482 -1.1260  0.7800
 3565SOL     OW11272   3.308   5.488   1.226  0.3850  0.2627 -0.1675
 3565SOL    HW111273   3.322   5.406   1.273 -0.1404  1.5644  2.4055
 3565SOL    HW211274   3.213   5.490   1.210  0.4967  0.0487 -0.8848
 3566SOL     OW11275   4.047   4.061   8.850 -0.0463 -0.2498 -0.1372
 3566SOL    HW111276   4.079   4.081   8.938 -0.5642  0.0849 -0.0260
 3566SOL    HW211277   4.126   4.035   8.802  0.2305 -0.4866  0.4352
 3567SOL     OW11278   0.938   3.974   1.475 -0.2710 -0.1773 -0.3983
 3567SOL    HW111279   0.960   4.062   1.446  0.3545 -0.3362 -0.4374
 3567SOL    HW211280   0.848   3.960   1.446 -2.1826  2.1493  3.5286
 3568SOL     OW11281   8.846   7.183   3.149  0.6151 -0.4526 -0.4189
 3568SOL    HW111282   8.785   7.234   3.095  1.4944  0.1711 -0.8637
 3568SOL    HW211283   8.834   7.217   3.238 -0.9652 -1.6024 -0.1550
 3569SOL     OW11284   6.145   6.393   0.385  0.4905  0.0808 -0.4132
 3569SOL    HW111285   6.150   6.487   0.367  0.1132 -0.2041 -2.2660
 3569SOL    HW211286   6.075   6.362   0.328 -0.1100 -1.1757  0.9410
 3570SOL     OW11287   7.230   4.024   7.191  0.6370  0.2402 -0.2401
 3570SOL    HW111288   7.164   3.958   7.213  1.0934  0.4008  1.8104
 3570SOL    HW211289   7.203   4.102   7.238  0.9118  1.0880 -1.4594
 3571SOL     OW11290   2.283   1.272   2.674 -0.5959 -0.4391 -0.1036
 3571SOL    HW111291   2.344   1.262   2.602 -0.6065 -0.1349 -0.1552
 3571SOL    HW211292   2.328   1.234   2.750  0.6172  1.7901  0.3813
 3572SOL     OW11293   0.018   6.693   4.834  0.0087  0.0398  0.3116
 3572SOL    HW111294   0.025   6.689   4.738 -2.3110 -1.2734  0.0972
 3572SOL    HW211295  -0.020   6.779   4.851 -0.6470 -0.1557 -0.0895
 3573SOL     OW11296   8.340   1.361   8.853 -0.4288 -0.0841 -0.3022
 3573SOL    HW111297   8.319   1.332   8.764 -0.1123  2.2276 -1.1993
 3573SOL    HW211298   8.376   1.449   8.842  1.0585 -0.3274  2.0115
 3574SOL     OW11299   6.085   1.423   5.535  0.5321  0.0019  0.5809
 3574SOL    HW111300   6.089   1.517   5.516  3.1811 -0.2585 -0.4891
 3574SOL    HW211301   6.026   1.388   5.467  0.8513  0.6726 -0.0559
 3575SOL     OW11302   4.268   8.205   0.421  0.4316 -0.5419 -0.3425
 3575SOL    HW111303   4.258   8.221   0.327  1.1803 -0.6371 -0.4471
 3575SOL    HW211304   4.237   8.286   0.462  2.0113  0.3261 -0.7740
 3576SOL     OW11305   7.001   7.390   7.298 -0.1776  0.5800 -0.1607
 3576SOL    HW111306   6.907   7.371   7.303 -0.4412  1.4551 -1.4331
 3576SOL    HW211307   7.030   7.345   7.219  0.2801  1.0832 -0.2780
 3577SOL     OW11308   4.661   0.267   0.672 -0.0290  0.5862 -0.0789
 3577SOL    HW111309   4.641   0.173   0.673 -0.3538  0.6593  0.4896
 3577SOL    HW211310   4.756   0.270   0.681 -0.0578  0.3188  0.3788
 3578SOL     OW11311   4.546   8.130   2.574  0.4545  0.3192 -0.0258
 3578SOL    HW111312   4.577   8.051   2.619  2.2876  1.5074  0.9214
 3578SOL    HW211313   4.611   8.196   2.595 -1.5072  2.3643 -0.0145
 3579SOL     OW11314   8.226   6.798   8.017 -0.2348  0.2069  0.2147
 3579SOL    HW111315   8.250   6.879   7.973 -0.9867  0.8169  0.8845
 3579SOL    HW211316   8.308   6.749   8.026  0.2394  0.9369 -0.1005
 3580SOL     OW11317   7.963   6.174   5.165 -0.3731  0.1453 -0.4271
 3580SOL    HW111318   7.994   6.118   5.093  1.9933 -0.0852  0.6815
 3580SOL    HW211319   7.990   6.262   5.141  0.2709  0.0915  0.0694
 3581SOL     OW11320   8.533   4.915   2.384  0.1878 -0.1918 -0.3048
 3581SOL    HW111321   8.609   4.972   2.375  0.1848 -0.2942 -1.0408
 3581SOL    HW211322   8.523   4.875   2.298  0.0587 -1.1418  0.1390
 3582SOL     OW11323   2.157   6.835   0.522 -0.1856  0.0702  0.3399
 3582SOL    HW111324   2.143   6.842   0.616  0.8675 -0.6405  0.5625
 3582SOL    HW211325   2.216   6.908   0.502  1.3391 -1.0541  0.6236
 3583SOL     OW11326   2.255   9.222   9.723  0.1129  0.0418 -0.5542
 3583SOL    HW111327   2.271   9.311   9.690  0.6687  0.1484 -0.0130
 3583SOL    HW211328   2.167   9.225   9.760  0.0731  0.3245 -0.6710
 3584SOL     OW11329   2.910   1.107   7.166  0.2620  0.4388 -0.2758
 3584SOL    HW111330   2.927   1.017   7.136  1.0363  0.7930 -0.9297
 3584SOL    HW211331   2.855   1.145   7.098  0.5586  0.6933 -0.3755
 3585SOL     OW11332   3.586   3.480   1.980  0.3472  0.3845  0.4439
 3585SOL    HW111333   3.672   3.479   1.938 -0.0128  3.5280 -0.6441
 3585SOL    HW211334   3.601   3.520   2.066  0.0912  0.1548  0.5994
 3586SOL     OW11335   4.970   9.791   0.813  0.5331  0.0482 -0.0636
 3586SOL    HW111336   4.944   9.725   0.878  1.4566 -1.7197 -1.4024
 3586SOL    HW211337   5.011   9.860   0.865  0.4551 -0.8926  1.3215
 3587SOL     OW11338   8.907   4.381   2.443 -0.7255  0.0611  0.1916
 3587SOL    HW111339   8.812   4.379   2.434 -0.5430 -0.9758 -3.1369
 3587SOL    HW211340   8.932   4.291   2.465 -0.4759  0.1191  0.1575
 3588SOL     OW11341   9.267   5.768   1.291  0.3924 -0.3510 -0.1418
 3588SOL    HW111342   9.275   5.673   1.286  0.9824 -0.2478 -1.9822
 3588SOL    HW211343   9.338   5.796   1.348 -0.4603 -1.0548  1.3312
 3589SOL     OW11344   0.830   2.993   6.128 -0.0428  0.2400 -0.1458
 3589SOL    HW111345   0.754   2.950   6.089  0.2368 -1.0227  0.6340
 3589SOL    HW211346   0.905   2.945   6.092  0.2987  0.3001  0.4777
 3590SOL     OW11347   4.973   7.174   7.312  0.3166 -0.1302  0.3292
 3590SOL    HW111348   5.033   7.203   7.380  0.7734  0.4554 -0.3101
 3590SOL    HW211349   4.886   7.193   7.346  0.5684  0.9265  0.4104
 3591SOL     OW11350   2.336   8.098   0.991  0.4183  0.4153 -0.1207
 3591SOL    HW111351   2.343   8.179   1.042 -3.4454  0.8988 -0.0307
 3591SOL    HW211352   2.375   8.118   0.907  3.0006  1.0170  1.1183
 3592SOL     OW11353   4.028   4.727   4.520  0.2666  0.6112  0.4503
 3592SOL    HW111354   4.053   4.642   4.485 -2.1472  0.5421 -1.3940
 3592SOL    HW211355   3.998   4.710   4.609  1.7452 -0.0897  0.8304
 3593SOL     OW11356   4.141   6.254   2.230  0.1130  0.3114 -0.1813
 3593SOL    HW111357   4.219   6.209   2.263 -0.7765 -0.8990  0.3913
 3593SOL    HW211358   4.171   6.302   2.153  0.8941 -2.3866 -1.6951
 3594SOL     OW11359   7.401   8.820   3.313 -0.2058  0.2724  0.2241
 3594SOL    HW111360   7.415   8.739   3.361 -0.1529  1.0378  1.5594
 3594SOL    HW211361   7.471   8.821   3.248  1.6086  0.5735  2.0640
 3595SOL     OW11362   6.980   8.795   6.682 -0.1993 -0.0789 -0.4005
 3595SOL    HW111363   7.004   8.884   6.659  2.2907 -0.9721 -1.5968
 3595SOL    HW211364   7.058   8.758   6.723 -0.2258 -2.4555 -2.2586
 3596SOL     OW11365   2.089   2.270   8.923  1.0320 -0.2382  0.1792
 3596SOL    HW111366   2.116   2.350   8.878  0.8071 -0.5427 -0.5160
 3596SOL    HW211367   2.036   2.301   8.997 -2.9778  0.2624 -2.6044
 3597SOL     OW11368   3.430   1.308   3.175 -0.5200  0.4926 -0.5157
 3597SOL    HW111369   3.357   1.343   3.227  0.4757  0.5073  0.9337
 3597SOL    HW211370   3.396   1.228   3.136 -0.6645 -0.8128  2.0681
 3598SOL     OW11371   2.621   6.634   6.391  0.2009 -0.0194  0.6643
 3598SOL    HW111372   2.535   6.657   6.426  0.0082  1.7596 -0.8204
 3598SOL    HW211373   2.612   6.645   6.297  1.5662 -1.6324  0.2961
 3599SOL     OW11374   5.378   4.315   0.498 -0.2241 -0.2165  0.1757
 3599SOL    HW111375   5.422   4.273   0.424 -0.2066  0.4878 -0.2177
 3599SOL    HW211376   5.397   4.408   0.488 -1.8224  0.1205 -0.0282
 3600SOL     OW11377   0.030   6.355   2.966  0.1543  0.6719  0.0409
 3600SOL    HW111378   0.101   6.389   3.020 -0.5041 -1.7461  2.7241
 3600SOL    HW211379  -0.047   6.403   2.996 -0.3183 -1.0880  1.8988
 3601SOL     OW11380   7.633   0.631   0.253 -0.5389 -0.5170  1.2444
 3601SOL    HW111381   7.705   0.574   0.224  0.1221  0.9097 -0.0926
 3601SOL    HW211382   7.555   0.593   0.214 -0.5907 -2.2060  2.8797
 3602SOL     OW11383   8.173   7.083   3.595  0.0070  0.0985  0.1050
 3602SOL    HW111384   8.205   7.041   3.515 -0.1600 -0.9349  0.5571
 3602SOL    HW211385   8.086   7.044   3.609  1.0577 -1.7380  2.1624
 3603SOL     OW11386   0.500   8.778   4.721 -0.1717  0.5708 -0.2960
 3603SOL    HW111387   0.434   8.800   4.787  1.4117  1.4192  1.0930
 3603SOL    HW211388   0.581   8.769   4.771  1.0304  0.9023 -2.0983
 3604SOL     OW11389   0.229   5.704   9.533 -0.0818 -0.2808 -0.1909
 3604SOL    HW111390   0.149   5.652   9.536 -1.6159  1.8853 -0.6085
 3604SOL    HW211391   0.281   5.673   9.607 -0.4942 -2.9110 -0.9044
 3605SOL     OW11392   4.041   7.292   4.937  0.0269  0.4362 -0.3208
 3605SOL    HW111393   3.985   7.338   4.875 -2.0205 -1.5211 -0.0906
 3605SOL    HW211394   4.007   7.317   5.023 -1.3285 -1.5612 -0.1958
 3606SOL     OW11395   7.095   0.544   5.075  0.4769  0.4853 -0.2484
 3606SOL    HW111396   7.078   0.454   5.102 -0.5020  0.2597 -1.5189
 3606SOL    HW211397   7.110   0.592   5.157  2.3968 -1.0680  0.3907
 3607SOL     OW11398   0.291   3.149   2.938  0.0954  0.1202 -0.3655
 3607SOL    HW111399   0.386   3.150   2.951  0.1558  1.6737 -0.7919
 3607SOL    HW211400   0.275   3.071   2.886  0.9099 -1.1568  1.1816
 3608SOL     OW11401   8.197   2.010   4.360  0.2430  0.1306 -0.0424
 3608SOL    HW111402   8.272   2.067   4.345  0.4151 -0.0304  0.2057
 3608SOL    HW211403   8.132   2.038   4.295  0.8298 -0.3119 -0.8334
 3609SOL     OW11404   2.177   6.069   2.784 -0.4874  0.4740  0.1128
 3609SOL    HW111405   2.148   6.007   2.717 -1.4419  0.5682  0.4321
 3609SOL    HW211406   2.097   6.104   2.821  0.0400  1.3362  0.4708
 3610SOL     OW11407   3.473   1.051   8.093 -0.1286  0.2588 -0.2673
 3610SOL    HW111408   3.410   1.100   8.039  0.7112  0.8358 -0.7566
 3610SOL    HW211409   3.543   1.028   8.032  1.7303  2.4733  0.8622
 3611SOL     OW11410   0.972   6.065   9.705 -0.1207 -0.0935  0.3464
 3611SOL    HW111411   0.895   6.105   9.745  0.2059  0.1077  0.7864
 3611SOL    HW211412   0.939   6.023   9.626 -0.5072  0.9048 -0.0501
 3612SOL     OW11413   0.704   3.015   0.962  0.4466  0.2058 -0.1939
 3612SOL    HW111414   0.708   2.929   1.004 -0.7611  0.7673  1.1197
 3612SOL    HW211415   0.669   2.997   0.875 -2.9207 -0.3308  1.1433
 3613SOL     OW11416   3.349   2.726   6.578  0.2414  0.4516  0.0274
 3613SOL    HW111417   3.434   2.745   6.617  0.1950 -0.7304  0.7486
 3613SOL    HW211418   3.329   2.803   6.525  1.8580  0.6325 -0.3474
 3614SOL     OW11419   4.662   8.781   1.384 -0.4712 -0.6281  0.1299
 3614SOL    HW111420   4.668   8.788   1.480  1.0288  2.8173 -0.0519
 3614SOL    HW211421   4.568   8.772   1.367 -1.0878  1.3415  1.9557
 3615SOL     OW11422   3.097   9.752   0.907 -0.3415  0.0436  0.0858
 3615SOL    HW111423   3.074   9.799   0.988  0.2327  0.2963  0.1112
 3615SOL    HW211424   3.165   9.807   0.867 -1.9562  0.9538 -1.5671
 3616SOL     OW11425   3.945   1.473   6.374 -0.2559 -0.0518 -0.1720
 3616SOL    HW111426   3.903   1.397   6.415 -0.5065 -0.0735 -0.4652
 3616SOL    HW211427   4.036   1.446   6.361 -0.1262  0.0227  0.5356
 3617SOL     OW11428   3.846   9.304   0.149 -0.7986  0.0595 -0.5475
 3617SOL    HW111429   3.886   9.329   0.232 -1.9095  1.3557 -0.3538
 3617SOL    HW211430   3.901   9.233   0.116 -1.7485 -2.2933  2.4747
 3618SOL     OW11431   2.613   5.258   2.288  0.4045 -0.1765  0.0893
 3618SOL    HW111432   2.589   5.165   2.285  0.1840 -0.1874  1.5895
 3618SOL    HW211433   2.530   5.305   2.283  0.4068 -0.0993  0.7475
 3619SOL     OW11434   1.337   6.828   7.782 -0.1309 -0.3643  0.7400
 3619SOL    HW111435   1.316   6.889   7.853 -1.3689  0.1093 -0.0008
 3619SOL    HW211436   1.290   6.748   7.805  0.8978 -0.8198  1.3335
 3620SOL     OW11437   7.259   0.418   1.261  0.6479  0.0752 -0.0063
 3620SOL    HW111438   7.321   0.482   1.296  0.6623 -0.6702  1.3975
 3620SOL    HW211439   7.312   0.340   1.242  0.3024 -0.2451  0.3211
 3621SOL     OW11440   9.606   7.690   7.394 -0.1105  0.4667  0.0195
 3621SOL    HW111441   9.648   7.733   7.319 -0.5800 -1.0243 -1.1586
 3621SOL    HW211442   9.513   7.694   7.374 -0.1409 -2.0869 -0.8036
 3622SOL     OW11443   6.494   4.758   1.575 -0.1077  0.1778  0.1517
 3622SOL    HW111444   6.450   4.834   1.612  0.0407  1.3293 -1.8623
 3622SOL    HW211445   6.441   4.735   1.498  0.1286 -1.4636  0.4562
 3623SOL     OW11446   9.630   6.232   4.158 -0.3619  0.1369  0.1516
 3623SOL    HW111447   9.613   6.158   4.216  0.5168 -0.7919 -0.7156
 3623SOL    HW211448   9.544   6.256   4.123 -0.8029  0.2706  1.3063
 3624SOL     OW11449   5.811   8.240   0.575  0.1147  0.1327 -0.0452
 3624SOL    HW111450   5.885   8.200   0.621  0.4857  0.5997 -0.2245
 3624SOL    HW211451   5.746   8.257   0.643  1.7236  3.3597  0.8659
 3625SOL     OW11452   5.186   1.989   1.229  0.4482 -0.9053 -0.1550
 3625SOL    HW111453   5.205   1.901   1.264  0.0624 -0.3473  1.5689
 3625SOL    HW211454   5.116   2.022   1.285 -0.6306 -0.1299 -1.8779
 3626SOL     OW11455   8.854   8.396   2.044 -0.0314  0.0952  0.0797
 3626SOL    HW111456   8.907   8.475   2.054 -0.4617  0.3199  0.6641
 3626SOL    HW211457   8.798   8.415   1.969 -0.1233  0.3523  0.2079
 3627SOL     OW11458   3.393   9.371   1.643  0.5112 -0.2310  0.3597
 3627SOL    HW111459   3.344   9.409   1.716  0.9074 -0.9076  0.9915
 3627SOL    HW211460   3.365   9.421   1.567  0.0474  0.4551  0.9662
 3628SOL     OW11461   7.787   5.259   0.268 -0.4418  0.0656 -0.3266
 3628SOL    HW111462   7.805   5.235   0.177  0.4776 -2.1196  0.3586
 3628SOL    HW211463   7.767   5.176   0.311 -1.5084  1.1335  1.3419
 3629SOL     OW11464   4.636   3.081   1.939  0.1834 -0.3773  0.4832
 3629SOL    HW111465   4.659   3.169   1.908 -0.5621 -0.5755 -0.6496
 3629SOL    HW211466   4.595   3.038   1.864 -1.0865 -1.0879  1.5432
 3630SOL     OW11467   0.954   5.382   7.240 -0.1445 -0.0900 -0.4776
 3630SOL    HW111468   1.040   5.410   7.207  0.5787  0.7250  1.8943
 3630SOL    HW211469   0.905   5.359   7.161  2.0842 -0.1463 -1.9502
 3631SOL     OW11470   0.070   7.350   4.957 -0.0941 -0.3635 -0.0427
 3631SOL    HW111471   0.139   7.298   4.915  0.2442  1.2036 -1.5721
 3631SOL    HW211472   0.106   7.439   4.958 -1.7162  0.3129  0.0005
 3632SOL     OW11473   8.814   8.316   1.439 -0.1218 -0.1077  0.3994
 3632SOL    HW111474   8.842   8.225   1.429  0.0631  0.0432 -0.5223
 3632SOL    HW211475   8.828   8.355   1.353 -1.4264  0.4554  0.4231
 3633SOL     OW11476   7.384   5.174   3.148  0.0823  0.2764 -0.0827
 3633SOL    HW111477   7.377   5.269   3.140 -2.1019  0.4765  2.7217
 3633SOL    HW211478   7.446   5.161   3.220  1.1017 -0.4895 -1.0739
 3634SOL     OW11479   0.074   9.846   1.957 -0.6429  0.2195 -0.1606
 3634SOL    HW111480   0.046   9.912   1.893  0.3686  0.2255 -0.6145
 3634SOL    HW211481  -0.006   9.821   2.002 -0.9406  2.5334  0.7537
 3635SOL     OW11482   7.827   8.626   0.464 -0.2337 -0.2874 -0.1037
 3635SOL    HW111483   7.894   8.685   0.429 -0.1681 -0.8508 -0.9860
 3635SOL    HW211484   7.799   8.666   0.546  1.8064 -0.4802  0.7564
 3636SOL     OW11485   8.530   1.218   6.080 -0.0922  0.8053  0.0525
 3636SOL    HW111486   8.570   1.287   6.132  1.4382  0.8471 -1.1158
 3636SOL    HW211487   8.438   1.218   6.107  0.4306  1.4690  1.9999
 3637SOL     OW11488   2.689   6.314   6.029 -0.3402 -0.3631 -0.5820
 3637SOL    HW111489   2.708   6.265   5.949 -0.4040 -1.6879  0.1664
 3637SOL    HW211490   2.604   6.355   6.013  1.0963  2.1739 -2.4034
 3638SOL     OW11491   8.112   9.927   4.294 -0.2373  0.2666  0.5962
 3638SOL    HW111492   8.065  10.009   4.278 -1.4157 -0.6706 -1.0337
 3638SOL    HW211493   8.201   9.954   4.315 -0.7719  1.9878  0.7721
 3639SOL     OW11494   3.466   1.156   0.893 -0.4424 -1.0393  0.0513
 3639SOL    HW111495   3.538   1.141   0.955 -0.4022  0.0658  0.3019
 3639SOL    HW211496   3.395   1.190   0.947 -0.8862 -1.3680 -0.3167
 3640SOL     OW11497   5.095   6.511   2.719 -0.2210  0.4106  0.3047
 3640SOL    HW111498   5.086   6.419   2.745  0.8288  0.9589  2.9419
 3640SOL    HW211499   5.008   6.535   2.686 -0.2241 -1.7581 -1.4873
 3641SOL     OW11500   6.868   5.096   2.575  0.5267  0.2525  0.6306
 3641SOL    HW111501   6.782   5.133   2.556  0.3760 -0.1321  0.5574
 3641SOL    HW211502   6.924   5.129   2.504  0.6835  1.3425  1.2461
 3642SOL     OW11503   8.177   5.797   2.977  0.0399 -0.3207  0.2638
 3642SOL    HW111504   8.152   5.761   2.892  0.3581 -1.2513  0.5424
 3642SOL    HW211505   8.095   5.825   3.017  0.0080  1.2594 -0.8231
 3643SOL     OW11506   9.278   3.884   5.432  0.4774 -0.3065 -0.0561
 3643SOL    HW111507   9.265   3.803   5.383  1.3489 -0.9763  0.7836
 3643SOL    HW211508   9.191   3.922   5.439 -0.3073 -2.1703  1.2309
 3644SOL     OW11509   1.150   4.595   0.334 -0.0218  0.4217  0.1573
 3644SOL    HW111510   1.220   4.533   0.355  0.1255 -0.5001 -2.7022
 3644SOL    HW211511   1.070   4.542   0.334 -0.2651  0.7852  0.2115
 3645SOL     OW11512   8.204   4.218   0.613  0.1071 -0.9662 -0.0237
 3645SOL    HW111513   8.184   4.306   0.644 -0.0530 -0.3297 -1.8234
 3645SOL    HW211514   8.286   4.195   0.657 -0.7481 -0.6660  1.8238
 3646SOL     OW11515   3.771   5.155   8.229 -0.2639 -0.8202  0.1104
 3646SOL    HW111516   3.784   5.213   8.154 -0.9017  0.9155  1.2830
 3646SOL    HW211517   3.846   5.096   8.227  1.8995  1.7180  0.3236
 3647SOL     OW11518   6.206   9.811   4.595 -0.2356  0.2023  0.2521
 3647SOL    HW111519   6.138   9.801   4.661  1.0823  0.0775  1.6560
 3647SOL    HW211520   6.205   9.905   4.574 -1.5498  0.0195 -0.5682
 3648SOL     OW11521   8.105   2.335   0.352 -0.2874  0.0505 -0.6134
 3648SOL    HW111522   8.180   2.295   0.395 -0.5786 -0.6648 -0.7622
 3648SOL    HW211523   8.117   2.429   0.366  0.8811 -0.0201 -1.0375
 3649SOL     OW11524   5.853   6.937   6.058  0.6824  0.1175 -0.0045
 3649SOL    HW111525   5.823   6.853   6.024  0.9874  1.1585 -3.1898
 3649SOL    HW211526   5.805   6.949   6.140 -0.2082 -2.6093 -0.0529
 3650SOL     OW11527   1.116   0.318   6.656  0.1814 -0.0938  0.3383
 3650SOL    HW111528   1.035   0.267   6.646 -0.7171  0.9865  1.7679
 3650SOL    HW211529   1.180   0.254   6.687  0.0622 -1.0826 -1.3371
 3651SOL     OW11530   0.589   3.503   8.663  0.0640 -0.4417 -0.1574
 3651SOL    HW111531   0.679   3.473   8.669  0.5030  0.8927  0.1762
 3651SOL    HW211532   0.556   3.464   8.581  0.2963 -2.5058  0.6568
 3652SOL     OW11533   4.327   4.951   6.530 -0.4831 -0.1515  0.6410
 3652SOL    HW111534   4.391   4.900   6.579  0.0550 -0.6947 -0.5802
 3652SOL    HW211535   4.264   4.886   6.497 -0.5538  0.1285  0.2081
 3653SOL     OW11536   0.843   6.601   7.497 -0.1557  0.1280 -0.0697
 3653SOL    HW111537   0.830   6.670   7.432 -2.2734  0.2488  0.3910
 3653SOL    HW211538   0.764   6.604   7.551 -1.1358 -3.6295 -0.9499
 3654SOL     OW11539   5.247   0.529   4.008  0.3996 -0.1286  0.3568
 3654SOL    HW111540   5.327   0.533   3.955 -0.0943  0.3653 -0.3831
 3654SOL    HW211541   5.194   0.602   3.976 -0.3437 -0.4415  0.8462
 3655SOL     OW11542   0.887   8.316   3.630 -0.3444  0.5320 -0.1909
 3655SOL    HW111543   0.878   8.410   3.650  0.6405  0.7814 -0.8485
 3655SOL    HW211544   0.948   8.282   3.695  0.8982  0.8096 -1.1641
 3656SOL     OW11545   5.609   9.906   9.734  0.1833 -0.2903 -0.9794
 3656SOL    HW111546   5.601   9.823   9.688  0.4846 -2.3666  2.3567
 3656SOL    HW211547   5.523   9.922   9.772  0.8517 -0.7349  0.8436
 3657SOL     OW11548   4.716   2.479   3.662 -0.7761 -0.1583  0.3357
 3657SOL    HW111549   4.698   2.399   3.612 -0.1968 -0.7246  1.0277
 3657SOL    HW211550   4.698   2.550   3.599  2.4242 -0.8661 -1.5817
 3658SOL     OW11551   7.172   0.855   5.627  0.2278 -0.1048  0.0768
 3658SOL    HW111552   7.236   0.785   5.637  0.4449  0.0399 -0.2621
 3658SOL    HW211553   7.198   0.900   5.546 -0.8373 -0.6162 -0.5884
 3659SOL     OW11554   3.692   9.809   6.622 -0.1072  0.6305  0.1040
 3659SOL    HW111555   3.686   9.750   6.697 -2.1682  2.3574  1.4541
 3659SOL    HW211556   3.723   9.891   6.659 -4.2754  2.5526 -0.0501
 3660SOL     OW11557   8.236   8.173   7.365  0.3830 -0.4588  0.0404
 3660SOL    HW111558   8.286   8.251   7.338 -0.2061  0.3072  1.1156
 3660SOL    HW211559   8.271   8.103   7.310 -0.3980  0.9104 -2.3658
 3661SOL     OW11560   3.691   9.868   4.657 -0.2416  0.5257  0.3238
 3661SOL    HW111561   3.624   9.898   4.596 -0.5168 -0.7995 -0.0619
 3661SOL    HW211562   3.684   9.928   4.732 -2.0581  0.2376  0.4291
 3662SOL     OW11563   6.224   9.926   6.726  0.6194  0.8071  0.1689
 3662SOL    HW111564   6.153   9.978   6.763  0.3204  0.4882  0.0610
 3662SOL    HW211565   6.185   9.887   6.647  1.6681  2.6743 -1.3590
 3663SOL     OW11566   1.450   6.327   1.305  0.3758  0.7887 -0.1488
 3663SOL    HW111567   1.542   6.335   1.280  0.2470 -0.5216 -1.1472
 3663SOL    HW211568   1.453   6.298   1.397  1.0370 -0.8646 -0.6499
 3664SOL     OW11569   9.047   5.226   2.089 -0.3325 -0.4922 -0.5343
 3664SOL    HW111570   9.072   5.139   2.117  0.4607 -0.1125 -0.0507
 3664SOL    HW211571   8.973   5.212   2.029 -0.4941 -1.4545 -0.1154
 3665SOL     OW11572   8.830   6.315   2.859 -0.7443 -0.0715 -0.0657
 3665SOL    HW111573   8.845   6.408   2.843  1.5156 -0.1337  1.2501
 3665SOL    HW211574   8.858   6.272   2.778  2.4069  0.1755  0.7567
 3666SOL     OW11575   3.293   6.569   6.087 -0.3846 -0.1049 -0.2932
 3666SOL    HW111576   3.370   6.533   6.131 -0.6944  0.2100  0.5244
 3666SOL    HW211577   3.228   6.499   6.092 -0.9703  0.5250  1.2515
 3667SOL     OW11578   1.879   8.755   4.769 -0.2019  0.2861  0.2007
 3667SOL    HW111579   1.813   8.795   4.713 -1.0683 -2.6687 -1.0821
 3667SOL    HW211580   1.830   8.723   4.845  0.2614  0.4840  0.5914
 3668SOL     OW11581   5.773   3.257   1.521  0.1043  0.0833 -0.4160
 3668SOL    HW111582   5.731   3.175   1.494  0.4651 -0.3016  0.1909
 3668SOL    HW211583   5.752   3.318   1.450 -1.2578 -0.1673 -0.2538
 3669SOL     OW11584   4.637   4.358   6.975  0.2179 -0.7400  0.1895
 3669SOL    HW111585   4.728   4.371   7.001 -0.3343  0.1038  1.8536
 3669SOL    HW211586   4.587   4.409   7.038 -1.4340 -1.4752 -0.4765
 3670SOL     OW11587   6.792   6.656   6.241  0.4548  0.3688 -0.0049
 3670SOL    HW111588   6.881   6.671   6.270  0.6684 -1.4591  0.4083
 3670SOL    HW211589   6.738   6.680   6.316  0.7903 -0.9401  0.6921
 3671SOL     OW11590   6.189   4.085   7.527 -0.1283 -0.0162  0.3623
 3671SOL    HW111591   6.187   4.006   7.581 -0.8977  0.3600  0.9035
 3671SOL    HW211592   6.255   4.141   7.568  0.1606 -0.2251  0.1877
 3672SOL     OW11593   7.383   1.335   6.353 -0.0060  0.3527  0.1548
 3672SOL    HW111594   7.329   1.361   6.278  0.2486 -0.1534 -0.2064
 3672SOL    HW211595   7.350   1.249   6.377  0.2252  0.3132  0.3309
 3673SOL     OW11596   5.628   6.693   4.422 -0.0130 -0.3443 -0.5807
 3673SOL    HW111597   5.618   6.689   4.327  1.3486 -0.6322 -0.7341
 3673SOL    HW211598   5.620   6.602   4.450 -0.1635 -0.2880 -0.4406
 3674SOL     OW11599   6.263   6.322   1.306  0.0410  0.1851 -0.6905
 3674SOL    HW111600   6.293   6.398   1.255 -0.2127  1.6991  1.3088
 3674SOL    HW211601   6.206   6.359   1.373 -0.5542 -1.8718  0.0054
 3675SOL     OW11602   4.316   9.265   2.090 -0.1946  0.3625 -0.4262
 3675SOL    HW111603   4.258   9.341   2.101 -1.0537 -0.3822  0.3491
 3675SOL    HW211604   4.349   9.247   2.177  1.7687  1.1700 -0.9563
 3676SOL     OW11605   1.405   3.978   7.534  0.0717  0.5950  0.4858
 3676SOL    HW111606   1.417   3.935   7.619 -2.5042 -2.8681 -0.6625
 3676SOL    HW211607   1.323   4.027   7.544  0.3740  1.1334  0.3256
 3677SOL     OW11608   7.938   6.152   0.910  0.0169 -0.3802  0.6137
 3677SOL    HW111609   7.946   6.062   0.879  0.2139 -0.1941  0.1093
 3677SOL    HW211610   7.990   6.203   0.848 -1.6539  0.3353 -0.2986
 3678SOL     OW11611   9.011   4.540   0.778 -0.2063 -0.0711  0.4215
 3678SOL    HW111612   9.078   4.529   0.845 -0.8040  1.4318  1.3216
 3678SOL    HW211613   9.004   4.454   0.736 -0.2464 -1.2672  2.6995
 3679SOL     OW11614   3.649   4.103   5.678  0.4080  1.0037 -0.0049
 3679SOL    HW111615   3.656   4.041   5.606  2.2848  1.4334 -0.2327
 3679SOL    HW211616   3.648   4.189   5.635  1.0665  1.2448  0.4461
 3680SOL     OW11617   4.127   5.657   4.963  0.1311 -0.4956 -0.1194
 3680SOL    HW111618   4.068   5.729   4.984 -1.3631 -2.0357  1.3191
 3680SOL    HW211619   4.174   5.686   4.885  0.0981  2.2860  0.7887
 3681SOL     OW11620   6.834   3.695   0.312 -0.4723  0.2412 -0.4911
 3681SOL    HW111621   6.790   3.612   0.292 -0.0227  0.4916 -2.7708
 3681SOL    HW211622   6.764   3.754   0.337 -0.8156 -0.7417  1.0623
 3682SOL     OW11623   1.960   1.608   0.505 -0.0150  0.5905 -0.4743
 3682SOL    HW111624   2.036   1.557   0.531 -0.4814  0.2330  0.2150
 3682SOL    HW211625   1.947   1.586   0.412 -1.5084 -2.3200  0.2841
 3683SOL     OW11626   6.805   7.566   2.794  0.0544  0.0550 -0.0680
 3683SOL    HW111627   6.712   7.552   2.773 -0.3377 -1.1434  2.0960
 3683SOL    HW211628   6.847   7.483   2.775  0.2314 -0.1162  0.9866
 3684SOL     OW11629   8.695   3.942   0.140 -0.0662  0.7191 -0.2544
 3684SOL    HW111630   8.672   4.031   0.168  1.2004  0.7769  0.7002
 3684SOL    HW211631   8.643   3.928   0.060 -1.2330  1.8320  0.2673
 3685SOL     OW11632   9.177   8.837   4.527  0.1174  0.2880 -0.5454
 3685SOL    HW111633   9.120   8.784   4.472 -1.4583  0.8828  0.4349
 3685SOL    HW211634   9.169   8.798   4.614 -1.3258  2.2118  0.2724
 3686SOL     OW11635   3.146   5.967   3.062  0.5043 -0.0645 -0.2343
 3686SOL    HW111636   3.097   6.046   3.086  1.8415  0.9879 -0.8182
 3686SOL    HW211637   3.238   5.992   3.073  0.9429 -1.7994  0.2833
 3687SOL     OW11638   3.703   1.231   3.601 -0.4713 -0.2728 -0.1707
 3687SOL    HW111639   3.738   1.151   3.641 -3.1546 -1.9323 -0.9462
 3687SOL    HW211640   3.670   1.203   3.516  3.3742  2.7918 -3.0318
 3688SOL     OW11641   7.975   7.083   6.688  0.4244  0.5706  0.3918
 3688SOL    HW111642   8.028   7.163   6.684 -0.5635  1.3321  1.7701
 3688SOL    HW211643   7.918   7.096   6.764  0.6307 -1.7013  0.9826
 3689SOL     OW11644   0.624   2.460   4.287  0.3199 -0.5082 -0.4445
 3689SOL    HW111645   0.565   2.514   4.340 -1.8427 -3.2504  0.2340
 3689SOL    HW211646   0.585   2.460   4.200  1.5551  0.7054 -1.0275
 3690SOL     OW11647   1.137   7.069   8.522 -0.6527  0.5973 -0.0724
 3690SOL    HW111648   1.199   7.089   8.452  1.4049  0.2980  1.5324
 3690SOL    HW211649   1.119   6.975   8.512  0.1159  0.4208  0.1345
 3691SOL     OW11650   3.971   6.122   5.894 -0.8662 -0.3233 -0.1306
 3691SOL    HW111651   3.923   6.047   5.857 -0.3079 -0.3097 -0.8973
 3691SOL    HW211652   4.060   6.113   5.861 -0.5293  0.1078  0.6245
 3692SOL     OW11653   5.203   8.779   4.218  0.4439  0.0396  0.2480
 3692SOL    HW111654   5.234   8.779   4.127 -0.9125 -0.1286 -0.2493
 3692SOL    HW211655   5.195   8.871   4.241  1.4211  0.0815  0.4268
 3693SOL     OW11656   9.684   7.627   9.871  0.4491  0.2538  0.3250
 3693SOL    HW111657   9.711   7.708   9.826  0.3631  0.6027  0.8857
 3693SOL    HW211658   9.629   7.581   9.808 -1.6061  1.8352  0.8584
 3694SOL     OW11659   0.650   9.274   1.797 -0.6587 -0.0723  0.2258
 3694SOL    HW111660   0.562   9.249   1.767 -0.6961  0.3730 -0.0443
 3694SOL    HW211661   0.700   9.288   1.717 -0.0369 -1.3364  0.3717
 3695SOL     OW11662   4.041   7.843   1.127  0.1838  0.1189 -0.0389
 3695SOL    HW111663   3.996   7.853   1.211  0.6308 -1.7242  0.4630
 3695SOL    HW211664   4.095   7.765   1.138  3.4349  2.1153 -0.6513
 3696SOL     OW11665   3.422   6.087   5.140 -0.1370 -0.4590 -0.0128
 3696SOL    HW111666   3.450   6.013   5.193 -1.1622 -0.5996  0.3523
 3696SOL    HW211667   3.405   6.050   5.053  0.9628 -0.3374 -0.2888
 3697SOL     OW11668   2.726   4.278   0.440  0.0845 -0.0796  0.0389
 3697SOL    HW111669   2.657   4.266   0.375  1.4374  1.0023 -1.6862
 3697SOL    HW211670   2.691   4.239   0.520 -2.1497 -0.3467 -0.9984
 3698SOL     OW11671   7.855   5.321   6.930 -0.5815 -0.1298 -0.7509
 3698SOL    HW111672   7.851   5.251   6.865 -0.1143 -1.1448  0.2823
 3698SOL    HW211673   7.824   5.280   7.011 -0.7937  1.0058 -0.2472
 3699SOL     OW11674   1.642   5.299   5.511 -0.3489 -0.2000 -0.0020
 3699SOL    HW111675   1.575   5.368   5.506 -2.3519 -2.1087 -0.9960
 3699SOL    HW211676   1.661   5.278   5.420  1.2470 -0.1135  0.2755
 3700SOL     OW11677   4.292   8.498   9.809  0.3028 -0.3805 -0.2422
 3700SOL    HW111678   4.207   8.541   9.819  0.5600 -0.0611  0.6882
 3700SOL    HW211679   4.276   8.428   9.747 -0.5487 -0.0687 -0.3915
 3701SOL     OW11680   1.479   5.376   0.198 -0.2101 -0.5724  0.0468
 3701SOL    HW111681   1.553   5.322   0.224  0.7258  1.0770  1.0109
 3701SOL    HW211682   1.404   5.338   0.244  0.0810 -2.0339 -0.6349
 3702SOL     OW11683   2.984   5.569   3.238 -0.2333  0.0495 -0.1255
 3702SOL    HW111684   2.958   5.613   3.319  1.0089  0.0554  0.2960
 3702SOL    HW211685   3.056   5.622   3.203  0.9317 -1.3083  0.1108
 3703SOL     OW11686   7.865   7.713   1.332 -0.1172 -0.0218  0.2075
 3703SOL    HW111687   7.874   7.792   1.385  0.2594 -0.3568  0.6563
 3703SOL    HW211688   7.919   7.729   1.255  1.0289 -0.3567  0.9195
 3704SOL     OW11689   1.676   1.228   4.020 -0.2819  0.5760 -0.0535
 3704SOL    HW111690   1.587   1.247   3.989 -0.2501  1.5118  0.4027
 3704SOL    HW211691   1.716   1.314   4.032  1.0093  0.1585 -1.1420
 3705SOL     OW11692   9.120   4.591   2.475 -0.2359  0.0813 -0.0226
 3705SOL    HW111693   9.054   4.533   2.438 -0.3227 -0.9085  1.5728
 3705SOL    HW211694   9.113   4.578   2.570  2.1480  0.0263  0.2202
 3706SOL     OW11695   0.144   3.815   3.845 -0.0877  0.3381 -0.3396
 3706SOL    HW111696   0.088   3.829   3.768 -0.3460 -0.5572 -0.3185
 3706SOL    HW211697   0.195   3.896   3.852  0.3093  0.2401 -1.7510
 3707SOL     OW11698   0.684   6.269   2.605 -0.5272  0.0898  0.3176
 3707SOL    HW111699   0.657   6.263   2.697 -1.7931 -2.5271 -0.1389
 3707SOL    HW211700   0.613   6.318   2.563 -0.3706  0.5331  0.5590
 3708SOL     OW11701   8.874   4.192   2.064  0.1869  0.0085  0.0438
 3708SOL    HW111702   8.801   4.190   2.126 -1.0354  1.4558 -1.2432
 3708SOL    HW211703   8.952   4.183   2.117 -0.8747 -0.2784  1.6172
 3709SOL     OW11704   6.184   3.148   2.975 -0.1746  0.0850 -0.6173
 3709SOL    HW111705   6.211   3.059   2.951  1.0726  0.1406  0.4860
 3709SOL    HW211706   6.262   3.187   3.013 -0.8310  1.5251 -0.6975
 3710SOL     OW11707   5.662   0.342   0.989 -0.4112 -0.0932  0.5415
 3710SOL    HW111708   5.700   0.295   0.915  2.4428  0.1193  1.7666
 3710SOL    HW211709   5.598   0.401   0.950  0.1128 -0.8763 -1.6056
 3711SOL     OW11710   0.680   6.616   0.210  0.8427  0.2670  0.0371
 3711SOL    HW111711   0.669   6.685   0.145  0.3967 -0.2768 -0.4870
 3711SOL    HW211712   0.617   6.548   0.183  1.0348 -0.1951  0.7255
 3712SOL     OW11713   1.843   1.445   4.848 -0.3412  0.2007  0.0864
 3712SOL    HW111714   1.779   1.374   4.859 -0.6630  0.6470  1.1875
 3712SOL    HW211715   1.810   1.495   4.773 -1.2977  0.4187  0.6296
 3713SOL     OW11716   9.711   7.246   6.499  0.2803 -0.1488 -0.4904
 3713SOL    HW111717   9.777   7.314   6.513 -0.4159  0.1161  2.0931
 3713SOL    HW211718   9.628   7.293   6.503 -0.1478 -0.7734 -1.6031
 3714SOL     OW11719   2.742   1.132   1.158 -0.6208  0.6118 -0.3554
 3714SOL    HW111720   2.756   1.187   1.235  0.8776  0.9328 -0.8360
 3714SOL    HW211721   2.698   1.054   1.192 -0.2091  0.8578  0.7756
 3715SOL     OW11722   8.658   6.554   9.707  0.5635 -0.4405  0.0596
 3715SOL    HW111723   8.644   6.640   9.667 -0.9925 -2.0974 -3.3568
 3715SOL    HW211724   8.753   6.542   9.705  0.6532  0.2029 -1.9342
 3716SOL     OW11725   6.887   8.743   2.333 -0.0190  0.0220 -0.1584
 3716SOL    HW111726   6.798   8.761   2.362  0.5648  2.1253  0.5247
 3716SOL    HW211727   6.882   8.736   2.238 -0.8490  0.5757 -0.1597
 3717SOL     OW11728   0.845   9.297   8.656  0.2163 -0.4359 -0.5146
 3717SOL    HW111729   0.849   9.368   8.720  2.1969 -2.2175  1.5114
 3717SOL    HW211730   0.802   9.225   8.702  1.6141 -1.7487 -1.1590
 3718SOL     OW11731   1.808   0.897   8.064 -0.2634 -0.4830 -0.3531
 3718SOL    HW111732   1.773   0.809   8.048 -0.4385 -0.6905  1.0505
 3718SOL    HW211733   1.760   0.929   8.140  0.4504  0.4597 -0.2739
 3719SOL     OW11734   0.171   7.065   5.647 -0.3705 -0.0784 -0.4653
 3719SOL    HW111735   0.085   7.052   5.608 -1.0958  0.0810  1.0161
 3719SOL    HW211736   0.188   7.159   5.638 -1.1509  0.2065  0.7562
 3720SOL     OW11737   8.077   8.189   9.246 -0.1225 -0.2974 -0.7551
 3720SOL    HW111738   8.073   8.234   9.162  4.1435  2.3981  0.2060
 3720SOL    HW211739   8.140   8.119   9.233  1.0330  0.5174  0.2795
 3721SOL     OW11740   2.866   6.171   8.153 -0.3315  0.1926  0.1623
 3721SOL    HW111741   2.826   6.090   8.122  0.4658  0.0614 -0.5578
 3721SOL    HW211742   2.799   6.212   8.208 -1.6325  0.2127 -1.3827
 3722SOL     OW11743   0.855   4.636   9.039 -0.5105 -0.0723 -0.2554
 3722SOL    HW111744   0.892   4.554   9.073 -3.2400 -0.8384  1.2031
 3722SOL    HW211745   0.873   4.701   9.107 -1.2673 -0.2908  0.1579
 3723SOL     OW11746   8.389   8.786   4.796  0.3310 -0.6726  0.2006
 3723SOL    HW111747   8.310   8.819   4.755  0.7092  1.6191  1.1930
 3723SOL    HW211748   8.460   8.815   4.739  0.5527 -2.2494 -0.3929
 3724SOL     OW11749   7.312   7.455   9.539  0.1108 -0.2833  0.0281
 3724SOL    HW111750   7.336   7.527   9.598 -0.7913  0.0929 -0.0484
 3724SOL    HW211751   7.264   7.393   9.595  2.6516 -1.8706  0.5787
 3725SOL     OW11752   3.514   5.582   1.743 -0.5736  0.3003 -0.4060
 3725SOL    HW111753   3.534   5.670   1.712 -1.0656 -0.0469 -1.8106
 3725SOL    HW211754   3.544   5.581   1.834  0.5087  1.5386 -0.7115
 3726SOL     OW11755   7.077   3.972   4.384  0.1179 -0.3384  0.7044
 3726SOL    HW111756   7.091   3.994   4.292 -0.5153  0.5529  0.8116
 3726SOL    HW211757   7.141   3.903   4.403  2.2716  1.4831  0.4008
 3727SOL     OW11758   5.151   4.450   8.717 -0.0792  0.4278 -0.4484
 3727SOL    HW111759   5.117   4.540   8.719 -0.8777  0.1659 -1.5867
 3727SOL    HW211760   5.236   4.456   8.761  0.0904  1.8368 -0.9111
 3728SOL     OW11761   5.165   8.917   1.721 -0.2594 -0.4805  0.3411
 3728SOL    HW111762   5.235   8.976   1.748 -0.7875  1.5152 -2.1937
 3728SOL    HW211763   5.099   8.923   1.791  0.5030  0.5271  0.9978
 3729SOL     OW11764   3.045   7.099   3.386  0.1103 -0.7273  1.0314
 3729SOL    HW111765   3.133   7.090   3.348  0.4688  0.8220  1.4501
 3729SOL    HW211766   3.017   7.008   3.401  1.6020 -1.2554  0.8385
 3730SOL     OW11767   3.120   0.107   2.159 -0.5609  0.7610 -0.0272
 3730SOL    HW111768   3.096   0.018   2.132  0.0067  0.9185 -1.1082
 3730SOL    HW211769   3.215   0.106   2.162 -0.5087  1.5621 -0.9152
 3731SOL     OW11770   0.508   1.139   6.776  0.1475  0.1038 -0.2776
 3731SOL    HW111771   0.600   1.166   6.780 -0.6090  2.7119  0.8197
 3731SOL    HW211772   0.484   1.151   6.684  0.8737 -0.5546 -0.5625
 3732SOL     OW11773   7.224   7.666   1.108 -0.2404 -0.5029  0.1453
 3732SOL    HW111774   7.281   7.692   1.035  0.7874 -0.3862  0.9705
 3732SOL    HW211775   7.144   7.636   1.066  0.1988 -0.0979 -1.0224
 3733SOL     OW11776   4.927   7.959   2.292  0.2843  0.2575 -0.3592
 3733SOL    HW111777   4.916   7.865   2.277 -0.6426  0.3111 -0.0401
 3733SOL    HW211778   4.844   7.998   2.267  0.3888  0.9038  0.2564
 3734SOL     OW11779  -0.022   5.214   3.277  0.1947 -0.6576 -0.5458
 3734SOL    HW111780   0.035   5.290   3.266 -1.8394  1.3877  1.8153
 3734SOL    HW211781   0.034   5.139   3.257  2.6978  1.3350 -1.6512
 3735SOL     OW11782   2.875   4.726   5.924 -0.3669  0.2266 -0.1590
 3735SOL    HW111783   2.862   4.674   5.845  3.1178 -0.2434 -0.5784
 3735SOL    HW211784   2.843   4.671   5.995 -0.0406 -0.9953 -0.9343
 3736SOL     OW11785   0.506   0.958   7.384 -0.4506  0.1518  0.2278
 3736SOL    HW111786   0.562   0.977   7.459 -1.5394  0.4058  0.9902
 3736SOL    HW211787   0.566   0.953   7.310  1.3933 -4.4307  1.6427
 3737SOL     OW11788   2.104   4.994   9.016 -0.2198  0.2185 -0.1510
 3737SOL    HW111789   2.139   5.035   8.937  2.6962 -0.6269  0.5691
 3737SOL    HW211790   2.106   4.900   8.997 -0.4264  0.0623  0.5676
 3738SOL     OW11791   2.619   0.178   7.670  0.1695  0.0612  0.2525
 3738SOL    HW111792   2.599   0.178   7.764 -0.2134  0.4083  0.1749
 3738SOL    HW211793   2.582   0.096   7.637  1.4632 -0.7082  0.6340
 3739SOL     OW11794   1.662   1.126   1.635  0.1360 -0.0222  0.0755
 3739SOL    HW111795   1.640   1.204   1.584 -0.0037 -1.7283 -2.6742
 3739SOL    HW211796   1.757   1.115   1.624 -0.2009 -1.6317 -1.8678
 3740SOL     OW11797   6.273   0.302   7.217  0.3368 -0.2875  0.1198
 3740SOL    HW111798   6.238   0.287   7.305  0.1806  1.0986  0.3016
 3740SOL    HW211799   6.367   0.287   7.226  0.5367  1.2252  0.8732
 3741SOL     OW11800   6.016   9.553   5.692  0.3076 -0.3589  0.1050
 3741SOL    HW111801   6.054   9.532   5.777 -2.1357 -1.6164  0.9635
 3741SOL    HW211802   6.055   9.638   5.669  0.6096  0.3005  2.7324
 3742SOL     OW11803   3.123   6.230   8.391 -0.2038 -0.0289 -0.1442
 3742SOL    HW111804   3.121   6.147   8.438 -0.2172  0.2851  0.4115
 3742SOL    HW211805   3.117   6.205   8.299 -5.0721 -0.5422  0.0511
 3743SOL     OW11806   1.702   9.331   3.633  0.4068 -0.3331 -0.4963
 3743SOL    HW111807   1.681   9.396   3.699  0.2617 -0.0174 -0.8547
 3743SOL    HW211808   1.796   9.314   3.645  0.1377 -1.1730  0.5804
 3744SOL     OW11809   2.361   6.980   4.416 -0.1536  0.1867  0.1874
 3744SOL    HW111810   2.426   6.978   4.486 -0.5958 -0.1134  0.6057
 3744SOL    HW211811   2.409   7.005   4.338  0.2072  1.3231  0.7586
 3745SOL     OW11812   1.451   3.380   2.482  0.0378  0.4001 -0.3628
 3745SOL    HW111813   1.493   3.311   2.430  0.4926  0.3194  0.1030
 3745SOL    HW211814   1.427   3.337   2.564  0.5692  0.8546  0.0408
 3746SOL     OW11815   7.176   9.797   5.027 -0.3885  0.2123  0.3833
 3746SOL    HW111816   7.110   9.730   5.046 -0.8554  0.8115  0.9135
 3746SOL    HW211817   7.171   9.810   4.932 -1.0970  0.3130  0.4299
 3747SOL     OW11818   9.272   2.082   7.077  0.1001  0.2186  0.2985
 3747SOL    HW111819   9.357   2.124   7.087  0.0004  1.0593 -1.7733
 3747SOL    HW211820   9.273   2.045   6.989 -1.4229 -0.3593  0.4835
 3748SOL     OW11821   0.802   9.661   3.321  0.3619  0.3490 -0.4167
 3748SOL    HW111822   0.789   9.599   3.249  1.1517  0.1775 -0.4236
 3748SOL    HW211823   0.878   9.626   3.369  0.9514  1.4132 -0.5446
 3749SOL     OW11824   2.816   9.785   8.525  0.2972  0.0971 -0.3070
 3749SOL    HW111825   2.816   9.711   8.586  1.5826 -0.4516 -0.9298
 3749SOL    HW211826   2.905   9.786   8.489  0.5552  2.4165  0.2418
 3750SOL     OW11827   6.946   9.811   3.348  0.5704 -0.0276  0.0653
 3750SOL    HW111828   6.897   9.783   3.425 -0.7385  1.5274 -0.1433
 3750SOL    HW211829   6.958   9.731   3.297  1.3207 -1.0642  1.7617
 3751SOL     OW11830   1.718   5.207   0.299 -0.1224 -0.2505 -0.6951
 3751SOL    HW111831   1.725   5.212   0.203 -0.4132 -2.3823 -0.8756
 3751SOL    HW211832   1.780   5.273   0.330 -0.9938  1.4297 -2.3261
 3752SOL     OW11833   8.549   8.268   6.324  0.0703 -0.1587  0.7749
 3752SOL    HW111834   8.493   8.345   6.313 -0.4231 -0.5724  0.2675
 3752SOL    HW211835   8.511   8.221   6.398 -1.1084 -1.1266 -0.3900
 3753SOL     OW11836   0.767   0.391   1.573 -0.1037  0.1192  0.4672
 3753SOL    HW111837   0.742   0.473   1.616 -1.8622  0.1131 -0.4381
 3753SOL    HW211838   0.730   0.322   1.629 -1.8418  0.0927 -0.6566
 3754SOL     OW11839   6.923   9.553   7.383  0.6013  0.0880  0.3224
 3754SOL    HW111840   6.968   9.472   7.357 -0.2986 -0.0841 -0.7842
 3754SOL    HW211841   6.834   9.524   7.405  0.3551  0.7404  0.1921
 3755SOL     OW11842   6.210   5.805   8.064 -0.3160  0.0676 -0.1558
 3755SOL    HW111843   6.131   5.752   8.076 -0.0290 -0.2695  0.2669
 3755SOL    HW211844   6.179   5.883   8.017 -0.9474  0.0573  0.2249
 3756SOL     OW11845   7.728   5.417   4.624 -0.0533  0.4087 -0.5944
 3756SOL    HW111846   7.714   5.337   4.572 -1.4462  0.7739 -0.7995
 3756SOL    HW211847   7.649   5.426   4.677  1.1977  0.2437  1.3857
 3757SOL     OW11848   9.204   6.033   6.481  0.0600 -0.8068 -0.2955
 3757SOL    HW111849   9.166   6.111   6.441  0.0455 -1.0463 -0.7546
 3757SOL    HW211850   9.133   5.996   6.533  0.1850 -0.2926  0.2542
 3758SOL     OW11851   1.123   6.490   6.879  0.6615  0.2736  0.3495
 3758SOL    HW111852   1.131   6.398   6.906  0.0534  0.3614  0.8612
 3758SOL    HW211853   1.164   6.493   6.793  0.7467 -0.4648  0.3518
 3759SOL     OW11854   1.938   9.665   5.557 -0.4430  0.0213  1.3690
 3759SOL    HW111855   2.006   9.614   5.600  0.4618  0.6401  0.7284
 3759SOL    HW211856   1.948   9.753   5.594 -0.6427  0.1996  1.0023
 3760SOL     OW11857   6.156   9.102   8.881  0.1427 -0.5130 -0.3079
 3760SOL    HW111858   6.077   9.050   8.871 -0.1388 -0.4610  1.3849
 3760SOL    HW211859   6.176   9.098   8.974  2.4230 -0.9240 -0.7534
 3761SOL     OW11860   8.617   0.949   8.152 -1.1235 -0.1495  0.2450
 3761SOL    HW111861   8.536   0.917   8.112 -0.7325  1.3135 -1.8655
 3761SOL    HW211862   8.680   0.951   8.081  0.6773 -0.8173  1.7512
 3762SOL     OW11863   2.258   3.351   0.541  0.2092 -0.2732  0.3450
 3762SOL    HW111864   2.167   3.333   0.566 -1.1033  0.4835 -3.2740
 3762SOL    HW211865   2.304   3.361   0.624 -2.7429 -1.7859  2.3495
 3763SOL     OW11866   8.100   9.731   1.900  0.0357  0.0643 -0.7968
 3763SOL    HW111867   8.184   9.686   1.896  0.4093  0.7546 -0.7535
 3763SOL    HW211868   8.118   9.820   1.872 -0.5568  0.3957 -0.1641
 3764SOL     OW11869   0.009   1.598   2.892 -0.2469  0.3527  0.2366
 3764SOL    HW111870   0.100   1.584   2.866 -0.6177  1.4754 -1.9295
 3764SOL    HW211871   0.015   1.660   2.964  0.7161  0.3025  0.2231
 3765SOL     OW11872   4.695   4.705   0.166  0.4803  0.5431 -0.4873
 3765SOL    HW111873   4.665   4.720   0.076 -0.8638  0.7874 -0.0262
 3765SOL    HW211874   4.622   4.735   0.220  1.3598  0.6029  0.6969
 3766SOL     OW11875   8.648   6.210   0.832 -0.3391  0.4685 -0.0260
 3766SOL    HW111876   8.743   6.209   0.824 -0.0592 -1.2075  2.3856
 3766SOL    HW211877   8.617   6.150   0.764  0.7167 -2.1950  1.6883
 3767SOL     OW11878   0.166   4.735   8.381  0.3636  0.3696 -0.1423
 3767SOL    HW111879   0.215   4.754   8.300  0.6456  0.0991 -0.0370
 3767SOL    HW211880   0.198   4.801   8.443  1.5495 -0.5833  0.3075
 3768SOL     OW11881   9.875   2.487   8.617  0.1001 -0.1081  0.0018
 3768SOL    HW111882   9.804   2.544   8.644  0.6167  0.7904 -0.4907
 3768SOL    HW211883   9.852   2.460   8.529  1.5427  2.2559 -1.2067
 3769SOL     OW11884   7.376   5.212   8.934 -0.0329  0.3736 -1.0251
 3769SOL    HW111885   7.315   5.147   8.899 -3.0270  1.1155  2.2519
 3769SOL    HW211886   7.326   5.294   8.934  1.0265  1.1089  1.4228
 3770SOL     OW11887   6.971   1.754   4.928  0.5840 -0.1755 -0.5463
 3770SOL    HW111888   6.934   1.805   5.001 -1.5432 -0.6053 -1.2570
 3770SOL    HW211889   7.053   1.720   4.963  0.4068  0.9405  1.1087
 3771SOL     OW11890   2.663   4.358   5.584 -0.1331  0.1444  0.6466
 3771SOL    HW111891   2.675   4.424   5.653 -1.8538 -0.2128  1.3250
 3771SOL    HW211892   2.588   4.306   5.613 -0.0767 -0.8437 -0.8767
 3772SOL     OW11893   6.419   4.795   6.264 -0.4681  0.6748 -0.0079
 3772SOL    HW111894   6.440   4.734   6.194  0.6499 -0.9059  1.6390
 3772SOL    HW211895   6.326   4.814   6.252 -0.1211  1.1233 -2.3885
 3773SOL     OW11896   8.645   2.639   8.904 -0.3404  0.3119  0.6752
 3773SOL    HW111897   8.598   2.559   8.879  0.6979 -0.5806  1.4819
 3773SOL    HW211898   8.681   2.620   8.991 -0.4398  1.8314  1.0750
 3774SOL     OW11899   9.980   3.250   4.501  0.2113  0.4539 -0.1325
 3774SOL    HW111900   9.907   3.309   4.480  0.9781  1.4602 -0.0806
 3774SOL    HW211901   9.984   3.189   4.428 -1.8593 -0.8258  0.7540
 3775SOL     OW11902   8.572   0.257   1.002  0.3529  0.3146  0.0949
 3775SOL    HW111903   8.542   0.178   0.956  2.4943 -0.8684  0.6032
 3775SOL    HW211904   8.555   0.328   0.940 -1.8009 -0.4740 -0.3066
 3776SOL     OW11905   8.455   8.054   3.715  0.0570  0.9218  0.0769
 3776SOL    HW111906   8.473   7.990   3.783 -0.9280 -1.4076 -1.7267
 3776SOL    HW211907   8.428   8.133   3.763 -1.4358 -0.8565  2.3749
 3777SOL     OW11908   4.134   4.867   1.483 -0.2343 -0.3886  0.3599
 3777SOL    HW111909   4.039   4.873   1.470 -0.0015  0.1231 -1.3401
 3777SOL    HW211910   4.159   4.785   1.442  0.1046 -0.3717  0.5301
 3778SOL     OW11911   0.039   4.849   9.633 -0.5145  0.4306  0.5260
 3778SOL    HW111912  -0.055   4.867   9.626 -0.8449 -1.0664  0.7811
 3778SOL    HW211913   0.044   4.755   9.645  0.9650  0.6696  2.0225
 3779SOL     OW11914   8.594   3.571   9.650  0.4958  0.3596 -0.5217
 3779SOL    HW111915   8.558   3.586   9.738  1.6037  3.4536 -0.4886
 3779SOL    HW211916   8.518   3.575   9.592  0.0150  0.4926  0.1084
 3780SOL     OW11917   8.040   0.121   9.452 -0.1110  0.5454 -0.1556
 3780SOL    HW111918   8.100   0.078   9.513 -0.9049 -0.1038  0.1746
 3780SOL    HW211919   7.961   0.138   9.503 -0.0728  1.7757 -0.4688
 3781SOL     OW11920   5.650   8.889   0.239 -0.2401 -0.7640 -0.0802
 3781SOL    HW111921   5.657   8.804   0.282  1.3839 -1.2776 -1.2326
 3781SOL    HW211922   5.640   8.951   0.310  3.6885 -1.4148  1.3075
 3782SOL     OW11923   3.411   9.035   5.033 -0.1721 -0.5486 -0.7329
 3782SOL    HW111924   3.363   9.116   5.015 -0.8252 -0.4943  1.0279
 3782SOL    HW211925   3.461   9.055   5.112  0.6852 -1.4674 -1.0299
 3783SOL     OW11926   8.435   6.657   5.901 -0.2739  0.0247 -0.5861
 3783SOL    HW111927   8.528   6.640   5.914 -0.5033 -0.6532  0.2332
 3783SOL    HW211928   8.430   6.695   5.813  0.9121  1.2967 -0.1430
 3784SOL     OW11929   6.807   5.485   5.954 -0.2207 -0.1772  0.1700
 3784SOL    HW111930   6.720   5.492   5.913 -0.2396  0.0686  0.2520
 3784SOL    HW211931   6.868   5.510   5.886 -0.1979 -0.5946  0.0361
 3785SOL     OW11932   0.545   6.892   3.395 -0.4803 -0.0580 -0.1058
 3785SOL    HW111933   0.568   6.956   3.327 -0.0716 -0.5158 -0.3964
 3785SOL    HW211934   0.457   6.863   3.371 -0.0392 -0.7913 -0.8848
 3786SOL     OW11935   9.277   1.580   4.507  0.2835  0.2819 -0.2879
 3786SOL    HW111936   9.371   1.591   4.493  0.5660  0.1165  1.3267
 3786SOL    HW211937   9.270   1.509   4.571 -1.0050 -0.5747 -1.3340
 3787SOL     OW11938   1.108   6.230   9.472 -0.6137 -0.0277  0.0001
 3787SOL    HW111939   1.160   6.280   9.534 -1.4935  0.2425  0.5508
 3787SOL    HW211940   1.139   6.257   9.386 -1.1673  1.6002  0.2842
 3788SOL     OW11941   2.949   4.260   5.471 -0.2856  0.4192  0.0193
 3788SOL    HW111942   2.968   4.302   5.387 -0.7349  0.8763  0.1451
 3788SOL    HW211943   2.854   4.266   5.481 -0.1427  1.2446  1.0111
 3789SOL     OW11944   2.025   6.521   6.746 -0.0057  0.0149 -0.5497
 3789SOL    HW111945   1.992   6.447   6.799 -0.7526  0.8599  0.2026
 3789SOL    HW211946   1.955   6.538   6.683  0.3512 -0.1889 -1.0024
 3790SOL     OW11947   9.448   0.666   1.730  0.6780 -0.2761 -0.0058
 3790SOL    HW111948   9.375   0.605   1.727 -0.2875  0.8330  0.3614
 3790SOL    HW211949   9.437   0.720   1.652 -0.5382  1.6875  1.4303
 3791SOL     OW11950   3.901   6.691   3.878 -0.2427  0.0887 -0.5008
 3791SOL    HW111951   3.987   6.669   3.911  0.1073  2.6985  0.5326
 3791SOL    HW211952   3.843   6.684   3.954 -0.3328  1.3532 -0.4319
 3792SOL     OW11953   7.953   4.432   1.638 -0.3371 -0.0278  0.5580
 3792SOL    HW111954   7.954   4.337   1.648 -0.8142  0.0143  1.0692
 3792SOL    HW211955   7.920   4.464   1.722  2.5417  0.7481  1.4834
 3793SOL     OW11956   0.042   0.217   6.384 -0.1814  0.1208  1.0291
 3793SOL    HW111957   0.136   0.205   6.395 -0.3255 -1.0615  1.0680
 3793SOL    HW211958   0.015   0.267   6.461 -0.2807 -3.2942  3.4153
 3794SOL     OW11959   3.170   1.827   1.151 -0.1185  0.1617  0.6907
 3794SOL    HW111960   3.124   1.759   1.102  1.7626  0.7222 -2.0702
 3794SOL    HW211961   3.123   1.908   1.131  1.3409  0.5813 -1.3364
 3795SOL     OW11962   8.514   8.008   0.201  0.1352 -0.0496 -0.1410
 3795SOL    HW111963   8.597   7.961   0.197  0.3560  0.1714  1.3906
 3795SOL    HW211964   8.458   7.962   0.139  0.0286 -2.9913  1.9167
 3796SOL     OW11965   6.406   9.894   8.162  0.0808  0.1359 -0.0677
 3796SOL    HW111966   6.423   9.801   8.175  0.8226  0.5212  2.3675
 3796SOL    HW211967   6.490   9.930   8.134 -0.4660 -0.0337 -2.0638
 3797SOL     OW11968   6.906   1.638   8.349 -0.2447 -0.2878 -0.6243
 3797SOL    HW111969   6.875   1.554   8.380 -0.9403 -0.3144 -1.3379
 3797SOL    HW211970   6.865   1.648   8.263  0.6090  0.3363 -0.9736
 3798SOL     OW11971   1.783   1.274   5.617 -0.0001  0.0336 -0.7617
 3798SOL    HW111972   1.741   1.195   5.584  0.8449 -0.7467 -0.0438
 3798SOL    HW211973   1.827   1.313   5.541 -0.5030 -0.1209 -1.1357
 3799SOL     OW11974   2.599   3.630   6.932  0.0158 -0.2485  0.4291
 3799SOL    HW111975   2.607   3.712   6.883 -1.8083 -0.7551 -0.8180
 3799SOL    HW211976   2.518   3.591   6.899  1.2676 -2.9752  0.3644
 3800SOL     OW11977   8.865   0.111   3.857 -0.2216  0.1047  0.0097
 3800SOL    HW111978   8.842   0.195   3.898  1.7805  1.2758 -1.0957
 3800SOL    HW211979   8.914   0.064   3.925  2.3025  1.6595 -0.5830
 3801SOL     OW11980   5.946   2.943   3.676 -0.1310  0.0110 -0.2323
 3801SOL    HW111981   5.972   2.968   3.765 -2.2085 -2.0973  1.0845
 3801SOL    HW211982   5.865   2.991   3.661  0.6536  1.0340 -1.4080
 3802SOL     OW11983   7.675   0.564   6.070  0.4224  0.1140  0.5478
 3802SOL    HW111984   7.688   0.658   6.081  1.0436 -0.0267  1.0605
 3802SOL    HW211985   7.747   0.524   6.118  1.5026 -0.6020 -1.5178
 3803SOL     OW11986   1.702   5.797   1.571 -0.5708  0.1916 -0.0157
 3803SOL    HW111987   1.712   5.745   1.492 -1.8812 -0.7385  0.3976
 3803SOL    HW211988   1.787   5.841   1.582 -0.3339  0.2576 -1.8458
 3804SOL     OW11989   5.383   4.410   6.441 -0.1309 -0.7269  0.4541
 3804SOL    HW111990   5.321   4.363   6.386  0.8444 -0.2182 -1.1628
 3804SOL    HW211991   5.372   4.502   6.416  1.1946 -0.6217  0.1638
 3805SOL     OW11992   8.814   8.208  -0.012 -0.3179 -0.2638 -0.1888
 3805SOL    HW111993   8.831   8.224   0.081  1.1607  0.0355 -0.4862
 3805SOL    HW211994   8.891   8.161  -0.043  0.1283  1.3106 -1.6685
 3806SOL     OW11995   4.182   7.678   7.422  0.1126 -0.1049  0.0714
 3806SOL    HW111996   4.251   7.614   7.404  0.4309 -0.4470  2.2777
 3806SOL    HW211997   4.228   7.755   7.455 -0.5110 -0.9262  3.2212
 3807SOL     OW11998   8.019   2.501   8.246  0.2179 -1.1243 -0.0332
 3807SOL    HW111999   8.094   2.441   8.240 -0.3552 -1.7176 -2.7975
 3807SOL    HW212000   7.945   2.449   8.217 -1.0148 -0.1027  1.1818
 3808SOL     OW12001   7.110   6.988   4.541  0.3061  0.5094  0.3389
 3808SOL    HW112002   7.083   6.899   4.563 -0.0761  0.3835 -0.6034
 3808SOL    HW212003   7.187   7.005   4.597  0.1181 -0.2405  0.8338
 3809SOL     OW12004   6.204   1.787   3.732  0.3036  0.2438  0.0257
 3809SOL    HW112005   6.227   1.763   3.642 -0.4548  1.7149 -0.5831
 3809SOL    HW212006   6.110   1.773   3.738  0.1059  1.4995  0.1308
 3810SOL     OW12007   3.182   8.246   3.021 -0.0390 -0.2260 -0.0373
 3810SOL    HW112008   3.151   8.165   2.979 -0.6527 -0.2063  0.3680
 3810SOL    HW212009   3.143   8.316   2.970  0.0007 -0.1933 -0.0224
 3811SOL     OW12010   4.115   4.290   4.890 -0.4364  0.2185  0.0628
 3811SOL    HW112011   4.029   4.275   4.851 -0.6166  0.5821  0.3140
 3811SOL    HW212012   4.130   4.212   4.945 -0.1036 -0.3764 -0.8447
 3812SOL     OW12013   7.266   6.534   5.047  0.4407 -0.0473  0.2899
 3812SOL    HW112014   7.360   6.534   5.064 -0.0718  0.1703  3.7736
 3812SOL    HW212015   7.242   6.627   5.042  0.2726 -0.0925  0.2262
 3813SOL     OW12016   3.734   8.952   7.193  0.4774 -0.4403  0.6088
 3813SOL    HW112017   3.779   9.015   7.138  0.3537 -1.3227 -0.5385
 3813SOL    HW212018   3.780   8.870   7.178  0.0745 -0.8212  1.3760
 3814SOL     OW12019   3.466   5.263   9.436  0.5018  0.1480  0.2032
 3814SOL    HW112020   3.424   5.194   9.384  1.0109 -1.1785  1.4854
 3814SOL    HW212021   3.445   5.344   9.389 -1.3540 -0.7094 -0.5731
 3815SOL     OW12022   1.866   4.348   3.372 -0.5913  0.3279  0.0916
 3815SOL    HW112023   1.778   4.358   3.408 -1.3813 -1.4065 -1.2359
 3815SOL    HW212024   1.866   4.261   3.332  1.6941  0.3423 -0.0627
 3816SOL     OW12025   8.453   2.681   1.798  0.1874  0.4297 -0.2551
 3816SOL    HW112026   8.412   2.694   1.884  1.1158  0.6939  0.1717
 3816SOL    HW212027   8.539   2.643   1.819  0.4761  0.6288 -1.0578
 3817SOL     OW12028   4.468   5.968   7.054 -0.8598  0.0239 -0.1796
 3817SOL    HW112029   4.428   5.925   7.129  0.4256  0.0956  0.5639
 3817SOL    HW212030   4.503   5.896   7.001 -0.5456  0.0542 -0.0094
 3818SOL     OW12031   2.217   6.717   1.247  0.0598  0.0414  0.7230
 3818SOL    HW112032   2.254   6.803   1.264 -0.0547  0.2822 -0.2006
 3818SOL    HW212033   2.292   6.658   1.241  0.0785 -0.6658  4.8391
 3819SOL     OW12034   2.444   9.283   8.534 -0.4442  0.6061  0.1536
 3819SOL    HW112035   2.530   9.322   8.520 -0.5722  0.3440 -1.7221
 3819SOL    HW212036   2.383   9.355   8.520 -0.6229  0.1156 -1.9247
 3820SOL     OW12037   8.496   6.865   1.506  0.2244 -0.2484  0.0871
 3820SOL    HW112038   8.493   6.770   1.514  0.5646 -0.2622  0.0341
 3820SOL    HW212039   8.501   6.882   1.412  1.4689 -0.2131  0.1543
 3821SOL     OW12040   0.168   0.825   2.402 -0.2293 -0.2672 -0.2020
 3821SOL    HW112041   0.120   0.765   2.458  0.6049 -1.7905 -1.0438
 3821SOL    HW212042   0.121   0.823   2.318 -0.9212  1.2610  0.1065
 3822SOL     OW12043   3.543   0.388   9.815 -0.4309 -0.0002  0.5666
 3822SOL    HW112044   3.459   0.374   9.772  0.2521 -0.2305 -0.7327
 3822SOL    HW212045   3.524   0.452   9.884 -1.8106 -0.6260  0.7955
 3823SOL     OW12046   3.038   8.086   2.706  0.0502  1.0015  0.5007
 3823SOL    HW112047   3.099   8.016   2.686 -0.4481  0.3843  1.0998
 3823SOL    HW212048   3.065   8.158   2.648  1.0402  0.5896  0.4244
 3824SOL     OW12049   9.694   3.230   5.737 -0.2670 -0.4024 -0.1147
 3824SOL    HW112050   9.733   3.154   5.692 -2.7749 -1.4466 -0.6949
 3824SOL    HW212051   9.663   3.286   5.666 -0.5468 -0.0049  0.3170
 3825SOL     OW12052   0.329   1.883   4.070 -0.0670 -0.4801  0.1779
 3825SOL    HW112053   0.284   1.949   4.124  0.6684  0.9412 -0.8715
 3825SOL    HW212054   0.406   1.928   4.036 -0.1018 -1.5482 -1.4537
 3826SOL     OW12055   6.760   0.390   6.596  0.2380  0.1355 -0.0554
 3826SOL    HW112056   6.815   0.382   6.674 -1.2318 -1.4339  0.9204
 3826SOL    HW212057   6.818   0.369   6.523  0.8035 -2.3624  1.0077
 3827SOL     OW12058   9.246   7.632   1.067 -0.1063  0.3265  0.1291
 3827SOL    HW112059   9.288   7.582   0.997 -0.8338  0.5958 -0.5216
 3827SOL    HW212060   9.318   7.666   1.120  0.5823  1.7409 -1.6013
 3828SOL     OW12061   9.209   4.206   4.300 -0.0936  0.0643  0.8339
 3828SOL    HW112062   9.294   4.239   4.269 -0.3843  0.9304  0.9218
 3828SOL    HW212063   9.215   4.111   4.290  0.4358  0.1949 -0.3342
 3829SOL     OW12064   7.091   5.290   7.863  0.4910  0.3164 -0.0318
 3829SOL    HW112065   7.091   5.250   7.776  0.4838 -0.3233  0.2571
 3829SOL    HW212066   7.024   5.358   7.858  0.5417  0.3310 -0.5490
 3830SOL     OW12067   4.974   6.877   6.190  0.2121 -0.3427  0.0382
 3830SOL    HW112068   5.060   6.874   6.147 -0.3564  1.1257 -1.3022
 3830SOL    HW212069   4.911   6.875   6.118 -0.8717 -0.7577  0.9657
 3831SOL     OW12070   1.912   4.207   4.697  0.0712 -0.1993 -0.4037
 3831SOL    HW112071   1.837   4.164   4.657 -1.1798 -0.1714  1.7263
 3831SOL    HW212072   1.898   4.300   4.682 -1.3290 -0.0575  1.4743
 3832SOL     OW12073   3.775   4.969   6.614 -0.5392 -0.3342  0.3128
 3832SOL    HW112074   3.755   4.884   6.654 -0.5803 -0.4846 -0.0228
 3832SOL    HW212075   3.857   4.954   6.567 -0.4825 -0.1554  0.3567
 3833SOL     OW12076   2.570   5.793   5.917  0.7541 -0.2866  0.4999
 3833SOL    HW112077   2.604   5.790   5.827  0.9929  0.1512  0.5728
 3833SOL    HW212078   2.544   5.703   5.936 -3.0191  0.1805 -1.4118
 3834SOL     OW12079   4.847   3.474   3.810 -0.0465  0.0156 -0.5530
 3834SOL    HW112080   4.868   3.521   3.729  1.3546 -0.7016 -0.6392
 3834SOL    HW212081   4.884   3.387   3.798 -0.5940 -0.3906  0.5195
 3835SOL     OW12082   0.637   0.201   9.170 -0.0932 -0.7198 -0.0998
 3835SOL    HW112083   0.728   0.228   9.159  0.0120 -0.5294  1.0480
 3835SOL    HW212084   0.616   0.152   9.091  1.2870 -1.5263 -0.0022
 3836SOL     OW12085   3.343   2.774   3.208  0.1099  0.0783  0.1617
 3836SOL    HW112086   3.423   2.721   3.216  0.3387  0.1437 -1.3668
 3836SOL    HW212087   3.372   2.863   3.229  0.6240  0.2157 -1.0383
 3837SOL     OW12088   1.808   0.492   3.865 -0.1606 -0.0264  0.4007
 3837SOL    HW112089   1.888   0.446   3.841  0.1185 -0.6421  2.3797
 3837SOL    HW212090   1.741   0.452   3.810  0.5587 -0.8833  0.1188
 3838SOL     OW12091   2.308   1.655   8.053  0.6008  0.8157  0.2373
 3838SOL    HW112092   2.239   1.709   8.014  0.6297 -0.3298 -1.5177
 3838SOL    HW212093   2.292   1.658   8.147 -1.1782  1.4456 -0.0636
 3839SOL     OW12094   8.278   1.221   7.006  0.9799 -0.5015 -0.1617
 3839SOL    HW112095   8.331   1.188   7.078  1.5236 -1.3451 -0.9326
 3839SOL    HW212096   8.190   1.187   7.023  0.3583  1.7669  1.6920
 3840SOL     OW12097   9.897   2.110   7.434 -0.1185 -0.0201 -0.9432
 3840SOL    HW112098   9.966   2.097   7.370  0.9424 -0.5071  0.2533
 3840SOL    HW212099   9.912   2.199   7.467  0.3990 -0.3805 -0.1773
 3841SOL     OW12100   4.575   6.680   3.547 -0.1394  0.3098  0.7113
 3841SOL    HW112101   4.508   6.637   3.493 -2.2426  2.7646  1.1341
 3841SOL    HW212102   4.647   6.697   3.487 -0.9465 -0.1335 -0.4304
 3842SOL     OW12103   5.229   9.836   1.120 -0.2576  0.7106 -0.3572
 3842SOL    HW112104   5.320   9.817   1.142 -0.5853  0.2666  0.7049
 3842SOL    HW212105   5.200   9.758   1.072 -1.0235 -0.7672  2.2774
 3843SOL     OW12106   3.105   3.546   3.064 -0.9446  0.1307  0.0068
 3843SOL    HW112107   3.058   3.621   3.101 -0.1618  0.9655 -0.6555
 3843SOL    HW212108   3.107   3.482   3.136  1.4288  2.0830  1.8552
 3844SOL     OW12109   4.500   0.029   2.901  0.1646 -0.1212  0.2750
 3844SOL    HW112110   4.455  -0.029   2.840 -0.6363  1.1606 -0.4083
 3844SOL    HW212111   4.431   0.059   2.960  0.8588 -1.0311  1.5886
 3845SOL     OW12112   0.467   5.354   8.106  0.2552 -0.0998  0.4426
 3845SOL    HW112113   0.483   5.259   8.104 -2.0683 -0.5661 -1.9846
 3845SOL    HW212114   0.523   5.390   8.038  0.9475  0.2628  1.1909
 3846SOL     OW12115   0.944   3.192   0.324 -0.1290  0.0532  0.0070
 3846SOL    HW112116   0.868   3.241   0.357  0.1185  1.2233 -1.1024
 3846SOL    HW212117   0.911   3.144   0.249  0.3237  1.0332 -0.8494
 3847SOL     OW12118   6.265   1.631   0.327 -0.3120 -0.4880 -0.1899
 3847SOL    HW112119   6.191   1.570   0.328  0.1913 -1.1480  1.5858
 3847SOL    HW212120   6.339   1.578   0.298 -0.0858 -0.4570  0.3181
 3848SOL     OW12121   5.511   7.619   6.762  0.0801 -0.0574 -0.0363
 3848SOL    HW112122   5.519   7.547   6.826 -0.5697 -0.0430  0.0778
 3848SOL    HW212123   5.508   7.698   6.816 -0.9768 -0.0809 -0.0356
 3849SOL     OW12124   4.716   0.774   2.660  0.7583 -0.2624  0.5599
 3849SOL    HW112125   4.765   0.848   2.695  0.5905 -0.2832  0.8487
 3849SOL    HW212126   4.763   0.748   2.581 -0.3480  1.4851 -0.7314
 3850SOL     OW12127   2.314   5.329   5.755 -0.4678 -0.1165  0.0324
 3850SOL    HW112128   2.409   5.324   5.770 -0.4143  3.0435  1.5820
 3850SOL    HW212129   2.306   5.370   5.669 -0.5786 -2.7426 -1.3196
 3851SOL     OW12130   5.981   0.124   9.957 -0.2487 -0.1250  0.0258
 3851SOL    HW112131   5.996   0.193  10.021  0.8871 -1.3903  1.1754
 3851SOL    HW212132   5.892   0.140   9.925 -0.2014  1.5417  0.6335
 3852SOL     OW12133   6.354   5.686   3.624 -0.1161 -0.0670  0.6243
 3852SOL    HW112134   6.446   5.704   3.643 -0.5458  2.4183  0.6736
 3852SOL    HW212135   6.322   5.641   3.702  0.6900  0.3985  1.2450
 3853SOL     OW12136   0.083   7.885   6.711  0.1853  0.0387 -0.4840
 3853SOL    HW112137  -0.008   7.905   6.734 -0.3843 -1.8114 -0.9163
 3853SOL    HW212138   0.113   7.961   6.661 -0.6807  1.2438  0.7662
 3854SOL     OW12139   4.115   5.133   0.652 -0.1102 -0.0486 -0.4656
 3854SOL    HW112140   4.157   5.082   0.721 -0.6296  0.8137  0.5174
 3854SOL    HW212141   4.034   5.085   0.632 -0.8830  0.6510  0.8614
 3855SOL     OW12142   3.609   4.301   9.762 -0.6169  0.4186 -0.1189
 3855SOL    HW112143   3.644   4.241   9.696  1.5048  0.0858  1.1935
 3855SOL    HW212144   3.665   4.287   9.838 -2.3344  1.5111  1.4332
 3856SOL     OW12145   5.311   9.078   0.961  0.5204  0.2956 -0.0075
 3856SOL    HW112146   5.311   8.983   0.947 -1.0314  0.2258  0.1903
 3856SOL    HW212147   5.286   9.115   0.876  0.1049  0.4540  0.1799
 3857SOL     OW12148   2.043   2.180   6.504 -0.0984 -0.0170  0.3248
 3857SOL    HW112149   2.096   2.237   6.559  3.0570 -0.4294 -2.0448
 3857SOL    HW212150   2.004   2.239   6.439  0.1215 -0.0910  0.1234
 3858SOL     OW12151   6.554   4.647   8.062 -0.0459 -0.6680 -0.0038
 3858SOL    HW112152   6.620   4.611   8.002  0.0375 -1.7812  0.7371
 3858SOL    HW212153   6.586   4.735   8.082 -0.2671 -0.1081 -1.8701
 3859SOL     OW12154   5.806   1.270   0.190 -0.2836  0.7040 -0.2622
 3859SOL    HW112155   5.901   1.282   0.190  0.0838 -1.6112 -1.1803
 3859SOL    HW212156   5.790   1.212   0.116 -2.0855 -0.9906  1.3313
 3860SOL     OW12157   5.608   0.196   8.001 -0.2052 -0.2368 -0.5214
 3860SOL    HW112158   5.700   0.220   7.994 -0.2528 -0.2112 -1.0822
 3860SOL    HW212159   5.608   0.101   8.006 -0.0829 -0.1875  0.6200
 3861SOL     OW12160   2.423   2.279   8.997 -0.1458 -0.4686  0.5792
 3861SOL    HW112161   2.330   2.263   9.014 -0.4685  0.3743 -0.3243
 3861SOL    HW212162   2.467   2.207   9.041 -1.1934 -0.6236  1.4376
 3862SOL     OW12163   9.772   9.677   5.163 -0.0060  0.1728 -0.2860
 3862SOL    HW112164   9.709   9.629   5.216 -0.5141  0.5971 -0.4931
 3862SOL    HW212165   9.821   9.610   5.115  0.4094 -0.2098  0.6575
 3863SOL     OW12166   2.021   6.586   2.836 -0.0846 -0.0729 -0.2843
 3863SOL    HW112167   2.056   6.674   2.822 -0.2923 -0.0016 -0.3671
 3863SOL    HW212168   1.937   6.587   2.790 -0.3592 -0.1227  0.2158
 3864SOL     OW12169   0.390   9.529   3.550  0.3262  0.0226  0.3007
 3864SOL    HW112170   0.479   9.505   3.526 -0.2147 -1.1278 -0.6640
 3864SOL    HW212171   0.377   9.488   3.635  0.6253 -0.0468  0.3154
 3865SOL     OW12172   9.010   8.735   7.149 -0.0746 -0.2949 -0.3361
 3865SOL    HW112173   8.974   8.820   7.173  1.7919  0.4509  0.0260
 3865SOL    HW212174   9.028   8.692   7.232 -2.2276 -1.6437 -0.5075
 3866SOL     OW12175   1.435   4.433   2.062  0.0140 -0.1771  0.7267
 3866SOL    HW112176   1.455   4.347   2.098 -1.3627 -0.4121  0.9825
 3866SOL    HW212177   1.484   4.494   2.118 -0.3355 -0.6825  1.6014
 3867SOL     OW12178   0.676   5.770   8.395  0.1444  0.1219  0.1525
 3867SOL    HW112179   0.675   5.850   8.343  0.9436 -0.4189 -0.7274
 3867SOL    HW212180   0.708   5.702   8.335 -1.0287 -0.9807  0.7248
 3868SOL     OW12181   8.207   0.810   5.962 -0.1364 -0.3877  0.0132
 3868SOL    HW112182   8.153   0.886   5.984  0.3009 -0.1343  0.2104
 3868SOL    HW212183   8.269   0.843   5.897  0.8610 -0.2560  1.0046
 3869SOL     OW12184   6.145   4.026   0.919 -0.0264  0.3323 -0.2099
 3869SOL    HW112185   6.197   4.065   0.990 -1.4693  0.3629  0.8771
 3869SOL    HW212186   6.197   4.040   0.841  1.4378  0.6745  0.7842
 3870SOL     OW12187   7.889   0.424   5.431  0.3215 -0.0563  0.3965
 3870SOL    HW112188   7.814   0.452   5.380  0.5409 -0.5930 -0.2376
 3870SOL    HW212189   7.904   0.333   5.405  0.2006 -0.4779  1.7081
 3871SOL     OW12190   6.370   3.077   4.823 -0.0096 -0.4013  0.0705
 3871SOL    HW112191   6.299   3.140   4.836 -0.5655 -0.4000 -2.5503
 3871SOL    HW212192   6.444   3.131   4.793  0.3392 -0.6943  0.4011
 3872SOL     OW12193   3.054   0.384   8.782  0.2353  0.2942 -0.1511
 3872SOL    HW112194   3.017   0.355   8.699 -1.9747 -0.0207  0.8685
 3872SOL    HW212195   2.990   0.446   8.816  1.9421  1.7747  0.5535
 3873SOL     OW12196   3.677   7.175   6.622  0.4099  0.6346 -0.4848
 3873SOL    HW112197   3.741   7.209   6.560  0.3296  0.5461 -0.6158
 3873SOL    HW212198   3.730   7.143   6.696  0.4496  1.5737 -0.0985
 3874SOL     OW12199   1.441   2.925   8.653 -0.3433  0.1378 -0.4415
 3874SOL    HW112200   1.362   2.969   8.619  0.9034  2.5415 -0.4685
 3874SOL    HW212201   1.509   2.945   8.588  0.7990  0.0884  0.7047
 3875SOL     OW12202   0.658   7.050   0.199  0.2061  0.2471  0.1023
 3875SOL    HW112203   0.677   7.066   0.292 -1.4777 -1.3269  0.7997
 3875SOL    HW212204   0.594   6.978   0.200 -1.1583  1.3092 -2.2120
 3876SOL     OW12205   4.885   8.448   9.727  0.7202 -0.1497  0.1530
 3876SOL    HW112206   4.962   8.459   9.672  0.3538 -0.7980 -0.4961
 3876SOL    HW212207   4.861   8.356   9.719  0.3145 -0.1287  0.9438
 3877SOL     OW12208   8.550   4.769   1.043 -0.1769  0.1398 -0.0520
 3877SOL    HW112209   8.519   4.782   1.133  2.4719 -0.4781  1.0388
 3877SOL    HW212210   8.470   4.764   0.991 -1.7670  2.2615  1.9826
 3878SOL     OW12211   3.968   2.137   3.113 -0.5105 -0.2236  0.1607
 3878SOL    HW112212   3.944   2.044   3.112 -0.0257 -0.3439 -0.4968
 3878SOL    HW212213   4.012   2.149   3.197 -2.9907  0.0451  1.5252
 3879SOL     OW12214   0.691   5.012   2.034  0.4414 -0.2353  0.4277
 3879SOL    HW112215   0.657   4.929   2.067  0.7656 -1.0050 -1.0903
 3879SOL    HW212216   0.751   4.988   1.964 -0.1630  1.3036 -0.6940
 3880SOL     OW12217   3.885   8.352   1.084 -0.0466 -0.7551  0.2778
 3880SOL    HW112218   3.834   8.384   1.158 -0.6798  1.0315 -0.8581
 3880SOL    HW212219   3.958   8.305   1.123  0.3523  1.2330  2.1007
 3881SOL     OW12220   8.518   8.066   0.789  0.4156 -0.2193 -0.3871
 3881SOL    HW112221   8.456   8.137   0.779 -0.4630 -1.0956 -1.4103
 3881SOL    HW212222   8.604   8.108   0.780 -0.0241  0.9145  0.4903
 3882SOL     OW12223   5.996   0.191   2.838  0.4737  0.5704 -0.3880
 3882SOL    HW112224   5.994   0.239   2.755  0.9361 -0.1348 -0.8182
 3882SOL    HW212225   6.072   0.133   2.830 -0.3711 -0.6006 -0.0965
 3883SOL     OW12226   6.327   4.455   5.612 -0.3069 -0.0745  0.0093
 3883SOL    HW112227   6.341   4.366   5.646  1.9097 -0.0240 -0.5720
 3883SOL    HW212228   6.283   4.501   5.683 -1.3229 -1.5602  0.3978
 3884SOL     OW12229   7.630   2.355   8.876  0.0728 -0.3176 -0.3255
 3884SOL    HW112230   7.649   2.408   8.953 -0.3996 -1.0911  0.3395
 3884SOL    HW212231   7.595   2.416   8.812  3.1440  0.9013 -1.0169
 3885SOL     OW12232   9.138   0.212   4.339 -0.0251  0.6766 -0.0790
 3885SOL    HW112233   9.106   0.221   4.249  0.9047  1.4924 -0.3434
 3885SOL    HW212234   9.233   0.204   4.330 -0.0624 -1.1151  0.7260
 3886SOL     OW12235   5.355   2.889   7.795 -0.4759 -0.2819 -0.2328
 3886SOL    HW112236   5.283   2.944   7.763 -0.8513  0.8992  2.3733
 3886SOL    HW212237   5.332   2.871   7.886  0.9007 -2.7489 -0.3015
 3887SOL     OW12238   9.875   1.874   2.343 -0.1281 -0.3121  0.3490
 3887SOL    HW112239   9.824   1.941   2.296 -0.5369 -1.1589 -0.4593
 3887SOL    HW212240   9.813   1.803   2.357  0.9132 -1.5841 -1.1034
 3888SOL     OW12241   2.828   9.703   7.000 -0.0464 -0.9947 -1.0531
 3888SOL    HW112242   2.878   9.713   7.082 -0.5713  0.8448 -0.9189
 3888SOL    HW212243   2.781   9.620   7.011 -1.1429 -0.1532  1.0935
 3889SOL     OW12244   4.187   6.995   4.387 -0.9417  0.0489  0.0449
 3889SOL    HW112245   4.197   7.090   4.390 -1.5031  0.0966  0.6556
 3889SOL    HW212246   4.194   6.973   4.294  0.0596  0.5817 -0.0174
 3890SOL     OW12247   8.664   7.598   0.414  0.3857 -0.0794 -0.0749
 3890SOL    HW112248   8.631   7.614   0.326 -1.7715 -1.8752  0.3058
 3890SOL    HW212249   8.752   7.561   0.400 -0.3357 -1.3446 -1.5620
 3891SOL     OW12250   4.136   9.341   8.027 -0.1599  0.0070  0.7270
 3891SOL    HW112251   4.050   9.320   8.064 -0.7888  0.0288 -0.6570
 3891SOL    HW212252   4.118   9.414   7.967  0.7172 -0.3818 -0.0247
 3892SOL     OW12253   3.499   3.578   4.308 -0.4502 -0.1761  0.0062
 3892SOL    HW112254   3.548   3.565   4.389  0.4172 -0.6015 -0.5675
 3892SOL    HW212255   3.507   3.494   4.262 -0.2894  0.3038 -0.8584
 3893SOL     OW12256   9.799   2.152   0.536 -0.1752 -0.1471  0.1613
 3893SOL    HW112257   9.771   2.231   0.490 -0.7714 -0.4755 -0.0519
 3893SOL    HW212258   9.718   2.112   0.567  0.2649  1.2699  3.6242
 3894SOL     OW12259   6.558   0.702   3.059  0.2589 -0.3394  0.0879
 3894SOL    HW112260   6.479   0.719   3.109  0.4994 -1.1757  0.7689
 3894SOL    HW212261   6.539   0.622   3.009  0.1707  0.2527 -0.8561
 3895SOL     OW12262   7.547   5.867   7.919  0.1720 -0.3613 -0.4003
 3895SOL    HW112263   7.550   5.890   8.012  1.2293 -0.7070 -0.3289
 3895SOL    HW212264   7.500   5.783   7.916  1.5715 -1.2024  0.0379
 3896SOL     OW12265   0.854   4.125   2.443  0.6421 -0.3114  0.2014
 3896SOL    HW112266   0.780   4.064   2.446  1.8585 -1.8016  1.5642
 3896SOL    HW212267   0.892   4.112   2.356  0.0765 -0.4875 -0.0261
 3897SOL     OW12268   5.642   4.179   9.292  0.0940  0.1300 -0.3097
 3897SOL    HW112269   5.652   4.230   9.211 -1.9030  1.6633  0.3437
 3897SOL    HW212270   5.602   4.097   9.263  0.5220  0.1675 -1.0281
 3898SOL     OW12271   3.178   1.488   9.732 -0.3314 -0.0700  0.0520
 3898SOL    HW112272   3.129   1.452   9.658  0.8078 -0.1464 -0.7008
 3898SOL    HW212273   3.213   1.411   9.777  0.4063  0.0072 -0.3637
 3899SOL     OW12274   0.355   0.096   7.431  0.1318  0.7560 -0.4425
 3899SOL    HW112275   0.286   0.102   7.497  1.1604 -1.8960  1.0878
 3899SOL    HW212276   0.355   0.181   7.387 -2.8034  1.4905  0.7393
 3900SOL     OW12277   1.379   4.935   3.506 -0.2941  0.2646  0.0693
 3900SOL    HW112278   1.460   4.966   3.546 -0.5885  2.2514 -0.7100
 3900SOL    HW212279   1.352   4.860   3.558  1.2267  0.5356  1.2944
 3901SOL     OW12280   0.022   8.709   5.902  0.0181  0.1881  0.1108
 3901SOL    HW112281   0.066   8.734   5.820  0.5398  0.3262  0.4332
 3901SOL    HW212282  -0.045   8.776   5.914 -0.0283  0.1968 -0.1756
 3902SOL     OW12283   8.608   8.626   0.170  0.2054  0.1441  0.1469
 3902SOL    HW112284   8.603   8.531   0.183  2.6561  0.1605  1.8899
 3902SOL    HW212285   8.520   8.657   0.190 -0.7333 -1.7571 -0.7561
 3903SOL     OW12286   9.652   2.088   6.313 -0.0980 -1.1253 -0.5161
 3903SOL    HW112287   9.699   2.157   6.358 -1.0122  0.2933 -1.6387
 3903SOL    HW212288   9.650   2.015   6.375  1.2191 -0.2907  0.5484
 3904SOL     OW12289   6.954   0.735   2.291  0.2079 -0.0965  0.3377
 3904SOL    HW112290   7.020   0.772   2.232 -0.4390 -1.1290 -1.0781
 3904SOL    HW212291   6.979   0.643   2.301 -0.2140 -0.1542  0.9425
 3905SOL     OW12292   7.493   4.201   8.756 -0.3828  0.3510 -0.2478
 3905SOL    HW112293   7.413   4.154   8.734 -0.5413  0.4218  0.1646
 3905SOL    HW212294   7.563   4.153   8.712 -0.6398  0.2259 -0.5210
 3906SOL     OW12295   7.480   6.861   9.179  0.3697 -0.2517 -0.0733
 3906SOL    HW112296   7.571   6.880   9.155 -0.3212  1.7756 -1.3281
 3906SOL    HW212297   7.477   6.766   9.188  2.8677 -0.2983  1.2065
 3907SOL     OW12298   2.041   2.325   2.690 -0.1849  0.0001 -0.2937
 3907SOL    HW112299   2.072   2.237   2.669 -1.7527 -0.5322 -0.5202
 3907SOL    HW212300   2.100   2.356   2.759  0.5523 -1.1166 -0.4032
 3908SOL     OW12301   2.886   9.039   2.321 -0.3086 -0.2889 -0.2028
 3908SOL    HW112302   2.845   8.992   2.249  1.3955  0.3196 -1.6497
 3908SOL    HW212303   2.968   8.991   2.337 -1.1547 -1.0973  2.1492
 3909SOL     OW12304   9.230   4.200   4.588  0.2087  0.2351  0.8484
 3909SOL    HW112305   9.186   4.213   4.504 -1.4126  0.8148  1.7307
 3909SOL    HW212306   9.300   4.138   4.570  1.2587  1.9477 -1.3363
 3910SOL     OW12307   0.648   6.934   1.745 -0.3165 -0.4007 -0.4368
 3910SOL    HW112308   0.706   6.904   1.814  1.0483  0.2744 -1.2428
 3910SOL    HW212309   0.705   6.986   1.687 -1.5838 -0.2769 -1.6139
 3911SOL     OW12310   2.068   5.829   5.504  0.1162 -0.0610 -0.8031
 3911SOL    HW112311   2.040   5.921   5.506  1.0842  0.2304 -0.0869
 3911SOL    HW212312   1.995   5.783   5.462 -0.7906  0.8888 -0.3192
 3912SOL     OW12313   1.602   8.076   7.031  0.6032 -0.2211 -0.4559
 3912SOL    HW112314   1.529   8.130   7.062  1.2378  0.8982 -0.8692
 3912SOL    HW212315   1.619   8.107   6.942  1.2784 -0.8024 -0.5371
 3913SOL     OW12316   8.871   1.300   4.494  0.3029 -0.4414  1.3862
 3913SOL    HW112317   8.932   1.374   4.499  0.5526 -0.4733 -0.5107
 3913SOL    HW212318   8.786   1.338   4.516  0.2970  0.6548 -0.3037
 3914SOL     OW12319   7.845   9.467   1.668 -0.2300 -0.3542  0.8650
 3914SOL    HW112320   7.886   9.515   1.595 -0.1036  0.3310  1.3816
 3914SOL    HW212321   7.756   9.501   1.671 -0.1226 -0.1043  1.2682
 3915SOL     OW12322   5.054   4.707   1.169 -0.1544  0.1899  0.9162
 3915SOL    HW112323   5.141   4.731   1.200  0.6713 -1.2082 -0.1609
 3915SOL    HW212324   5.062   4.615   1.145 -1.1347  0.7010 -1.7993
 3916SOL     OW12325   9.105   5.876   9.854  0.1574  0.3790  0.4580
 3916SOL    HW112326   9.044   5.891   9.781  0.3517 -0.9412  0.0017
 3916SOL    HW212327   9.178   5.829   9.815  1.2049  1.4113  1.1351
 3917SOL     OW12328   9.738   2.919   5.368 -0.2586 -0.1004 -0.6710
 3917SOL    HW112329   9.717   2.958   5.283 -0.7212  0.3439 -0.3636
 3917SOL    HW212330   9.826   2.883   5.357  0.5981  1.8475 -0.7065
 3918SOL     OW12331   9.737   1.839   2.629 -0.4083 -0.0496 -0.4300
 3918SOL    HW112332   9.832   1.847   2.626 -0.0799 -1.4839  2.6943
 3918SOL    HW212333   9.717   1.768   2.567  0.3983  0.7161 -1.6183
 3919SOL     OW12334   1.240   2.407   7.586  0.5697 -0.1550  0.5406
 3919SOL    HW112335   1.254   2.498   7.611 -0.0000  0.0735  0.0522
 3919SOL    HW212336   1.184   2.412   7.508 -0.0562 -0.9453  0.9300
 3920SOL     OW12337   1.846   9.520   0.761 -0.0283 -0.5029 -0.1753
 3920SOL    HW112338   1.905   9.465   0.813  1.2934  0.5068 -0.5621
 3920SOL    HW212339   1.763   9.518   0.808  0.0348 -2.6501 -0.0650
 3921SOL     OW12340   9.191   0.836   5.735 -0.6942  0.7157  0.0125
 3921SOL    HW112341   9.112   0.782   5.728 -0.5957  0.4122  1.0659
 3921SOL    HW212342   9.251   0.784   5.788  1.1098 -0.0533 -2.5944
 3922SOL     OW12343   4.185   1.814   5.823  0.2536 -0.0340 -0.0085
 3922SOL    HW112344   4.167   1.818   5.917  1.2978 -1.0283  0.2619
 3922SOL    HW212345   4.106   1.773   5.785 -0.1583  0.3454  0.4282
 3923SOL     OW12346   0.836   4.922   6.560  0.0366 -0.2256  0.0616
 3923SOL    HW112347   0.931   4.931   6.574  0.0396 -0.0035 -0.0883
 3923SOL    HW212348   0.797   4.978   6.627  0.0223 -0.0225 -0.1148
 3924SOL     OW12349   7.980   4.699   7.132 -0.0404 -0.3296  0.6461
 3924SOL    HW112350   8.052   4.710   7.195  0.2243 -1.7500  0.6318
 3924SOL    HW212351   7.945   4.612   7.151 -0.5320 -0.4175 -0.5914
 3925SOL     OW12352   1.861   9.165   1.137 -0.0606  0.3689  0.1052
 3925SOL    HW112353   1.783   9.135   1.091 -1.0082 -1.7521  2.8317
 3925SOL    HW212354   1.828   9.225   1.204  0.7118  0.0023  0.8336
 3926SOL     OW12355   3.989   4.847   9.721  0.2857  0.6108  0.3249
 3926SOL    HW112356   3.969   4.857   9.814 -1.1987  1.6314 -0.0562
 3926SOL    HW212357   4.002   4.752   9.709 -1.2857  0.2403  1.2648
 3927SOL     OW12358   0.318   3.270   6.271  0.0816 -0.0384  0.4026
 3927SOL    HW112359   0.349   3.296   6.357 -0.9494  2.5037  0.0995
 3927SOL    HW212360   0.391   3.289   6.212 -0.4957  1.8997  0.2533
 3928SOL     OW12361   9.535   3.996   8.817  0.5142  0.0935  0.0225
 3928SOL    HW112362   9.557   3.938   8.745 -0.5237  0.3594 -0.5228
 3928SOL    HW212363   9.562   4.083   8.786  0.4745  0.1455  0.1341
 3929SOL     OW12364   3.732   1.977   5.485  0.0935 -0.0956  0.0260
 3929SOL    HW112365   3.752   2.054   5.432 -1.1883  0.5798  0.4692
 3929SOL    HW212366   3.808   1.921   5.475  0.3473  0.4720 -1.6790
 3930SOL     OW12367   0.154   0.260   4.283 -0.3751 -0.0289 -0.1596
 3930SOL    HW112368   0.064   0.234   4.263 -0.4934  0.6510 -0.5860
 3930SOL    HW212369   0.144   0.334   4.343 -0.0930 -0.1551  0.0396
 3931SOL     OW12370   0.622   6.183   1.939  0.5409  0.1243  0.0780
 3931SOL    HW112371   0.640   6.234   2.018  0.6364  1.3684 -0.7116
 3931SOL    HW212372   0.557   6.234   1.891 -1.3328 -1.7773  0.4270
 3932SOL     OW12373   0.755   5.124   0.181  0.7487  0.3790  0.1550
 3932SOL    HW112374   0.690   5.061   0.212  2.0652 -0.2504  1.7746
 3932SOL    HW212375   0.770   5.101   0.090 -1.5444  0.7969 -0.3950
 3933SOL     OW12376   3.715   4.782   2.790 -0.1481  0.1260 -0.3625
 3933SOL    HW112377   3.792   4.757   2.841 -0.8168  0.4665  0.8490
 3933SOL    HW212378   3.698   4.705   2.736  0.5719 -0.2628 -0.0659
 3934SOL     OW12379   2.176   5.645   1.219  0.0376  0.4572 -0.8779
 3934SOL    HW112380   2.130   5.589   1.157  1.2541 -0.2012 -1.2311
 3934SOL    HW212381   2.265   5.608   1.223  0.2128  0.9706  0.6528
 3935SOL     OW12382   5.415   4.634   5.719  0.4158 -0.0356  0.5481
 3935SOL    HW112383   5.457   4.720   5.721  0.7187 -0.1843  2.1296
 3935SOL    HW212384   5.325   4.651   5.747 -0.1023  0.0287 -1.0905
 3936SOL     OW12385   8.786   4.957   4.828  0.2413 -0.0914  0.3101
 3936SOL    HW112386   8.727   4.961   4.753  1.1775  0.9363 -0.3914
 3936SOL    HW212387   8.873   4.974   4.792  1.1637 -2.5143  1.1486
 3937SOL     OW12388   6.666   0.902   5.648  0.5546  0.1963 -0.5582
 3937SOL    HW112389   6.613   0.941   5.717  0.8424  0.6060 -0.5662
 3937SOL    HW212390   6.757   0.918   5.675  0.7324 -1.7507  0.1891
 3938SOL     OW12391   4.423   3.734   4.139  0.3209  0.1555  0.4502
 3938SOL    HW112392   4.419   3.669   4.070 -0.9954 -1.9456  2.3585
 3938SOL    HW212393   4.334   3.739   4.173  1.0436  0.5468  2.4443
 3939SOL     OW12394   7.124   8.428   4.123  0.0962  0.0024  0.4901
 3939SOL    HW112395   7.092   8.344   4.090  2.1893 -0.7577  0.2469
 3939SOL    HW212396   7.133   8.482   4.045 -0.2033  0.0801  0.5086
 3940SOL     OW12397   1.619   0.056   3.227  0.6790 -0.2925 -0.1797
 3940SOL    HW112398   1.641   0.143   3.194  0.4012 -0.5782 -1.1325
 3940SOL    HW212399   1.686  -0.001   3.191  1.1543 -0.4118  0.8515
 3941SOL     OW12400   1.594   0.318   1.645  0.1388  0.8770 -0.4942
 3941SOL    HW112401   1.617   0.279   1.730  0.8081  0.0123 -1.0518
 3941SOL    HW212402   1.511   0.364   1.661 -0.6711 -0.7532  0.2138
 3942SOL     OW12403   0.088   9.361   4.416  0.4277 -0.3209  0.3590
 3942SOL    HW112404   0.047   9.292   4.469 -2.6555  0.1362 -1.1964
 3942SOL    HW212405   0.016   9.421   4.395  1.4998 -0.1868 -3.8623
 3943SOL     OW12406   5.074   3.298   0.340  0.6387 -0.1271 -0.0218
 3943SOL    HW112407   5.140   3.312   0.272 -0.8360  1.7052 -1.1632
 3943SOL    HW212408   4.997   3.267   0.292  0.3053 -1.2404  1.1639
 3944SOL     OW12409   1.582   0.184   8.834  0.5757 -0.4681 -0.1269
 3944SOL    HW112410   1.572   0.250   8.766  0.0617 -1.3774 -0.9604
 3944SOL    HW212411   1.599   0.234   8.914 -0.7014  0.7161 -0.5602
 3945SOL     OW12412   1.965   9.294   7.786  0.5572  0.1865  0.4987
 3945SOL    HW112413   1.999   9.368   7.737  2.4112 -0.7561  0.2544
 3945SOL    HW212414   1.871   9.310   7.792  0.5348  1.2776 -1.7253
 3946SOL     OW12415   1.305   3.664   8.167 -0.3618 -0.5757  0.0765
 3946SOL    HW112416   1.390   3.706   8.153 -1.0430  0.9963  0.4390
 3946SOL    HW212417   1.245   3.711   8.109 -0.6855 -2.9031 -1.6093
 3947SOL     OW12418   9.345   2.375   1.713 -0.2698 -0.0894 -1.0068
 3947SOL    HW112419   9.441   2.374   1.723 -0.2809  2.7590  0.4785
 3947SOL    HW212420   9.329   2.445   1.649 -1.3774  0.0793 -0.5646
 3948SOL     OW12421   7.871   2.683   3.719  0.7343 -0.3889 -0.1714
 3948SOL    HW112422   7.848   2.608   3.666  0.6890 -0.0754 -0.6012
 3948SOL    HW212423   7.798   2.693   3.781  1.2616 -1.3667  0.6341
 3949SOL     OW12424   5.397   2.811   5.399  0.7289 -0.4752  0.4314
 3949SOL    HW112425   5.444   2.727   5.400 -0.8017 -1.4452 -1.4928
 3949SOL    HW212426   5.466   2.877   5.398  2.0460 -1.7914 -0.9961
 3950SOL     OW12427   3.500   6.761   0.773  0.0546  0.0572  0.2462
 3950SOL    HW112428   3.527   6.849   0.798  0.3164  0.2694 -0.7399
 3950SOL    HW212429   3.406   6.767   0.762  0.1064  0.2842 -0.0816
 3951SOL     OW12430   6.771   6.994   3.046 -0.1876  0.2789 -0.1910
 3951SOL    HW112431   6.747   7.081   3.080 -0.5277  0.2431 -0.3382
 3951SOL    HW212432   6.765   7.003   2.951 -0.1160  0.1214 -0.2105
 3952SOL     OW12433   1.978   1.569   6.985  0.3010  0.3438  0.0257
 3952SOL    HW112434   1.937   1.544   6.902 -0.8019  2.1658 -0.0486
 3952SOL    HW212435   2.051   1.625   6.959  0.6524  0.0000  0.2646
 3953SOL     OW12436   8.948   4.829   1.406  0.1761 -0.1672 -0.2208
 3953SOL    HW112437   9.019   4.765   1.402  1.6481  1.3590 -0.0654
 3953SOL    HW212438   8.927   4.836   1.499  0.5479  0.0887 -0.1504
 3954SOL     OW12439   6.815   3.869   8.509 -0.6289 -0.3984 -0.0306
 3954SOL    HW112440   6.730   3.912   8.520 -1.3141 -1.4903 -0.8133
 3954SOL    HW212441   6.796   3.776   8.521  0.5451 -0.6259  0.1767
 3955SOL     OW12442   5.020   2.848   9.592 -0.0830  0.1711 -0.2614
 3955SOL    HW112443   5.064   2.785   9.649 -1.5745  0.6050  1.4685
 3955SOL    HW212444   4.978   2.795   9.524 -0.0814 -0.5687  0.3075
 3956SOL     OW12445   1.608   4.454   3.410 -0.2763  0.0083 -0.0576
 3956SOL    HW112446   1.580   4.515   3.341  2.4500  0.0538 -1.2329
 3956SOL    HW212447   1.526   4.430   3.454 -1.7242  2.7451 -0.9745
 3957SOL     OW12448   9.232   3.262   6.526  0.2266 -0.3040  0.2837
 3957SOL    HW112449   9.228   3.327   6.456 -0.2719 -1.4658 -0.8190
 3957SOL    HW212450   9.291   3.299   6.591  0.3567  1.0059 -0.5534
 3958SOL     OW12451   7.034   6.053   2.542  0.0822 -0.1131  0.5179
 3958SOL    HW112452   7.018   5.959   2.547  1.0362 -0.2849  0.4613
 3958SOL    HW212453   6.983   6.089   2.615  0.0816 -0.7234  0.8310
 3959SOL     OW12454   3.022   3.862   1.930 -0.4487  0.2540 -0.0227
 3959SOL    HW112455   3.030   3.770   1.955  1.0166  0.1629 -0.6970
 3959SOL    HW212456   2.982   3.905   2.006  2.3288 -0.2823  1.8905
 3960SOL     OW12457   5.435   7.360   1.366  0.2097  0.4382 -0.4543
 3960SOL    HW112458   5.398   7.440   1.403  0.0208  0.7280 -1.2412
 3960SOL    HW212459   5.519   7.350   1.411  0.2525  1.1018 -0.3661
 3961SOL     OW12460   7.175   4.404   3.605 -0.2146  0.8106 -0.2542
 3961SOL    HW112461   7.224   4.486   3.612 -0.3054  0.8133  0.4050
 3961SOL    HW212462   7.235   4.338   3.640 -0.6066  0.7891  0.4048
 3962SOL     OW12463   9.264   5.514   4.606  0.1953 -0.1195 -0.1405
 3962SOL    HW112464   9.325   5.509   4.679  1.4964 -0.7944 -1.2418
 3962SOL    HW212465   9.178   5.504   4.647  0.8535  0.0409  1.3510
 3963SOL     OW12466   3.868   8.891   4.670  0.3701 -0.0223 -0.2887
 3963SOL    HW112467   3.862   8.855   4.758 -0.0196 -0.1207 -0.3530
 3963SOL    HW212468   3.821   8.828   4.615  0.1158  0.3235 -0.4766
 3964SOL     OW12469   9.407   9.133   6.163 -0.5919  0.1881 -0.0601
 3964SOL    HW112470   9.480   9.081   6.199 -0.6512 -0.7585 -1.2344
 3964SOL    HW212471   9.330   9.078   6.176 -0.8046  0.3914 -0.4406
 3965SOL     OW12472   4.284   0.967   4.730 -0.1679 -0.0437  0.3695
 3965SOL    HW112473   4.245   0.998   4.812 -0.1455 -0.7785  0.6691
 3965SOL    HW212474   4.305   0.875   4.747  1.1501  0.1688  0.0166
 3966SOL     OW12475   6.185   7.644   3.601 -0.0448  0.4059  0.0910
 3966SOL    HW112476   6.195   7.645   3.696  2.2227  0.8862 -0.1009
 3966SOL    HW212477   6.205   7.553   3.576 -0.4402  0.3297  0.0388
 3967SOL     OW12478   1.925   2.690   8.994  0.3823  0.2124  0.2257
 3967SOL    HW112479   1.941   2.634   8.919 -0.5412  0.2145  0.0112
 3967SOL    HW212480   1.858   2.752   8.965 -0.8200 -0.4976  1.3647
 3968SOL     OW12481   5.053   6.182   8.740 -0.1227  0.1087 -0.2535
 3968SOL    HW112482   5.131   6.179   8.795 -1.4302  0.7379  1.7315
 3968SOL    HW212483   5.058   6.268   8.698  0.8337 -0.3376 -1.1048
 3969SOL     OW12484   0.907   9.036   0.703 -0.5540 -0.2352 -0.4285
 3969SOL    HW112485   0.900   8.966   0.767  0.0900  0.6710  0.6724
 3969SOL    HW212486   0.886   8.995   0.619 -0.9317 -1.5523  0.2933
 3970SOL     OW12487   6.565   2.539   1.448 -0.0386  0.1479  0.0008
 3970SOL    HW112488   6.508   2.615   1.445  0.4852  0.5265 -2.2435
 3970SOL    HW212489   6.652   2.574   1.429  0.2257 -0.9745 -0.9478
 3971SOL     OW12490   9.185   4.551   6.895  0.1863 -0.3974 -0.3559
 3971SOL    HW112491   9.249   4.510   6.954  1.2695  0.6853 -0.7267
 3971SOL    HW212492   9.227   4.633   6.867 -1.3050  0.2729 -0.7578
 3972SOL     OW12493   0.032   0.721   0.050  0.1209  0.1231 -0.1956
 3972SOL    HW112494   0.047   0.626   0.051 -0.2886  0.0300  1.5541
 3972SOL    HW212495   0.075   0.751  -0.030  0.0548 -1.5625 -0.9242
 3973SOL     OW12496   3.376   7.478   1.614  0.3395  0.0500 -0.0575
 3973SOL    HW112497   3.417   7.531   1.683 -0.1963  0.6000 -0.1503
 3973SOL    HW212498   3.323   7.540   1.564  1.3292 -0.1990 -1.4605
 3974SOL     OW12499   7.115   8.324   9.323 -0.7915 -0.1673 -0.1422
 3974SOL    HW112500   7.066   8.404   9.304 -1.3244 -0.4948 -0.1519
 3974SOL    HW212501   7.207   8.350   9.313 -0.8222  1.0474  2.1770
 3975SOL     OW12502   4.157   0.977   7.730 -0.4435  0.2533 -0.2136
 3975SOL    HW112503   4.244   0.947   7.757 -0.9580  0.1902  1.4873
 3975SOL    HW212504   4.121   0.903   7.681 -0.7670 -1.0844  1.8803
 3976SOL     OW12505   1.404   4.381   7.115  0.4887 -0.2466 -0.3928
 3976SOL    HW112506   1.331   4.319   7.123  0.3970 -0.2742 -1.3464
 3976SOL    HW212507   1.447   4.378   7.200 -0.9754  0.2161  0.4104
 3977SOL     OW12508   0.749   6.051   5.530 -0.0097 -0.7549  0.0587
 3977SOL    HW112509   0.718   6.010   5.450 -0.4149 -1.3451  0.5095
 3977SOL    HW212510   0.788   5.979   5.580  0.8936 -0.2667  0.0842
 3978SOL     OW12511   2.381   2.862   3.352 -0.5147 -0.5775  0.6023
 3978SOL    HW112512   2.348   2.951   3.366  0.9060  0.2638 -1.0222
 3978SOL    HW212513   2.303   2.806   3.361 -2.5420  1.2833 -2.9171
 3979SOL     OW12514   3.426   1.790   5.371 -0.0984 -0.4402 -0.1581
 3979SOL    HW112515   3.492   1.751   5.430  1.0025  1.5435  0.0175
 3979SOL    HW212516   3.368   1.838   5.429 -0.4088 -0.3935 -0.5071
 3980SOL     OW12517   2.072   5.295   2.875  0.6184 -0.2723  0.7359
 3980SOL    HW112518   1.981   5.304   2.901  0.3912 -0.2669 -0.0304
 3980SOL    HW212519   2.078   5.208   2.836  0.9127 -0.2254  0.6721
 3981SOL     OW12520   8.538   0.805   7.256  0.2915  0.2301 -0.1858
 3981SOL    HW112521   8.515   0.752   7.180 -0.4651  2.5873 -1.6989
 3981SOL    HW212522   8.617   0.763   7.291 -0.6219 -2.2324 -0.8581
 3982SOL     OW12523   9.961   3.589   9.321 -0.0663 -0.2544  0.0855
 3982SOL    HW112524   9.887   3.600   9.381 -1.1894 -0.8936 -1.1437
 3982SOL    HW212525   9.934   3.632   9.240  1.9675  1.8011  0.3806
 3983SOL     OW12526   7.741   4.288   9.743  0.0463  0.0062 -0.1369
 3983SOL    HW112527   7.833   4.277   9.768 -0.3882 -0.4001  1.4023
 3983SOL    HW212528   7.704   4.200   9.748 -0.4643  0.1840 -0.6199
 3984SOL     OW12529   5.011   1.620   7.463  0.2448  0.1503 -0.1134
 3984SOL    HW112530   5.032   1.528   7.478  0.0397  0.2226  0.6851
 3984SOL    HW212531   5.086   1.668   7.499 -0.7549  0.3717  1.8531
 3985SOL     OW12532   6.960   0.971   9.232  0.5019 -0.0265  0.1930
 3985SOL    HW112533   6.883   0.920   9.258  0.5188 -0.7751 -1.1523
 3985SOL    HW212534   6.929   1.062   9.227  0.3202  0.0395  1.9971
 3986SOL     OW12535   1.073   1.588   5.291  0.1102  0.1526  0.7627
 3986SOL    HW112536   1.063   1.508   5.343 -3.0470 -0.5063 -0.6239
 3986SOL    HW212537   1.111   1.558   5.209 -0.3958  0.1889  0.5132
 3987SOL     OW12538   7.700   2.340   8.223 -0.7103 -0.2061  0.1746
 3987SOL    HW112539   7.631   2.274   8.218 -1.5524  0.6413  0.1994
 3987SOL    HW212540   7.713   2.355   8.316  0.2835 -1.1265  0.2019
 3988SOL     OW12541   7.868   0.644   2.341  0.0253  0.5036  0.1149
 3988SOL    HW112542   7.878   0.678   2.252 -1.6792  0.0797 -0.2801
 3988SOL    HW212543   7.894   0.717   2.398 -0.5690  1.3959 -0.7226
 3989SOL     OW12544   6.387   5.235   8.768  0.3928 -0.3093 -0.5203
 3989SOL    HW112545   6.357   5.157   8.816 -0.1046 -0.5036 -1.1319
 3989SOL    HW212546   6.372   5.307   8.829 -0.8022 -0.4775 -0.5902
 3990SOL     OW12547   6.894   6.367   1.257 -0.0430 -0.0609 -0.2997
 3990SOL    HW112548   6.873   6.398   1.345  0.7394  0.4726 -0.2966
 3990SOL    HW212549   6.970   6.418   1.231 -0.7322  0.3490 -1.5982
 3991SOL     OW12550   2.519   9.685   4.770 -0.0053 -0.5768  0.3455
 3991SOL    HW112551   2.505   9.753   4.836  2.3723  0.5103 -0.1269
 3991SOL    HW212552   2.585   9.627   4.808 -1.4139 -2.2074  0.4103
 3992SOL     OW12553   6.099   1.026   6.952 -0.2231  0.2308 -0.0068
 3992SOL    HW112554   6.067   1.051   7.039  0.2528  1.3102 -0.1180
 3992SOL    HW212555   6.162   1.095   6.930  1.7101 -1.4815 -0.0632
 3993SOL     OW12556   5.569   2.147   2.573  0.2983  0.6025 -0.3903
 3993SOL    HW112557   5.506   2.122   2.506  0.1053 -0.2627  0.0979
 3993SOL    HW212558   5.553   2.086   2.645  0.9425  1.0916  0.1835
 3994SOL     OW12559   4.463   6.854   2.300  0.2232 -0.3477 -0.4560
 3994SOL    HW112560   4.430   6.765   2.290 -1.3203 -0.1726  2.2103
 3994SOL    HW212561   4.498   6.876   2.214 -1.3957 -2.6915 -1.8283
 3995SOL     OW12562   1.083   2.844   8.872  0.0304  0.4282 -0.1692
 3995SOL    HW112563   1.056   2.867   8.961 -0.5637  1.4242 -0.5930
 3995SOL    HW212564   1.001   2.822   8.828  0.4053 -0.8958 -0.2559
 3996SOL     OW12565   8.957   3.056   7.249 -0.7055 -0.3732 -0.3173
 3996SOL    HW112566   8.931   3.142   7.215 -0.5234 -0.4418 -0.6368
 3996SOL    HW212567   8.887   2.997   7.221 -1.7067 -0.0360  1.3633
 3997SOL     OW12568   4.754   5.160   7.266 -0.5994  0.2682  0.5065
 3997SOL    HW112569   4.795   5.093   7.322 -1.3968  0.1247  0.9329
 3997SOL    HW212570   4.826   5.219   7.244  0.5557 -1.6606 -1.3456
 3998SOL     OW12571   9.682   7.916   3.304 -0.3349  0.6399  0.1627
 3998SOL    HW112572   9.725   8.000   3.319  1.1811 -0.1506  0.3785
 3998SOL    HW212573   9.726   7.879   3.228 -0.8027 -0.0796  0.2294
 3999SOL     OW12574   3.972   1.713   0.483 -0.7456 -0.2327 -0.4835
 3999SOL    HW112575   3.900   1.764   0.446 -1.0538  0.3661  0.8731
 3999SOL    HW212576   3.994   1.759   0.564  0.9518 -0.5974 -0.7116
 4000SOL     OW12577   0.572   6.280   2.871  0.1633 -0.0832 -0.3615
 4000SOL    HW112578   0.479   6.286   2.888  0.0321 -1.0508 -0.6515
 4000SOL    HW212579   0.614   6.322   2.946 -0.4814 -1.0071  0.5429
 4001SOL     OW12580   0.305   7.451   9.877 -0.5672 -0.5362  0.1677
 4001SOL    HW112581   0.282   7.371   9.831  0.9124 -0.6837 -0.3834
 4001SOL    HW212582   0.400   7.446   9.888 -0.8396 -0.6642  3.5465
 4002SOL     OW12583   4.325   7.309   0.698 -0.7776 -0.1037 -0.2430
 4002SOL    HW112584   4.240   7.265   0.698  0.2970 -2.3714 -0.4983
 4002SOL    HW212585   4.377   7.259   0.635  1.5156 -0.4605  1.7719
 4003SOL     OW12586   9.954   3.056   8.206  0.1271  0.4480 -0.4165
 4003SOL    HW112587   9.963   3.110   8.285 -2.1135  0.3316 -0.0261
 4003SOL    HW212588  10.003   2.976   8.226 -1.3159 -0.0493  1.3434
 4004SOL     OW12589  -0.014   4.275   9.963 -0.0114  0.3429  0.6194
 4004SOL    HW112590   0.027   4.304   9.882 -1.6759 -0.3829 -0.5218
 4004SOL    HW212591  -0.010   4.352  10.020 -0.7323  1.5741 -0.9131
 4005SOL     OW12592   1.615   8.015   5.330 -0.3201 -0.3157  0.3325
 4005SOL    HW112593   1.692   8.031   5.384 -0.6171  2.1102  0.1516
 4005SOL    HW212594   1.549   8.076   5.362 -1.5372 -0.9921 -0.7612
 4006SOL     OW12595   8.251   7.273   6.480 -0.1686 -0.3226  0.0568
 4006SOL    HW112596   8.277   7.365   6.483  0.7566 -0.5512 -0.5588
 4006SOL    HW212597   8.319   7.227   6.530 -0.1274 -0.7791 -0.4158
 4007SOL     OW12598   1.029   4.935   3.852  0.1738  0.4886  0.0936
 4007SOL    HW112599   1.007   5.025   3.829 -1.2630  0.4473  1.1883
 4007SOL    HW212600   0.945   4.889   3.857  0.6126 -0.2033  2.3118
 4008SOL     OW12601   7.172   3.409   6.510 -0.0399 -0.3227  0.0363
 4008SOL    HW112602   7.111   3.477   6.485 -0.7077 -1.0464 -0.3524
 4008SOL    HW212603   7.249   3.424   6.455 -0.5511 -0.4451 -0.7171
 4009SOL     OW12604   7.369   8.275   1.588 -0.0408 -0.4038  0.5212
 4009SOL    HW112605   7.392   8.344   1.525  0.2662  1.8538  2.9314
 4009SOL    HW212606   7.440   8.212   1.581  1.3715  1.1155  0.3670
 4010SOL     OW12607   7.770   3.566   2.342 -0.3051 -0.0447 -0.3455
 4010SOL    HW112608   7.847   3.561   2.398 -0.4323  1.4279 -0.0036
 4010SOL    HW212609   7.745   3.474   2.327  0.9941 -0.5096  0.2287
 4011SOL     OW12610   1.075   4.530   8.333  0.1609 -0.4408  0.6645
 4011SOL    HW112611   1.147   4.543   8.270 -0.9609  0.5745 -0.4778
 4011SOL    HW212612   1.100   4.583   8.408  0.3387  0.4237  0.0194
 4012SOL     OW12613   4.738   8.506   7.389  0.0012  0.0371  0.0677
 4012SOL    HW112614   4.712   8.519   7.298 -0.1071 -0.4660  0.0266
 4012SOL    HW212615   4.736   8.411   7.402  0.5179  0.0723  0.4468
 4013SOL     OW12616   3.294   8.096   7.589 -0.5232 -0.1804 -0.6154
 4013SOL    HW112617   3.218   8.145   7.619 -1.6198 -0.9771 -1.9247
 4013SOL    HW212618   3.310   8.129   7.500  0.3307 -0.3847 -0.5457
 4014SOL     OW12619   5.576   2.146   6.715 -0.0226 -0.8744  1.0185
 4014SOL    HW112620   5.568   2.079   6.647 -3.3840 -0.1053  0.5067
 4014SOL    HW212621   5.512   2.213   6.691  2.0927  1.8311  2.3542
 4015SOL     OW12622   6.184   6.820   5.186  0.2131  0.4600 -0.1045
 4015SOL    HW112623   6.165   6.777   5.103  0.8718  0.0536 -0.0582
 4015SOL    HW212624   6.274   6.853   5.176  0.8541 -0.8345  0.9182
 4016SOL     OW12625   5.814   3.364   3.483 -0.4633  0.0266  0.2905
 4016SOL    HW112626   5.862   3.386   3.563  0.7519  0.4399 -0.5085
 4016SOL    HW212627   5.880   3.323   3.427 -1.1926  0.1036 -0.6470
 4017SOL     OW12628   6.489   2.542   7.044 -0.6347 -0.5354  0.4757
 4017SOL    HW112629   6.500   2.455   7.083  0.0018 -1.4157 -1.5190
 4017SOL    HW212630   6.464   2.524   6.953 -0.6799  1.3869  0.0710
 4018SOL     OW12631   3.086   3.082   3.095 -0.2338 -0.0789  0.2254
 4018SOL    HW112632   3.027   3.156   3.080 -1.3074 -0.7336  1.0757
 4018SOL    HW212633   3.068   3.055   3.185  1.5439 -0.1622  0.5797
 4019SOL     OW12634   1.889   8.766   5.469  0.2994 -0.9698  0.1824
 4019SOL    HW112635   1.875   8.859   5.452  2.8263 -0.6311 -0.4752
 4019SOL    HW212636   1.806   8.735   5.504 -1.4298  0.9729 -1.8961
 4020SOL     OW12637   3.580   5.779   8.844  0.3784 -0.1850 -0.0643
 4020SOL    HW112638   3.580   5.754   8.752 -0.2520 -0.0322 -0.1139
 4020SOL    HW212639   3.496   5.822   8.857  0.2534 -0.6242  0.6937
 4021SOL     OW12640   7.915   1.858   2.756  0.1574  0.0869  0.2060
 4021SOL    HW112641   7.822   1.872   2.737 -0.0746 -1.3174  0.2260
 4021SOL    HW212642   7.944   1.942   2.791 -0.9105  0.7924 -0.5212
 4022SOL     OW12643   2.614   5.575   7.358 -0.1039  0.1697  0.6830
 4022SOL    HW112644   2.590   5.493   7.400  2.0607 -1.2273 -0.6100
 4022SOL    HW212645   2.590   5.563   7.266 -2.2383  2.1157  0.8600
 4023SOL     OW12646   1.322   5.208   1.305 -0.2711 -0.0303 -0.1217
 4023SOL    HW112647   1.380   5.221   1.229 -0.3760 -3.1960 -0.8868
 4023SOL    HW212648   1.381   5.203   1.380  0.2597 -0.7149 -0.5633
 4024SOL     OW12649   2.909   3.881   3.834  0.5203  0.5909  0.0739
 4024SOL    HW112650   2.949   3.967   3.824 -0.0408  0.5804 -4.5674
 4024SOL    HW212651   2.983   3.820   3.833  0.7897  0.9020  0.7162
 4025SOL     OW12652   0.655   3.318   0.742  0.3831 -0.0024  0.0075
 4025SOL    HW112653   0.637   3.306   0.835 -0.1720 -1.5437 -0.2543
 4025SOL    HW212654   0.662   3.228   0.708 -0.0115  0.5182 -1.5275
 4026SOL     OW12655   6.296   6.211   8.580  0.8100 -1.0788  0.1042
 4026SOL    HW112656   6.271   6.277   8.517  1.4471 -0.4410  0.5046
 4026SOL    HW212657   6.319   6.134   8.527  0.7411 -0.7567 -0.3963
 4027SOL     OW12658   7.372   2.216   5.075 -0.0651  0.0019 -0.0466
 4027SOL    HW112659   7.391   2.289   5.017  1.5787  0.5302  1.0822
 4027SOL    HW212660   7.331   2.256   5.152  1.6389 -0.0781  0.9646
 4028SOL     OW12661   8.340   3.431   8.597  0.0671 -0.4099  0.6518
 4028SOL    HW112662   8.399   3.357   8.616 -1.5393 -1.4692  1.7371
 4028SOL    HW212663   8.388   3.508   8.626  1.6910 -1.0211 -0.2727
 4029SOL     OW12664   5.552   6.687   2.702 -0.2110 -0.0106  0.0387
 4029SOL    HW112665   5.628   6.644   2.661  1.2195  2.1483  0.2662
 4029SOL    HW212666   5.477   6.659   2.649  1.0933 -0.1303 -1.8470
 4030SOL     OW12667   5.900   2.028   5.784 -0.3973 -0.8812 -0.1678
 4030SOL    HW112668   5.839   1.964   5.821  1.0777 -1.8840  0.5861
 4030SOL    HW212669   5.911   2.094   5.853  1.5027 -2.1790  0.8450
 4031SOL     OW12670   1.133   1.488   9.925 -0.3330  0.3284 -0.1551
 4031SOL    HW112671   1.198   1.546   9.964  0.0715  0.2051 -0.6272
 4031SOL    HW212672   1.066   1.547   9.891  0.6822  0.6399 -1.7482
 4032SOL     OW12673   4.363   8.682   2.486 -0.1068  0.6225  0.4702
 4032SOL    HW112674   4.394   8.593   2.469 -0.8016  0.2996  0.8170
 4032SOL    HW212675   4.347   8.719   2.399  0.1717  0.4036  0.3249
 4033SOL     OW12676   6.880   2.260   9.828  0.4470  0.4576  0.0327
 4033SOL    HW112677   6.810   2.207   9.790 -0.5494  1.3515  0.5724
 4033SOL    HW212678   6.907   2.212   9.906  1.7715 -0.8458 -1.1711
 4034SOL     OW12679   0.185   1.796   4.487  0.3953  0.0846  0.0818
 4034SOL    HW112680   0.145   1.883   4.496  0.9008  0.1425  2.1427
 4034SOL    HW212681   0.270   1.813   4.446  0.0664  0.4337 -0.4650
 4035SOL     OW12682   0.129   2.175   7.659 -0.0823 -0.4887  0.4109
 4035SOL    HW112683   0.100   2.221   7.580 -1.6722 -1.8975  0.1031
 4035SOL    HW212684   0.195   2.113   7.627 -0.4956 -0.8400  0.2327
 4036SOL     OW12685   5.374   8.671   8.092  0.0316  0.3082  0.1379
 4036SOL    HW112686   5.311   8.735   8.128  0.4757  1.2623 -0.7504
 4036SOL    HW212687   5.391   8.701   8.003  0.1884 -1.1184 -0.3414
 4037SOL     OW12688   8.176   5.783   0.428  0.1239  0.4176  0.2087
 4037SOL    HW112689   8.161   5.799   0.335  0.5330  2.5268  0.4693
 4037SOL    HW212690   8.248   5.720   0.430 -0.1819  0.0054 -0.8814
 4038SOL     OW12691   0.632   2.336   1.097 -0.6433  0.5269 -0.0977
 4038SOL    HW112692   0.703   2.274   1.114  1.7988  2.9427 -0.7114
 4038SOL    HW212693   0.562   2.283   1.059  1.7046 -1.7187 -1.6127
 4039SOL     OW12694   0.890   0.735   0.781 -0.2014 -0.1041  0.2105
 4039SOL    HW112695   0.963   0.689   0.821  0.9229 -0.5397 -2.1615
 4039SOL    HW212696   0.846   0.669   0.728  0.1418  0.9797 -1.5388
 4040SOL     OW12697   6.082   8.476   2.865 -0.4908  0.2993  0.2050
 4040SOL    HW112698   6.068   8.382   2.850 -0.7111 -0.0384  2.1456
 4040SOL    HW212699   6.102   8.482   2.959  3.1577  1.8086 -0.4966
 4041SOL     OW12700   3.673   3.423   2.963  0.1398 -0.4773 -0.6657
 4041SOL    HW112701   3.580   3.434   2.982  0.0163 -1.5365 -0.5820
 4041SOL    HW212702   3.717   3.443   3.045  0.0408  0.6421 -0.8734
 4042SOL     OW12703   1.676   2.329   0.081  0.0366 -0.3879  0.1482
 4042SOL    HW112704   1.679   2.237   0.108  1.2292  0.1204  1.9331
 4042SOL    HW212705   1.735   2.333   0.005  0.5176 -0.9832  0.4775
 4043SOL     OW12706   7.575   9.082   0.176  0.3708  0.1593  0.2242
 4043SOL    HW112707   7.643   9.098   0.111  0.7768  1.4369  0.9287
 4043SOL    HW212708   7.509   9.031   0.129  1.8641 -1.2830 -0.4313
 4044SOL     OW12709   9.203   1.983   4.453  0.1581 -0.5613  0.7904
 4044SOL    HW112710   9.182   2.076   4.457 -1.9477 -0.9481  0.0609
 4044SOL    HW212711   9.269   1.975   4.384  0.8059  0.4310  1.2764
 4045SOL     OW12712   2.113   2.965   4.469  0.0720 -0.1089  0.2961
 4045SOL    HW112713   2.029   2.990   4.509  0.0406 -0.4672  0.4595
 4045SOL    HW212714   2.111   2.869   4.467 -0.1611 -0.0867 -1.0793
 4046SOL     OW12715   5.945   5.133   3.337 -0.0046  0.5254  0.4097
 4046SOL    HW112716   5.970   5.221   3.307 -1.4273  1.4355  1.7496
 4046SOL    HW212717   5.923   5.085   3.257  1.9861  0.9438 -0.4635
 4047SOL     OW12718   0.578   5.420   5.794 -0.1146 -0.4676 -0.2210
 4047SOL    HW112719   0.593   5.476   5.718 -3.2617 -0.3968 -0.9167
 4047SOL    HW212720   0.660   5.370   5.804  1.2845  1.3058 -2.0682
 4048SOL     OW12721   7.680   0.013   2.305 -0.0166  0.0747 -0.1008
 4048SOL    HW112722   7.678   0.059   2.221 -1.8510  0.7767  0.2766
 4048SOL    HW212723   7.644   0.076   2.367  0.8922 -0.5968  1.1374
 4049SOL     OW12724   6.176   7.167   7.376  0.0050 -1.0748  0.1725
 4049SOL    HW112725   6.261   7.212   7.380 -0.3020 -0.5296  0.7677
 4049SOL    HW212726   6.126   7.216   7.310 -0.8360  0.4084  1.8128
 4050SOL     OW12727   9.381   2.593   8.681  0.1670 -0.0136  0.0653
 4050SOL    HW112728   9.332   2.564   8.604 -0.6533  0.7312  0.2879
 4050SOL    HW212729   9.327   2.566   8.756  2.2144 -3.1493  0.5759
 4051SOL     OW12730   6.305   2.900   2.922  0.0839 -0.0096 -0.0478
 4051SOL    HW112731   6.291   2.809   2.894  0.2892 -0.1253  0.2152
 4051SOL    HW212732   6.345   2.892   3.008 -3.0196  0.3488  1.5584
 4052SOL     OW12733   2.823   6.326   0.513  0.5457 -0.1394  0.8993
 4052SOL    HW112734   2.738   6.343   0.554 -0.3618 -0.2468 -0.8151
 4052SOL    HW212735   2.861   6.412   0.499  0.6191 -0.0775  1.4600
 4053SOL     OW12736   8.087   9.188   6.473  0.2173 -0.5361  0.0981
 4053SOL    HW112737   8.077   9.143   6.556  0.7414  1.4849  1.3224
 4053SOL    HW212738   8.159   9.249   6.487  0.8101 -0.6374 -2.0885
 4054SOL     OW12739   3.853   5.727   7.292 -0.3994  0.2356 -0.1292
 4054SOL    HW112740   3.863   5.670   7.368  0.4272  0.0852 -0.3429
 4054SOL    HW212741   3.840   5.668   7.219  1.1395  0.2662 -0.4588
 4055SOL     OW12742   6.739   1.044   7.175 -0.3128 -0.0305  0.4654
 4055SOL    HW112743   6.753   1.127   7.128 -0.4608  0.5462  1.4227
 4055SOL    HW212744   6.645   1.042   7.192 -0.3822 -0.6265  0.0415
 4056SOL     OW12745   8.890   5.687   9.386 -0.3030 -0.4843 -0.3609
 4056SOL    HW112746   8.845   5.616   9.340  0.4765 -1.2518  0.0335
 4056SOL    HW212747   8.820   5.747   9.411 -0.7576 -0.1234 -2.3645
 4057SOL     OW12748   9.389   7.367   7.704 -0.1633 -0.6358  0.3807
 4057SOL    HW112749   9.465   7.420   7.684  0.5385 -2.0303 -0.8328
 4057SOL    HW212750   9.420   7.304   7.769 -0.3960 -0.9247  0.2140
 4058SOL     OW12751   1.363   9.657   6.298 -0.0929 -0.1818  0.1700
 4058SOL    HW112752   1.382   9.567   6.272  1.6873  0.1428  0.2304
 4058SOL    HW212753   1.339   9.701   6.216  1.9591 -0.0325 -0.4177
 4059SOL     OW12754   3.631   4.038   2.882 -0.5075 -0.0801 -0.4906
 4059SOL    HW112755   3.657   4.056   2.792  0.9670 -0.5462 -0.1851
 4059SOL    HW212756   3.577   3.959   2.877 -0.8780  0.2010 -1.0038
 4060SOL     OW12757   6.053   8.288   5.034 -0.5485  0.4311 -0.0346
 4060SOL    HW112758   6.141   8.327   5.036  0.1831 -1.1679  1.2734
 4060SOL    HW212759   6.030   8.285   4.941  1.3109 -0.2042 -0.5202
 4061SOL     OW12760   7.850   3.748   8.284  0.0699 -0.0177  0.2582
 4061SOL    HW112761   7.824   3.676   8.341  1.3298 -0.5312  0.2297
 4061SOL    HW212762   7.768   3.787   8.255 -0.6403 -1.4831  0.2200
 4062SOL     OW12763   5.445   0.702   9.573  0.5241  0.2650 -0.4037
 4062SOL    HW112764   5.357   0.739   9.576  0.4727  0.2317 -1.2448
 4062SOL    HW212765   5.502   0.778   9.562  0.7393  0.4310  1.5586
 4063SOL     OW12766   0.659   9.490   3.468 -0.4971  0.3710 -0.3625
 4063SOL    HW112767   0.667   9.574   3.423 -0.4292  0.1549 -0.7538
 4063SOL    HW212768   0.692   9.426   3.406  0.4909  0.1719  0.3534
 4064SOL     OW12769   5.405   2.498   1.120  0.3358  0.3074  0.4458
 4064SOL    HW112770   5.424   2.499   1.214 -0.0105 -0.4612  0.5339
 4064SOL    HW212771   5.311   2.514   1.114  0.5039  1.2854  0.1651
 4065SOL     OW12772   0.495   1.494   3.349 -0.3094  0.4779 -0.1532
 4065SOL    HW112773   0.509   1.490   3.254  0.3662  1.4629 -0.1027
 4065SOL    HW212774   0.575   1.460   3.387 -0.2659  0.8232  0.0695
 4066SOL     OW12775   5.716   4.625   9.814  0.0920 -0.2321 -0.1897
 4066SOL    HW112776   5.778   4.582   9.755 -0.0165  1.1064 -1.3547
 4066SOL    HW212777   5.638   4.570   9.810 -0.1591  0.1787 -1.9000
 4067SOL     OW12778   8.338   4.203   5.692  0.2698  0.2546 -0.4016
 4067SOL    HW112779   8.378   4.272   5.640  2.5428 -0.5886  0.1044
 4067SOL    HW212780   8.253   4.238   5.717  0.0958  1.6307 -2.6359
 4068SOL     OW12781   5.882   7.440   4.264 -0.0199  0.2585 -0.2156
 4068SOL    HW112782   5.889   7.378   4.337 -3.5480 -0.8461 -0.5952
 4068SOL    HW212783   5.946   7.409   4.200  0.2611 -1.3004  0.7616
 4069SOL     OW12784   3.310   9.434   4.220  0.2125  0.4685  0.4090
 4069SOL    HW112785   3.377   9.499   4.198 -0.6189  0.9499 -0.8161
 4069SOL    HW212786   3.331   9.408   4.309  0.8802  2.0396  0.7498
 4070SOL     OW12787   8.631   0.610   7.972  0.1036 -0.3179 -0.0943
 4070SOL    HW112788   8.593   0.593   8.058 -0.1762  0.8109  0.0249
 4070SOL    HW212789   8.724   0.594   7.984 -0.0985 -1.4007  0.0802
 4071SOL     OW12790   5.657   1.614   1.346  0.1863 -0.0386 -0.3435
 4071SOL    HW112791   5.589   1.546   1.349  0.3340 -0.3445 -2.5193
 4071SOL    HW212792   5.618   1.685   1.296  1.6947 -0.5585 -2.3919
 4072SOL     OW12793   3.379   9.150   9.445  0.2186 -0.2067  0.0734
 4072SOL    HW112794   3.471   9.126   9.446  0.1264 -0.5803 -0.2219
 4072SOL    HW212795   3.345   9.116   9.528  0.6089  0.9986  0.7394
 4073SOL     OW12796   6.691   4.152   5.328 -0.0501  0.0083  0.4024
 4073SOL    HW112797   6.707   4.238   5.369 -2.6673 -0.1515  1.9535
 4073SOL    HW212798   6.743   4.154   5.248 -0.4125  3.2674  0.1111
 4074SOL     OW12799   8.001   1.000   3.208  0.4792 -0.2290 -0.5136
 4074SOL    HW112800   7.950   0.997   3.290  0.5487  1.6400 -0.3529
 4074SOL    HW212801   7.957   1.067   3.156  0.0826 -1.8099 -2.2975
 4075SOL     OW12802   2.749   5.986   5.477 -0.3672  0.0051  0.3856
 4075SOL    HW112803   2.664   5.996   5.434 -0.1640  0.2178  0.0310
 4075SOL    HW212804   2.796   5.922   5.423 -0.5329 -0.5905  0.9357
 4076SOL     OW12805   5.065   2.373   7.987  0.0942  0.0170 -0.1819
 4076SOL    HW112806   5.137   2.427   8.017  0.5477 -0.6945  0.0354
 4076SOL    HW212807   5.104   2.316   7.920 -0.5462  0.4845 -0.9721
 4077SOL     OW12808   6.488   5.878   9.825  0.2233  0.2856 -0.1657
 4077SOL    HW112809   6.396   5.864   9.803 -0.0771  2.2533 -0.3502
 4077SOL    HW212810   6.486   5.905   9.917  0.4396  1.6773 -0.5442
 4078SOL     OW12811   6.934   0.387   5.235 -0.4219 -0.4137 -0.3345
 4078SOL    HW112812   6.980   0.458   5.279 -1.7172  0.8375 -0.9174
 4078SOL    HW212813   6.908   0.328   5.306 -1.4919  0.9839  0.4937
 4079SOL     OW12814   1.120   4.718   5.084  0.6244  0.1680 -0.2966
 4079SOL    HW112815   1.162   4.678   5.161  0.7357 -0.7842 -0.8426
 4079SOL    HW212816   1.180   4.788   5.058  1.4726 -0.6410 -0.5640
 4080SOL     OW12817   0.622   5.235   5.476  0.8658  0.8716 -0.1764
 4080SOL    HW112818   0.675   5.301   5.432  1.0350  0.4617 -0.5926
 4080SOL    HW212819   0.532   5.257   5.452  0.9341  0.8519 -0.4543
 4081SOL     OW12820   7.039   4.829   1.619 -0.2986  0.0462  0.4022
 4081SOL    HW112821   7.043   4.741   1.580  0.8813  0.3987 -0.2999
 4081SOL    HW212822   6.954   4.831   1.664 -0.0430 -1.7147  1.0548
 4082SOL     OW12823   8.421   2.336   2.316 -0.3600 -0.6253  0.3409
 4082SOL    HW112824   8.388   2.423   2.293  0.6200 -0.4459 -0.4692
 4082SOL    HW212825   8.367   2.309   2.390 -0.8626  0.5590  0.4368
 4083SOL     OW12826   2.432   6.800   3.355 -0.2260 -0.1762  0.0739
 4083SOL    HW112827   2.503   6.740   3.377  0.8143  1.5413  1.6308
 4083SOL    HW212828   2.457   6.837   3.270 -0.5295 -1.3918 -0.5593
 4084SOL     OW12829   5.650   1.082   1.041  0.4835  0.1773 -0.7940
 4084SOL    HW112830   5.609   1.101   0.956  0.4750  1.6320 -0.4947
 4084SOL    HW212831   5.577   1.078   1.103  0.2641 -2.8459 -1.0864
 4085SOL     OW12832   9.703   7.566   8.174 -0.1074  0.3934 -0.8691
 4085SOL    HW112833   9.796   7.548   8.159  0.2845  2.1169 -0.6459
 4085SOL    HW212834   9.659   7.486   8.145  1.4814 -0.7438 -0.2806
 4086SOL     OW12835   2.617   3.599   0.182 -0.0834  0.2622  0.7022
 4086SOL    HW112836   2.557   3.525   0.173  0.1500  0.1167  0.2883
 4086SOL    HW212837   2.560   3.676   0.184 -0.2448  0.1960 -0.6174
 4087SOL     OW12838   1.708   6.860   4.070 -0.8844 -0.4525  0.2215
 4087SOL    HW112839   1.743   6.948   4.088 -0.9138 -0.1170 -1.2080
 4087SOL    HW212840   1.749   6.804   4.135  1.8601  0.0371 -0.9460
 4088SOL     OW12841   8.520   1.213   4.897 -0.2086  0.2777 -0.4276
 4088SOL    HW112842   8.545   1.267   4.822  1.8465 -0.0571 -0.0417
 4088SOL    HW212843   8.444   1.163   4.866 -0.2628  1.1582 -1.8013
 4089SOL     OW12844   0.154   5.907   0.506  0.4979  0.1382  0.7043
 4089SOL    HW112845   0.237   5.939   0.543  1.5591 -1.3065 -0.3336
 4089SOL    HW212846   0.122   5.980   0.453  1.9830  0.1524 -0.2187
 4090SOL     OW12847   5.869   4.374   7.746 -0.2761 -0.2427 -0.5643
 4090SOL    HW112848   5.795   4.402   7.692  1.3907  2.1328 -1.8027
 4090SOL    HW212849   5.873   4.439   7.816 -1.4653 -2.4205  1.7074
 4091SOL     OW12850   4.317   3.761   5.831  0.6852  0.1946  0.2283
 4091SOL    HW112851   4.390   3.781   5.773 -0.2282  0.1053 -0.9866
 4091SOL    HW212852   4.247   3.820   5.803 -0.3116 -1.0031  0.1237
 4092SOL     OW12853   1.989   8.204   7.193  0.2305  0.3534 -0.0696
 4092SOL    HW112854   1.916   8.177   7.249 -0.4664 -0.6601 -1.3945
 4092SOL    HW212855   2.026   8.281   7.237  1.6902 -2.0675  3.4147
 4093SOL     OW12856   6.571   5.984   0.339 -0.0734 -0.1689 -0.1617
 4093SOL    HW112857   6.601   6.068   0.374  1.0998  0.3255 -2.2300
 4093SOL    HW212858   6.518   5.946   0.410 -0.4137  2.1691  0.9102
 4094SOL     OW12859   2.331   3.602   1.275  0.2712  0.2062  0.3668
 4094SOL    HW112860   2.255   3.645   1.237  1.2219  0.8418 -0.8746
 4094SOL    HW212861   2.358   3.659   1.347 -0.8576 -0.4225  1.3320
 4095SOL     OW12862   5.423   1.132   0.186 -0.1779 -0.3862  0.6157
 4095SOL    HW112863   5.494   1.154   0.125 -0.2557 -1.4103  0.1339
 4095SOL    HW212864   5.414   1.210   0.241 -0.3820  0.7423 -0.9429
 4096SOL     OW12865   7.251   8.285   5.427 -0.0066  0.8000  0.3904
 4096SOL    HW112866   7.333   8.305   5.382  0.1465  0.1185  0.3646
 4096SOL    HW212867   7.276   8.232   5.502 -0.3976  0.7982  0.5250
 4097SOL     OW12868   6.128   3.945   3.413 -0.1821  0.2655 -0.1620
 4097SOL    HW112869   6.041   3.932   3.375  0.3542 -0.6403 -1.1516
 4097SOL    HW212870   6.178   3.988   3.344  0.3136  0.2539  0.1858
 4098SOL     OW12871   6.504   1.466   0.938  0.3495  0.1315 -0.0788
 4098SOL    HW112872   6.492   1.485   1.031  0.8483  0.2185 -0.0307
 4098SOL    HW212873   6.563   1.391   0.936 -2.2922 -2.1129 -0.2387
 4099SOL     OW12874   6.249   2.741   6.266 -0.3753  0.4489  0.8818
 4099SOL    HW112875   6.263   2.721   6.173  0.2079  1.0410  0.8294
 4099SOL    HW212876   6.177   2.684   6.292  0.1892 -0.5585  0.3508
 4100SOL     OW12877   0.308   0.206   7.037  0.2829  0.0613 -0.2823
 4100SOL    HW112878   0.332   0.230   7.127  0.4953  1.0450 -0.5847
 4100SOL    HW212879   0.386   0.164   7.001  0.5815  0.6481 -0.3408
 4101SOL     OW12880   7.511   5.426   6.720  0.5280 -0.6090 -0.1718
 4101SOL    HW112881   7.590   5.431   6.667  0.1736 -0.9700 -0.7466
 4101SOL    HW212882   7.508   5.336   6.752  0.1205 -0.7266 -0.5240
 4102SOL     OW12883   3.837   5.897   3.312 -0.2959 -0.0848  0.2378
 4102SOL    HW112884   3.871   5.820   3.267 -1.1115 -0.4516  0.2387
 4102SOL    HW212885   3.800   5.951   3.242 -3.1503 -1.4560  0.5651
 4103SOL     OW12886   1.415   2.184   9.877  0.2902 -0.1970  0.0529
 4103SOL    HW112887   1.480   2.235   9.925 -0.6580 -0.2398  1.4140
 4103SOL    HW212888   1.404   2.231   9.794 -0.4707  1.7689  1.2142
 4104SOL     OW12889   1.489   5.264   1.506 -0.2335 -0.5143  0.0362
 4104SOL    HW112890   1.536   5.343   1.534 -0.2863 -0.7801  0.9324
 4104SOL    HW212891   1.518   5.197   1.568 -1.3218 -0.8280  0.2239
 4105SOL     OW12892   1.573   6.095   5.871  0.1898 -0.0063  0.2511
 4105SOL    HW112893   1.660   6.059   5.884  1.1612  0.8009 -3.1387
 4105SOL    HW212894   1.526   6.027   5.822 -0.2114  0.5889 -0.2065
 4106SOL     OW12895   3.571   2.850   0.612 -0.3146  0.0707  0.3187
 4106SOL    HW112896   3.595   2.911   0.542 -0.7505 -1.6868 -1.4620
 4106SOL    HW212897   3.526   2.904   0.677  0.1248  1.7788 -0.7336
 4107SOL     OW12898   0.893   5.153   9.538 -0.1855 -0.0221 -0.2960
 4107SOL    HW112899   0.985   5.169   9.519  0.5482 -2.5167  0.7616
 4107SOL    HW212900   0.882   5.059   9.527 -2.3137  0.0280  0.8230
 4108SOL     OW12901   7.157   0.424   1.650 -0.4518 -0.3096  0.4560
 4108SOL    HW112902   7.187   0.350   1.597 -1.9896  1.2691 -2.9509
 4108SOL    HW212903   7.235   0.480   1.659  0.2598 -1.4239  1.4529
 4109SOL     OW12904   8.732   6.147   8.153 -0.1056 -0.6239  0.0503
 4109SOL    HW112905   8.694   6.184   8.074  0.3164  0.9419  0.5541
 4109SOL    HW212906   8.746   6.055   8.132  0.7518 -0.0655 -1.9838
 4110SOL     OW12907   2.403   4.589   0.278  0.1832  0.0567 -0.7393
 4110SOL    HW112908   2.412   4.637   0.196 -1.7357 -1.4860 -1.9551
 4110SOL    HW212909   2.324   4.537   0.266  0.5262 -1.1437  1.6516
 4111SOL     OW12910   5.218   5.142   5.547  0.2532  0.2951 -0.0897
 4111SOL    HW112911   5.222   5.048   5.528 -1.8205  0.3314 -1.0450
 4111SOL    HW212912   5.198   5.146   5.641  2.1224 -0.1412  0.3527
 4112SOL     OW12913   8.634   6.362   6.017 -0.1800 -0.3696 -0.0740
 4112SOL    HW112914   8.572   6.320   5.958  0.0406  0.5232 -0.9739
 4112SOL    HW212915   8.649   6.448   5.978  0.3475  0.0600  1.0309
 4113SOL     OW12916   5.308   9.866   3.084 -0.2648  1.0360  0.1166
 4113SOL    HW112917   5.256   9.925   3.139  1.5272  0.9305  2.0427
 4113SOL    HW212918   5.372   9.827   3.144 -0.8494 -2.3240 -1.2209
 4114SOL     OW12919   0.611   8.205   3.568  0.4135  0.0981  0.1567
 4114SOL    HW112920   0.683   8.233   3.625  1.5042  0.6907 -1.4432
 4114SOL    HW212921   0.610   8.110   3.574  0.1797  0.1734  1.5280
 4115SOL     OW12922   5.050   7.652   5.162 -0.3198  0.2440 -0.4643
 4115SOL    HW112923   5.033   7.722   5.225  0.4571 -0.1036  0.1407
 4115SOL    HW212924   5.126   7.605   5.197 -1.4927 -1.6144 -0.2490
 4116SOL     OW12925   5.566   4.004   2.412 -0.4824  0.1025 -0.0708
 4116SOL    HW112926   5.615   3.927   2.383  1.4069  0.9194  0.7632
 4116SOL    HW212927   5.475   3.984   2.391 -0.0937 -2.4770  0.3413
 4117SOL     OW12928   6.126   8.474   6.959  0.1904 -0.2764 -0.2616
 4117SOL    HW112929   6.130   8.392   6.909 -3.0409 -0.7292 -0.0081
 4117SOL    HW212930   6.136   8.447   7.050 -0.6071 -0.4094 -0.2006
 4118SOL     OW12931   5.616   1.386   6.550 -0.1730 -0.2928  0.0734
 4118SOL    HW112932   5.709   1.365   6.563 -0.3843 -0.5948  1.2567
 4118SOL    HW212933   5.604   1.471   6.593  0.2466  1.4674 -2.9946
 4119SOL     OW12934   4.242   5.132   6.873 -0.0125  0.9078 -0.6599
 4119SOL    HW112935   4.149   5.125   6.893  0.5409  1.5830  2.8678
 4119SOL    HW212936   4.274   5.042   6.877 -0.6839  0.4264 -3.6869
 4120SOL     OW12937   5.818   0.662   9.623 -0.0876 -0.3440  0.7151
 4120SOL    HW112938   5.884   0.602   9.658 -0.0170 -0.5089  0.3153
 4120SOL    HW212939   5.751   0.604   9.586  1.3075 -0.2686 -2.2193
 4121SOL     OW12940   9.051   7.575   7.720 -0.2135  0.1766  0.1566
 4121SOL    HW112941   9.014   7.641   7.778  0.4045  0.5515  0.1308
 4121SOL    HW212942   9.081   7.506   7.778 -0.3379  0.1746  0.2198
 4122SOL     OW12943   5.412   7.171   9.998  0.2355  0.3435 -0.0236
 4122SOL    HW112944   5.454   7.240   9.946  2.5459 -1.3435 -0.5729
 4122SOL    HW212945   5.343   7.136   9.942  2.6353 -1.4052 -2.1084
 4123SOL     OW12946   6.678   2.361   3.236  0.1627 -0.2693 -0.1044
 4123SOL    HW112947   6.749   2.311   3.197  0.1262  0.1534 -0.7243
 4123SOL    HW212948   6.609   2.297   3.251  1.0671 -0.9079  1.5603
 4124SOL     OW12949   7.129   8.647   7.964 -0.0463 -0.5339 -0.3990
 4124SOL    HW112950   7.081   8.719   7.924  1.4411  0.0258 -1.2475
 4124SOL    HW212951   7.102   8.649   8.056 -0.2856  0.9039 -0.4740
 4125SOL     OW12952   5.560   9.246   0.298 -0.8129 -0.1667  0.7367
 4125SOL    HW112953   5.497   9.242   0.370  0.6581 -1.7108  2.0239
 4125SOL    HW212954   5.580   9.339   0.288 -2.4961  0.2418  0.9850
 4126SOL     OW12955   1.119   5.826   5.442  0.6117  0.7693  0.1013
 4126SOL    HW112956   1.122   5.845   5.348 -0.9261  0.2145 -0.0829
 4126SOL    HW212957   1.112   5.731   5.448 -2.1212  0.9182  0.6293
 4127SOL     OW12958   4.137   1.151   4.135  0.2328 -0.2363 -0.1428
 4127SOL    HW112959   4.200   1.216   4.105  1.7231 -1.3108  0.5440
 4127SOL    HW212960   4.060   1.164   4.078  1.3454  0.5997 -1.5150
 4128SOL     OW12961   4.267   6.852   3.057  0.5493  0.1989  0.0593
 4128SOL    HW112962   4.224   6.770   3.032  0.1048  0.4154  0.0929
 4128SOL    HW212963   4.287   6.895   2.974  0.4461  0.2219  0.0454
 4129SOL     OW12964   5.254   0.698   6.446  0.1813 -0.2508  0.1823
 4129SOL    HW112965   5.200   0.764   6.489 -1.3282 -0.6642 -0.9621
 4129SOL    HW212966   5.317   0.747   6.394 -1.7614  0.4028 -1.7071
 4130SOL     OW12967   2.526   1.071   4.953 -0.1116 -0.1764 -0.5241
 4130SOL    HW112968   2.571   1.109   5.029  0.4682 -1.6368 -0.0947
 4130SOL    HW212969   2.552   1.127   4.880  0.7108  0.2581  0.0789
 4131SOL     OW12970   3.538   9.102   3.506  0.3836  0.2164  0.2088
 4131SOL    HW112971   3.582   9.070   3.585  1.5981  2.5179  0.5473
 4131SOL    HW212972   3.465   9.155   3.539  0.6352  0.8339 -0.2149
 4132SOL     OW12973   8.369   4.590   1.824 -0.6118  0.4036 -0.0443
 4132SOL    HW112974   8.302   4.572   1.890 -0.1118  1.2858  0.7208
 4132SOL    HW212975   8.323   4.579   1.740 -1.6003  0.5765  0.4634
 4133SOL     OW12976   3.028   8.822   2.120  0.3142 -0.4360  0.5761
 4133SOL    HW112977   3.019   8.873   2.039 -0.7772  1.1370  1.6224
 4133SOL    HW212978   3.112   8.778   2.111  0.5287  0.2368 -1.1230
 4134SOL     OW12979   9.468   4.342   2.783 -0.1049  0.4123 -0.0854
 4134SOL    HW112980   9.521   4.351   2.862 -0.1925 -0.0144  0.0241
 4134SOL    HW212981   9.435   4.252   2.786  1.1032 -0.1078 -1.3675
 4135SOL     OW12982   7.057   1.343   5.585  0.6685 -0.2490 -0.5077
 4135SOL    HW112983   7.063   1.425   5.633 -0.8972 -0.1631 -0.4058
 4135SOL    HW212984   7.144   1.304   5.593  0.5249 -0.2254  2.3818
 4136SOL     OW12985   4.443   4.667   3.981 -0.1510  0.5363 -0.3561
 4136SOL    HW112986   4.372   4.715   4.024  0.0864  0.8452 -0.2974
 4136SOL    HW212987   4.403   4.587   3.950 -0.3607  0.3685  0.3241
 4137SOL     OW12988   0.975   7.321   5.427 -0.0881  0.2383  0.0440
 4137SOL    HW112989   1.042   7.293   5.490 -0.3309 -0.9095 -0.1963
 4137SOL    HW212990   1.006   7.288   5.343 -0.7154  0.1229 -0.1460
 4138SOL     OW12991   7.750   2.101   1.670 -0.1075 -0.0222 -0.7748
 4138SOL    HW112992   7.805   2.024   1.662  0.5188  0.5210 -1.7866
 4138SOL    HW212993   7.771   2.155   1.594 -1.1965  0.7315 -0.5739
 4139SOL     OW12994   0.837   7.295   0.506 -0.0105 -0.1153 -0.7289
 4139SOL    HW112995   0.802   7.383   0.490  1.2255  0.4797 -0.2965
 4139SOL    HW212996   0.928   7.300   0.477  0.3196 -1.0104  0.0961
 4140SOL     OW12997   6.559   1.136   2.478 -0.3050 -0.0530  0.3350
 4140SOL    HW112998   6.527   1.225   2.467  1.2368  0.3728 -1.0065
 4140SOL    HW212999   6.526   1.089   2.401  2.3761  0.4837 -1.2825
 4141SOL     OW13000   1.696   7.163   0.794  0.3307 -0.1689 -0.4771
 4141SOL    HW113001   1.683   7.092   0.857 -2.4628 -0.1561 -0.8943
 4141SOL    HW213002   1.675   7.123   0.709 -1.9945  1.2159 -0.6440
 4142SOL     OW13003   5.971   8.649   5.537  0.3389  0.4116 -0.5845
 4142SOL    HW113004   5.952   8.556   5.529  0.9225  0.1518  0.7435
 4142SOL    HW213005   5.936   8.688   5.457  0.5160 -1.0108 -1.3895
 4143SOL     OW13006   7.002   0.552   3.013 -0.0589 -0.5388 -0.2722
 4143SOL    HW113007   6.931   0.614   3.030 -0.6811 -1.2264 -0.2749
 4143SOL    HW213008   7.055   0.554   3.092 -0.8861 -1.0407  0.3168
 4144SOL     OW13009   7.955   8.986   8.201  0.1180  0.4058  0.7223
 4144SOL    HW113010   7.873   9.016   8.161  0.3060  0.9917  0.7594
 4144SOL    HW213011   8.010   9.064   8.202 -0.2517  0.7211  3.1166
 4145SOL     OW13012   1.827   0.355   5.126  0.2469 -0.6771  0.0472
 4145SOL    HW113013   1.852   0.297   5.198 -0.6253 -1.8069 -0.5408
 4145SOL    HW213014   1.788   0.298   5.060  1.2801  0.2965 -1.4747
 4146SOL     OW13015   2.902   3.325   1.576  0.1635  0.3387 -0.0242
 4146SOL    HW113016   2.919   3.332   1.670 -0.3061 -0.4316  0.1273
 4146SOL    HW213017   2.895   3.230   1.560  0.5031  0.4500 -0.8824
 4147SOL     OW13018   6.601   9.126   8.012  0.9135  0.7119  0.4961
 4147SOL    HW113019   6.603   9.173   7.928 -0.6141  1.8334  1.0405
 4147SOL    HW213020   6.669   9.059   8.003  2.1372  2.0439 -0.8936
 4148SOL     OW13021   4.789   1.294   4.473  0.0508 -0.2290  0.5010
 4148SOL    HW113022   4.728   1.367   4.462 -0.2021 -0.4832  0.1567
 4148SOL    HW213023   4.799   1.258   4.384  0.2423 -0.5502  0.6514
 4149SOL     OW13024   6.023   7.022   0.097  0.0644  0.6227  0.2212
 4149SOL    HW113025   6.033   7.105   0.051  1.0843  0.0584 -0.6322
 4149SOL    HW213026   6.113   6.995   0.118 -0.1993 -0.5378 -0.0483
 4150SOL     OW13027   8.444   2.882   6.976 -0.4609  0.3811 -0.1879
 4150SOL    HW113028   8.496   2.814   6.933 -1.6594 -0.8205  0.2002
 4150SOL    HW213029   8.409   2.839   7.054  0.5637  2.1162  1.3036
 4151SOL     OW13030   8.437   3.156   0.641 -0.1669  0.3048  0.2025
 4151SOL    HW113031   8.482   3.154   0.557 -0.8933  0.7162 -0.2095
 4151SOL    HW213032   8.404   3.246   0.649 -0.7652  0.0636  0.5596
 4152SOL     OW13033   6.160   6.756   9.665  0.2005 -0.3304 -0.1122
 4152SOL    HW113034   6.138   6.840   9.707  2.8350 -0.5128  1.9087
 4152SOL    HW213035   6.235   6.777   9.609  0.6810 -1.2725  0.1642
 4153SOL     OW13036   6.996   6.142   5.656  0.1293 -0.4576  0.2747
 4153SOL    HW113037   7.013   6.098   5.572 -0.1508  0.5149 -0.3071
 4153SOL    HW213038   6.980   6.233   5.632  1.2117  0.0782  1.5143
 4154SOL     OW13039   1.079   2.891   9.199  0.9362  0.0276  0.9617
 4154SOL    HW113040   1.127   2.909   9.280  1.0753 -0.6216  1.0257
 4154SOL    HW213041   1.012   2.959   9.195  1.5659  0.6631  1.1089
 4155SOL     OW13042   9.617   6.345   2.918 -0.8849  0.5350 -0.1522
 4155SOL    HW113043   9.656   6.407   2.981 -1.7355  0.7406  0.1857
 4155SOL    HW213044   9.662   6.262   2.935  2.9329  1.7200 -3.0073
 4156SOL     OW13045   6.544   3.246   6.559 -0.2547 -0.2523 -0.2005
 4156SOL    HW113046   6.485   3.244   6.483  0.1937 -1.1336 -0.5439
 4156SOL    HW213047   6.513   3.174   6.615 -0.0409 -0.1644  0.0351
 4157SOL     OW13048   2.612   1.820   2.657  0.5022 -0.1668 -0.3182
 4157SOL    HW113049   2.630   1.900   2.707  1.6308 -1.2595  1.0937
 4157SOL    HW213050   2.684   1.815   2.594  1.7277 -1.1825  1.0819
 4158SOL     OW13051   5.406   1.360   6.359 -0.1224  0.1150 -0.1343
 4158SOL    HW113052   5.467   1.354   6.432  0.1736  2.1716 -0.1406
 4158SOL    HW213053   5.332   1.411   6.394 -0.6203 -0.0924 -0.8583
 4159SOL     OW13054   9.854   2.598   1.215  0.5374  0.1872 -0.3401
 4159SOL    HW113055   9.908   2.602   1.294 -0.1626 -1.3605  0.2501
 4159SOL    HW213056   9.765   2.615   1.246  0.1476 -1.2244 -0.6560
 4160SOL     OW13057   5.401   5.660   8.977  0.4339  0.0783  0.0727
 4160SOL    HW113058   5.423   5.744   9.015  0.8074 -0.4822  1.1386
 4160SOL    HW213059   5.418   5.670   8.883 -1.1634  1.7108 -0.1015
 4161SOL     OW13060   6.431   9.293   0.394 -0.0162 -0.1427  0.0062
 4161SOL    HW113061   6.381   9.211   0.401 -0.4423  0.1847  0.8697
 4161SOL    HW213062   6.371   9.361   0.424 -0.2729  0.7499 -2.2930
 4162SOL     OW13063   0.353   9.231   5.217 -0.3222 -0.1890 -0.1884
 4162SOL    HW113064   0.374   9.208   5.307  0.5719 -0.5382 -0.4795
 4162SOL    HW213065   0.385   9.320   5.207  2.5468 -1.2189 -1.0733
 4163SOL     OW13066   6.364   7.038   0.187 -0.1454  0.0526 -0.4528
 4163SOL    HW113067   6.434   7.059   0.249 -1.2794  0.1242  0.8439
 4163SOL    HW213068   6.386   7.088   0.109  0.6966  0.9003  0.2962
 4164SOL     OW13069   6.910   2.753   9.286  0.1516  0.6496 -0.2642
 4164SOL    HW113070   6.897   2.671   9.334  0.0786  0.5121 -0.5161
 4164SOL    HW213071   6.862   2.818   9.336 -0.1430  0.4553 -0.2932
 4165SOL     OW13072   6.779   4.842   2.853  0.2786  0.1767 -0.0295
 4165SOL    HW113073   6.712   4.899   2.892  1.4701  1.6976 -0.1050
 4165SOL    HW213074   6.849   4.840   2.918  1.7648  1.7368 -1.4977
 4166SOL     OW13075   9.367   9.757   6.310 -0.0280  0.3184  0.4507
 4166SOL    HW113076   9.427   9.700   6.263  1.0617  1.8509 -0.0961
 4166SOL    HW213077   9.322   9.700   6.372  0.6633 -1.1919 -0.4005
 4167SOL     OW13078   5.647   5.540   5.873 -0.0914  0.4075 -1.0683
 4167SOL    HW113079   5.697   5.620   5.888  0.1985  0.3788 -1.8370
 4167SOL    HW213080   5.654   5.491   5.955 -2.7981  2.4892  0.5924
 4168SOL     OW13081   9.853   3.261   7.642  1.1788 -0.1578  0.6674
 4168SOL    HW113082   9.906   3.208   7.582 -0.6058 -0.9945 -0.2484
 4168SOL    HW213083   9.768   3.268   7.598  0.2191  0.3185  2.5195
 4169SOL     OW13084   9.876   6.845   5.868  0.0832 -0.0721 -0.2801
 4169SOL    HW113085   9.858   6.833   5.961  1.5762 -1.6815 -0.1491
 4169SOL    HW213086   9.837   6.930   5.846 -2.1009 -0.5973  1.3086
 4170SOL     OW13087   1.339   8.728   0.581  0.1790 -0.3914 -0.1975
 4170SOL    HW113088   1.345   8.784   0.504 -1.2255  0.4179  0.2510
 4170SOL    HW213089   1.248   8.699   0.583  0.4046 -1.1073  0.6814
 4171SOL     OW13090   0.939   8.796   7.883 -0.0792  0.2861 -0.6360
 4171SOL    HW113091   0.877   8.815   7.813  0.1262  1.0751 -0.6116
 4171SOL    HW213092   0.902   8.837   7.960 -0.7928 -1.3921 -0.0372
 4172SOL     OW13093   8.901   4.030   9.130  0.0646  0.3715 -0.0706
 4172SOL    HW113094   8.917   3.936   9.120 -0.4770  0.2740 -0.0717
 4172SOL    HW213095   8.971   4.060   9.188 -0.5171 -0.2971  1.0218
 4173SOL     OW13096   5.428   8.198   0.569  0.2037  0.6634 -0.1844
 4173SOL    HW113097   5.482   8.156   0.502  0.5597  1.2821 -0.2838
 4173SOL    HW213098   5.359   8.243   0.520 -1.8810 -2.0414 -0.0145
 4174SOL     OW13099   7.126   9.420   9.590 -0.0340 -0.5523  0.2571
 4174SOL    HW113100   7.197   9.416   9.655  1.2230 -1.6889 -1.1050
 4174SOL    HW213101   7.099   9.511   9.589  1.4277 -0.0890  0.8258
 4175SOL     OW13102   3.676   8.352   6.358 -0.0550 -0.4304 -0.2409
 4175SOL    HW113103   3.604   8.335   6.296  0.2557 -0.9385 -0.4676
 4175SOL    HW213104   3.711   8.266   6.377  0.8180 -0.1427 -0.5133
 4176SOL     OW13105   3.559   9.341   5.803  0.0987 -0.8301  0.0032
 4176SOL    HW113106   3.478   9.339   5.751  0.0137 -1.5924  0.1439
 4176SOL    HW213107   3.544   9.407   5.870 -0.1601 -0.5158 -0.3596
 4177SOL     OW13108   5.904   3.283   5.014  0.0213 -0.4750  0.1001
 4177SOL    HW113109   5.845   3.214   4.986  0.0757  0.0852 -1.4740
 4177SOL    HW213110   5.879   3.359   4.962  1.8031 -0.0879 -0.2554
 4178SOL     OW13111   4.722   9.048   7.897  0.0126 -0.3216 -0.6086
 4178SOL    HW113112   4.746   9.140   7.908 -0.8225 -0.1681  0.0465
 4178SOL    HW213113   4.690   9.021   7.983  1.8294 -1.7337 -0.3315
 4179SOL     OW13114   4.463   4.047   5.610  0.3157 -0.5382 -0.2729
 4179SOL    HW113115   4.398   4.018   5.674 -0.3734  1.3773 -0.0176
 4179SOL    HW213116   4.539   4.072   5.662 -0.1416  0.7483 -0.1767
 4180SOL     OW13117   1.272   7.057   1.473  0.1788  0.7403  0.0649
 4180SOL    HW113118   1.255   7.094   1.386 -1.7078  0.7863  0.4110
 4180SOL    HW213119   1.279   6.963   1.459 -1.3818  0.6105 -0.0079
 4181SOL     OW13120   0.028   5.510   2.936 -0.2076 -0.3616 -0.2792
 4181SOL    HW113121   0.018   5.419   2.908 -1.4870  0.0036 -1.0914
 4181SOL    HW213122   0.008   5.562   2.858 -0.4095  0.6338  0.4103
 4182SOL     OW13123   5.198   8.649   1.398  0.5336 -0.3413  0.1311
 4182SOL    HW113124   5.131   8.714   1.417 -0.1350 -0.9069 -0.2619
 4182SOL    HW213125   5.237   8.628   1.484  1.2223  1.0507  0.1813
 4183SOL     OW13126   6.885   3.506   7.161  0.6705 -0.1996  0.0611
 4183SOL    HW113127   6.874   3.550   7.245 -0.3027 -0.6094  0.1552
 4183SOL    HW213128   6.796   3.490   7.130  0.9767 -1.9828 -0.0276
 4184SOL     OW13129   3.999   1.372   9.830  0.5377 -0.7013  0.2830
 4184SOL    HW113130   3.923   1.314   9.816  0.1638 -1.0836  3.2785
 4184SOL    HW213131   3.977   1.452   9.782 -1.7411 -0.8508  0.9473
 4185SOL     OW13132   6.942   4.863   8.278  0.0034 -0.2402  0.0206
 4185SOL    HW113133   6.980   4.832   8.196 -1.2153  0.1072 -0.7026
 4185SOL    HW213134   7.013   4.909   8.322  0.9309 -1.2530 -0.3929
 4186SOL     OW13135   1.501   4.827   8.991  0.2727  0.0703  0.7891
 4186SOL    HW113136   1.517   4.748   9.043  1.2960 -1.0682 -1.1494
 4186SOL    HW213137   1.588   4.862   8.973 -0.1823  2.0979  2.1780
 4187SOL     OW13138   0.528   1.989   9.626  0.0573 -0.0857 -0.1317
 4187SOL    HW113139   0.482   2.044   9.690 -2.2586 -3.3789  1.4144
 4187SOL    HW213140   0.614   1.973   9.665 -0.7029 -0.6514  1.4031
 4188SOL     OW13141   4.266   4.824   5.275 -0.2229  0.0689  0.5600
 4188SOL    HW113142   4.330   4.895   5.266 -0.7035  0.4130 -0.2230
 4188SOL    HW213143   4.319   4.746   5.291  0.2852  0.7226  2.3362
 4189SOL     OW13144   1.276   9.831   3.003 -0.0148  0.0170  0.2193
 4189SOL    HW113145   1.239   9.804   2.920 -0.5037  0.9760  0.1101
 4189SOL    HW213146   1.202   9.868   3.052  0.3332 -0.2212  0.9395
 4190SOL     OW13147   8.123   4.235   0.885 -0.0457 -0.8305 -0.0137
 4190SOL    HW113148   8.156   4.145   0.891  1.0397 -0.3565  1.6909
 4190SOL    HW213149   8.056   4.231   0.816  1.3967 -2.4849 -1.4041
 4191SOL     OW13150   1.978   2.940   8.002  0.3478 -0.1532 -0.5617
 4191SOL    HW113151   2.013   2.869   8.056 -2.0453 -0.8531  0.1525
 4191SOL    HW213152   1.955   3.008   8.065  0.7106  0.4480 -1.0625
 4192SOL     OW13153   6.370   1.915   8.228  0.5401  0.3760 -0.1929
 4192SOL    HW113154   6.365   1.910   8.133 -1.1726  0.4165 -0.1383
 4192SOL    HW213155   6.310   1.847   8.259 -0.2609  1.4984  0.8268
 4193SOL     OW13156   7.396   7.324   3.078  0.1005  0.0868  0.3203
 4193SOL    HW113157   7.387   7.250   3.018  1.6895 -0.3933  0.6220
 4193SOL    HW213158   7.406   7.400   3.020 -0.2169 -0.1126 -0.0007
 4194SOL     OW13159   5.499   1.421   1.095  0.7487  0.5953 -0.0401
 4194SOL    HW113160   5.421   1.369   1.117 -0.5500  2.5390  0.2332
 4194SOL    HW213161   5.481   1.453   1.006  0.2117  2.6963  0.7507
 4195SOL     OW13162   4.118   4.824   5.480  0.2729  1.1828 -0.0214
 4195SOL    HW113163   4.168   4.824   5.399 -0.7398 -0.6098 -0.6920
 4195SOL    HW213164   4.181   4.797   5.547  0.0478 -2.4804 -1.0714
 4196SOL     OW13165   4.688   5.916   6.301 -0.8541  0.3579 -0.1360
 4196SOL    HW113166   4.687   5.828   6.340 -0.2648 -0.0597 -1.0168
 4196SOL    HW213167   4.634   5.907   6.223  0.1751  0.4376 -0.8868
 4197SOL     OW13168   1.885   1.067   1.339  0.0062  0.2971 -0.8692
 4197SOL    HW113169   1.803   1.098   1.300  0.1864  1.0542 -0.6547
 4197SOL    HW213170   1.953   1.118   1.295  0.2741  0.5174 -0.2071
 4198SOL     OW13171   9.129   8.610   9.338  0.0986 -0.6358  0.0091
 4198SOL    HW113172   9.154   8.586   9.428  3.8050  0.9053 -0.4039
 4198SOL    HW213173   9.107   8.703   9.344  2.8674  0.1766 -0.9213
 4199SOL     OW13174   1.408   3.374   8.086  0.1147 -0.2499 -0.2474
 4199SOL    HW113175   1.351   3.449   8.105  2.1204  0.9687  1.3752
 4199SOL    HW213176   1.350   3.298   8.093 -1.3935  0.9375  1.0497
 4200SOL     OW13177   5.060   5.813   1.394  0.6735  0.1346  0.5103
 4200SOL    HW113178   5.047   5.805   1.489  0.1362 -1.2325  0.3394
 4200SOL    HW213179   5.143   5.769   1.377  0.3563 -0.3719  0.2451
 4201SOL     OW13180   2.460   4.123   4.535 -0.1416 -0.1214  0.4835
 4201SOL    HW113181   2.368   4.107   4.515  0.3506 -1.6831 -0.6262
 4201SOL    HW213182   2.496   4.037   4.558  1.0283  0.4709  0.9833
 4202SOL     OW13183   3.663   4.703   0.394  0.3380 -0.1512 -0.2076
 4202SOL    HW113184   3.598   4.635   0.380  0.0560  0.3807 -1.7195
 4202SOL    HW213185   3.616   4.772   0.440 -0.5678  0.7094 -2.2618
 4203SOL     OW13186   4.714   3.572   2.050 -0.0647  0.1749 -0.0263
 4203SOL    HW113187   4.621   3.589   2.064 -0.5724 -2.3025  0.0488
 4203SOL    HW213188   4.746   3.541   2.135  0.4404 -0.5238 -0.4622
 4204SOL     OW13189   0.737   6.769   8.368  0.3584 -0.3485 -0.4277
 4204SOL    HW113190   0.693   6.816   8.440 -0.7103 -0.9453 -0.6726
 4204SOL    HW213191   0.776   6.693   8.410 -2.2999 -2.0234 -0.7680
 4205SOL     OW13192   4.908   9.044   6.968  0.2102 -0.0079  0.0902
 4205SOL    HW113193   4.965   9.017   7.039 -0.1417 -0.0873  0.3454
 4205SOL    HW213194   4.908   9.140   6.972 -0.5759 -0.0255  0.8223
 4206SOL     OW13195   2.893   4.427   4.631 -0.3769 -0.2672 -0.4240
 4206SOL    HW113196   2.943   4.439   4.711 -1.2103 -0.4663  0.1335
 4206SOL    HW213197   2.880   4.332   4.624  0.7659 -0.3765 -1.4707
 4207SOL     OW13198   0.204   9.514   6.187  1.0048  0.0732 -0.8157
 4207SOL    HW113199   0.210   9.472   6.102 -0.3057 -0.5453 -0.6241
 4207SOL    HW213200   0.149   9.591   6.173 -0.9643 -1.1459 -0.1698
 4208SOL     OW13201   4.812   1.013   7.615 -0.0006  0.1660  0.5002
 4208SOL    HW113202   4.807   1.006   7.710 -0.7096  0.3450  0.4859
 4208SOL    HW213203   4.740   1.072   7.592 -0.3962 -0.5704 -0.2157
 4209SOL     OW13204   6.881   5.790   2.598 -0.4619  0.6088  0.1309
 4209SOL    HW113205   6.823   5.867   2.595 -1.7823 -0.3667 -0.4800
 4209SOL    HW213206   6.875   5.760   2.689  0.3814  1.4427  0.4772
 4210SOL     OW13207   6.910   5.475   0.259 -0.0561  0.2050 -0.0904
 4210SOL    HW113208   6.947   5.419   0.190  1.7846 -0.8475  1.6283
 4210SOL    HW213209   6.964   5.456   0.336 -2.2916  1.0119  1.7746
 4211SOL     OW13210   4.775   2.723   4.204 -0.0349  0.3977  0.1623
 4211SOL    HW113211   4.724   2.791   4.249  0.4632 -0.0901  1.5194
 4211SOL    HW213212   4.712   2.680   4.146 -0.4875  1.6426 -0.2988
 4212SOL     OW13213   5.946   0.947   0.893  0.7407  0.0696 -0.2267
 4212SOL    HW113214   5.921   0.888   0.965 -0.2372 -0.9857 -1.3986
 4212SOL    HW213215   5.964   1.030   0.937 -1.0057 -0.1955  1.1499
 4213SOL     OW13216   6.427   5.770   3.908 -0.0692 -0.1976 -0.0609
 4213SOL    HW113217   6.364   5.822   3.858  0.2888 -0.4232 -0.7556
 4213SOL    HW213218   6.374   5.728   3.976 -0.5556  0.1256 -0.2291
 4214SOL     OW13219   5.197   4.070   9.582 -0.1173 -0.2601 -0.3579
 4214SOL    HW113220   5.170   3.990   9.626  0.9927 -0.3860  0.1343
 4214SOL    HW213221   5.247   4.040   9.506  2.2858 -0.1092  1.0614
 4215SOL     OW13222   2.345   3.934   5.945  0.3910  0.4600 -0.6373
 4215SOL    HW113223   2.432   3.962   5.975 -0.1500  0.0953  1.4722
 4215SOL    HW213224   2.346   3.839   5.955 -0.8146  0.5873  1.2838
 4216SOL     OW13225   4.782   5.306   7.942 -0.0981  0.1359 -0.4118
 4216SOL    HW113226   4.688   5.286   7.941 -0.1315 -0.1718  1.8963
 4216SOL    HW213227   4.788   5.390   7.989  0.7225  0.7274 -1.5283
 4217SOL     OW13228   8.318   4.526   5.117 -0.0315  0.5686 -0.2030
 4217SOL    HW113229   8.331   4.434   5.137 -0.7723  0.8603  1.9044
 4217SOL    HW213230   8.347   4.536   5.026  1.3572 -1.4345 -0.0350
 4218SOL     OW13231   2.711   4.034   4.875  0.0528 -0.1394 -0.0303
 4218SOL    HW113232   2.620   4.012   4.895 -0.3887  1.4937 -0.0924
 4218SOL    HW213233   2.747   3.954   4.837 -1.3684 -0.8080 -0.0326
 4219SOL     OW13234   8.929   5.488   2.078 -0.7729 -0.0122 -0.3893
 4219SOL    HW113235   8.983   5.412   2.058 -0.6705 -0.4579  1.4213
 4219SOL    HW213236   8.840   5.460   2.058 -0.8605 -1.0180  1.2120
 4220SOL     OW13237   6.403   2.136   2.514 -0.3364 -0.5296 -0.3685
 4220SOL    HW113238   6.343   2.104   2.446 -0.6592  1.9601 -1.3550
 4220SOL    HW213239   6.487   2.146   2.470  0.0383 -1.0685  0.2102
 4221SOL     OW13240   9.975   5.883   7.498  0.1989  0.3018  0.5019
 4221SOL    HW113241   9.944   5.972   7.479 -0.6150  0.1216  0.9165
 4221SOL    HW213242   9.927   5.828   7.437  1.5539  0.2455 -0.5397
 4222SOL     OW13243   0.587   8.706   7.982 -0.2389  0.4582 -0.2577
 4222SOL    HW113244   0.516   8.720   8.044  0.4074 -1.3597  0.9679
 4222SOL    HW213245   0.558   8.750   7.902 -1.9369  1.2380  0.7355
 4223SOL     OW13246   5.105   2.481   1.188  0.3820 -0.0135 -0.3498
 4223SOL    HW113247   5.134   2.548   1.126  1.9115  0.3962  0.7358
 4223SOL    HW213248   5.097   2.527   1.271 -0.6468 -0.7595 -0.0118
 4224SOL     OW13249   4.264   3.848   2.086 -0.1245 -0.3023 -1.0067
 4224SOL    HW113250   4.308   3.919   2.132  0.0240 -0.2439 -1.2383
 4224SOL    HW213251   4.183   3.834   2.135 -0.8053  0.9182 -1.7431
 4225SOL     OW13252   7.267   1.236   7.236  0.6068  0.0318 -0.1618
 4225SOL    HW113253   7.350   1.281   7.254  1.1541 -0.5617 -1.1079
 4225SOL    HW213254   7.200   1.295   7.271  1.2580  1.9143 -1.8232
 4226SOL     OW13255   6.403   8.376   9.312 -0.0297  0.0434  0.2397
 4226SOL    HW113256   6.394   8.328   9.230  1.0705  0.1430  0.0514
 4226SOL    HW213257   6.474   8.439   9.296  0.2842 -0.0174  1.2949
 4227SOL     OW13258   1.897   0.485   1.547 -0.2850 -0.4263  0.3211
 4227SOL    HW113259   1.806   0.471   1.573 -1.0010 -0.1932 -1.9066
 4227SOL    HW213260   1.935   0.397   1.544 -0.4819 -0.5427  1.0287
 4228SOL     OW13261   5.246   7.395   7.751 -0.2824  0.1286 -0.1997
 4228SOL    HW113262   5.220   7.454   7.680 -0.3058  0.9350  0.4659
 4228SOL    HW213263   5.165   7.378   7.799 -0.1621  0.0433 -0.0259
 4229SOL     OW13264   6.804   2.734   5.300 -0.1160 -0.0911  0.3682
 4229SOL    HW113265   6.836   2.644   5.297 -2.0327 -0.8371  0.7040
 4229SOL    HW213266   6.746   2.742   5.224  0.6779  1.1540 -0.1417
 4230SOL     OW13267   1.648   9.643   1.115  0.0568 -0.0905  0.0241
 4230SOL    HW113268   1.639   9.730   1.076 -2.7173  0.3259  1.3718
 4230SOL    HW213269   1.633   9.657   1.209  0.4041 -1.9185  0.3882
 4231SOL     OW13270   9.800   1.919   5.342  0.0189  0.0055  0.0590
 4231SOL    HW113271   9.725   1.966   5.308  0.2978  0.1464 -0.3568
 4231SOL    HW213272   9.783   1.911   5.436 -1.1985 -1.1982 -0.2295
 4232SOL     OW13273   7.725   4.497   6.472  0.3319 -0.2694  0.2436
 4232SOL    HW113274   7.635   4.478   6.498  0.6662 -1.5895  0.5099
 4232SOL    HW213275   7.756   4.560   6.537 -0.2590 -0.1366  0.4063
 4233SOL     OW13276   2.534   7.312   3.772  0.0440  0.0127  0.0412
 4233SOL    HW113277   2.462   7.288   3.713 -0.2784 -1.6832  1.0463
 4233SOL    HW213278   2.607   7.257   3.745  0.6321  0.9268 -0.2619
 4234SOL     OW13279   3.231   8.728   0.015 -0.1480 -0.6540 -0.2649
 4234SOL    HW113280   3.279   8.652  -0.019 -0.4377 -0.5843 -0.8435
 4234SOL    HW213281   3.142   8.696   0.029  0.3129 -1.1354  2.0246
 4235SOL     OW13282   5.005   1.347   5.478  0.5224 -0.0601 -0.5828
 4235SOL    HW113283   5.082   1.357   5.534  0.4819  0.2382 -0.5761
 4235SOL    HW213284   5.005   1.425   5.423 -0.8090  0.9311  0.7121
 4236SOL     OW13285   0.746   9.747   1.249  0.6367 -0.2948  0.1382
 4236SOL    HW113286   0.773   9.828   1.206 -1.2434  0.5187  0.3937
 4236SOL    HW213287   0.668   9.719   1.201  0.6120 -1.3581  0.7605
 4237SOL     OW13288   6.603   0.698   9.792  0.0458 -0.5766 -0.2461
 4237SOL    HW113289   6.596   0.782   9.837 -2.6343  0.0199 -1.6026
 4237SOL    HW213290   6.663   0.647   9.846  0.0661  1.4513  1.7907
 4238SOL     OW13291   3.719   6.255   3.066 -0.2365  0.5205  0.0867
 4238SOL    HW113292   3.717   6.159   3.066 -0.7037  0.4964  1.5139
 4238SOL    HW213293   3.811   6.277   3.053 -0.1600 -0.1044 -0.5387
 4239SOL     OW13294   6.173   2.950   5.031  0.0150 -0.1860 -0.3218
 4239SOL    HW113295   6.105   2.950   4.964 -0.6438 -1.0885  0.3285
 4239SOL    HW213296   6.249   2.988   4.987 -0.7495  0.3770 -1.2112
 4240SOL     OW13297   9.611   1.875   3.835  0.4444 -0.4187  0.5011
 4240SOL    HW113298   9.592   1.873   3.929  2.1866 -0.5374  0.8772
 4240SOL    HW213299   9.578   1.791   3.803  2.1812 -1.5379  1.5155
 4241SOL     OW13300   1.005   7.365   2.795  0.1595  0.2127  0.1574
 4241SOL    HW113301   1.067   7.359   2.723 -1.8591 -1.9486 -1.5427
 4241SOL    HW213302   0.939   7.428   2.765  0.9088  1.7567  1.5482
 4242SOL     OW13303   9.743   8.234   0.625 -0.4706 -0.3155 -0.2707
 4242SOL    HW113304   9.818   8.188   0.663  0.0263  0.6104 -0.1063
 4242SOL    HW213305   9.771   8.259   0.537  0.1488  1.6798  0.4411
 4243SOL     OW13306   5.265   7.012   0.418  0.0518  0.3122  0.3481
 4243SOL    HW113307   5.345   7.031   0.369 -0.4083  0.0338 -0.5354
 4243SOL    HW213308   5.268   7.072   0.492  0.4657  1.1919 -0.3531
 4244SOL     OW13309   2.138   5.675   4.693 -0.7685 -0.0747  0.0970
 4244SOL    HW113310   2.178   5.756   4.723  1.6815 -1.2811  0.3693
 4244SOL    HW213311   2.103   5.695   4.606 -0.4870  1.3227  0.2890
 4245SOL     OW13312   6.986   7.255   3.253  0.1615  0.2987 -0.5797
 4245SOL    HW113313   7.081   7.260   3.262  0.1534 -0.6299  0.0601
 4245SOL    HW213314   6.953   7.246   3.342 -0.4686 -0.2100 -0.8544
 4246SOL     OW13315   4.516   4.574   3.455  0.3650  0.0782 -0.6230
 4246SOL    HW113316   4.588   4.514   3.436 -0.8483 -1.7776  0.3612
 4246SOL    HW213317   4.529   4.600   3.546 -0.0475 -0.0144 -0.5365
 4247SOL     OW13318   8.501   3.351   4.765  0.5714  0.0592 -0.2562
 4247SOL    HW113319   8.408   3.344   4.785  0.3273  2.9623 -0.0050
 4247SOL    HW213320   8.543   3.359   4.851  0.9176  0.0835 -0.4267
 4248SOL     OW13321   3.286   9.843  -0.002 -0.6351 -0.0070 -0.6628
 4248SOL    HW113322   3.348   9.853   0.070 -0.5572  0.2600 -0.7651
 4248SOL    HW213323   3.210   9.896   0.023  0.7074  2.8924 -2.2604
 4249SOL     OW13324   3.125   3.655   1.024 -0.3441  0.4184  0.0967
 4249SOL    HW113325   3.046   3.607   1.050 -1.3414  0.1110 -3.0934
 4249SOL    HW213326   3.118   3.739   1.069 -2.2358  0.2045  0.2891
 4250SOL     OW13327   0.381   9.186   9.859  0.1783 -0.0035 -0.3962
 4250SOL    HW113328   0.424   9.168   9.942 -0.1078 -0.2828 -0.3081
 4250SOL    HW213329   0.435   9.142   9.793 -0.7988 -1.6889 -0.1329
 4251SOL     OW13330   2.858   4.218   2.397  0.3317  0.4590 -0.1324
 4251SOL    HW113331   2.913   4.296   2.400  0.3666  0.4402 -0.2873
 4251SOL    HW213332   2.920   4.145   2.393  0.3126  0.3894  0.6214
 4252SOL     OW13333   9.775   0.004   6.712 -0.0529 -0.1982 -0.6366
 4252SOL    HW113334   9.716  -0.029   6.780  0.2785  0.8550  0.1778
 4252SOL    HW213335   9.723   0.069   6.665  0.1934  0.1393 -0.4428
 4253SOL     OW13336   7.844   8.232   2.198  0.0891 -0.4291  0.2074
 4253SOL    HW113337   7.920   8.259   2.147 -0.3681 -0.2538 -0.3976
 4253SOL    HW213338   7.878   8.217   2.286  0.8525 -0.5353 -0.0986
 4254SOL     OW13339   3.566   9.034   4.497  0.5663  0.2410  0.3268
 4254SOL    HW113340   3.565   9.025   4.402  0.1612 -0.0339  0.3553
 4254SOL    HW213341   3.603   8.951   4.528  1.8421  0.8017  0.3618
 4255SOL     OW13342   1.870   4.032   9.967 -0.2244  0.2621 -0.4737
 4255SOL    HW113343   1.920   3.951   9.969  0.0263  0.3935 -1.0751
 4255SOL    HW213344   1.912   4.085   9.899 -0.3898  0.8927 -0.0943
 4256SOL     OW13345   1.684   3.440   0.760  0.2677  0.6682 -0.5260
 4256SOL    HW113346   1.706   3.415   0.850 -0.2346  0.6582 -0.4027
 4256SOL    HW213347   1.681   3.358   0.712 -3.6738  0.1061  0.3686
 4257SOL     OW13348   4.199   1.345   6.411  0.2884  0.3403 -0.2195
 4257SOL    HW113349   4.224   1.394   6.333 -0.4930 -0.5130 -1.0448
 4257SOL    HW213350   4.227   1.255   6.393 -0.3324  0.0373  0.2648
 4258SOL     OW13351   2.660   8.085   7.335 -0.4024 -0.0037 -0.2577
 4258SOL    HW113352   2.568   8.070   7.315  0.0420 -0.9228 -1.7811
 4258SOL    HW213353   2.706   8.061   7.255  1.1355  0.8871  0.3243
 4259SOL     OW13354   7.531   1.599   6.326 -0.0420  0.3414 -0.8619
 4259SOL    HW113355   7.480   1.518   6.326 -1.1333  0.9835  0.8166
 4259SOL    HW213356   7.500   1.647   6.402  0.9122  2.1507 -1.5557
 4260SOL     OW13357   0.173   5.142   4.886  0.1594  0.8791  0.1632
 4260SOL    HW113358   0.106   5.198   4.925 -1.8783 -0.6832 -0.9541
 4260SOL    HW213359   0.171   5.062   4.938 -0.4918 -0.0610 -1.2515
 4261SOL     OW13360   0.003   1.918   8.614  0.2044  0.0788  0.3425
 4261SOL    HW113361   0.062   1.898   8.542 -0.4457  0.9341 -0.4500
 4261SOL    HW213362   0.056   1.967   8.676  0.7025 -0.4446  0.3409
 4262SOL     OW13363   0.607   3.156   8.582  0.1501  0.2009  0.1782
 4262SOL    HW113364   0.570   3.239   8.552  0.0393 -0.7650 -2.6700
 4262SOL    HW213365   0.532   3.108   8.617 -0.0565  0.7276  0.4745
 4263SOL     OW13366   3.448   2.458   6.360 -0.0779  0.1396  0.5526
 4263SOL    HW113367   3.354   2.454   6.376 -0.4697  1.7636 -0.9732
 4263SOL    HW213368   3.488   2.437   6.444 -1.8354  1.3246  1.7559
 4264SOL     OW13369   0.401   2.205   6.711 -0.2334  0.0851 -0.1592
 4264SOL    HW113370   0.339   2.278   6.704  0.7433  0.7661 -2.4239
 4264SOL    HW213371   0.355   2.131   6.670 -0.9852 -0.4904  1.6028
 4265SOL     OW13372   7.811   9.054   5.680 -0.1978 -0.4452  0.1552
 4265SOL    HW113373   7.748   9.121   5.653 -0.1037 -0.5226 -0.2732
 4265SOL    HW213374   7.810   9.057   5.775 -0.7810 -0.3872  0.1498
 4266SOL     OW13375   3.366   0.010   9.728  0.1685 -0.6283 -0.6362
 4266SOL    HW113376   3.382  -0.013   9.820 -0.2843  0.3093 -0.3142
 4266SOL    HW213377   3.298   0.077   9.731 -0.0729 -0.7983 -1.6825
 4267SOL     OW13378   1.225   3.504   6.438  0.3557 -0.2510  0.1591
 4267SOL    HW113379   1.301   3.531   6.387 -0.7127 -1.0063 -1.9917
 4267SOL    HW213380   1.153   3.558   6.405 -0.0776  0.5032  2.1944
 4268SOL     OW13381   0.646   2.442   0.636 -0.2639  0.0214  0.2311
 4268SOL    HW113382   0.648   2.428   0.542  0.5640 -1.0854  0.3904
 4268SOL    HW213383   0.708   2.378   0.671  1.0512  1.8111  1.3431
 4269SOL     OW13384   8.568   2.254   6.422  0.4104  0.9592 -0.6996
 4269SOL    HW113385   8.639   2.222   6.478 -0.1750 -1.0362 -1.0131
 4269SOL    HW213386   8.548   2.341   6.456  1.5273  0.6664  0.8004
 4270SOL     OW13387   2.823   5.289   0.536  0.0860 -0.5773  0.2966
 4270SOL    HW113388   2.814   5.384   0.541  1.1837 -0.0905 -3.5308
 4270SOL    HW213389   2.907   5.271   0.579  1.0358  0.5790 -0.9718
 4271SOL     OW13390   6.831   5.045   9.201  0.0306 -0.0462  0.0707
 4271SOL    HW113391   6.826   5.141   9.204 -1.8835 -0.0930 -0.6873
 4271SOL    HW213392   6.750   5.015   9.243 -0.1681 -1.3013 -1.1406
 4272SOL     OW13393   2.485   9.683   0.038  0.1365  0.0017 -0.3433
 4272SOL    HW113394   2.517   9.640  -0.041  0.9834 -0.0951  0.0438
 4272SOL    HW213395   2.543   9.652   0.107 -1.2386 -0.7491  0.5168
 4273SOL     OW13396   4.523   8.420   0.252 -0.5137 -0.2243  0.2057
 4273SOL    HW113397   4.588   8.351   0.233  1.7360  2.1679 -1.6148
 4273SOL    HW213398   4.566   8.475   0.317 -0.1797  1.9393 -1.7219
 4274SOL     OW13399   8.313   0.230   9.772  0.6796 -0.2858 -0.0062
 4274SOL    HW113400   8.334   0.230   9.866  2.0179 -0.3736 -0.2815
 4274SOL    HW213401   8.336   0.318   9.743 -1.2161  0.2673  0.0190
 4275SOL     OW13402   1.923   2.553   4.177 -0.0813 -0.1441  0.2970
 4275SOL    HW113403   1.875   2.550   4.260 -0.0423 -0.3715  0.3117
 4275SOL    HW213404   1.857   2.538   4.110 -0.0202 -0.5148  0.3206
 4276SOL     OW13405   6.709   4.094   4.047 -0.4614  0.0412  0.1849
 4276SOL    HW113406   6.710   4.099   3.951 -0.0990  1.9271  0.2556
 4276SOL    HW213407   6.796   4.062   4.070 -0.4588 -0.1707 -0.1105
 4277SOL     OW13408   8.990   3.301   8.439 -0.6826  0.3120 -0.5075
 4277SOL    HW113409   8.895   3.295   8.429 -0.7055 -0.0353 -0.1118
 4277SOL    HW213410   9.003   3.315   8.533 -0.3496  0.4835 -0.5783
 4278SOL     OW13411   9.641   9.990   0.352  0.3524 -0.1392 -0.1459
 4278SOL    HW113412   9.588   9.912   0.335  0.5530 -0.0258 -1.4095
 4278SOL    HW213413   9.678   9.976   0.439  0.6879 -1.6341 -0.4962
 4279SOL     OW13414   5.003   3.222   8.989 -0.2566  0.3761  0.1695
 4279SOL    HW113415   5.031   3.144   9.037 -1.8066  0.2418  0.9277
 4279SOL    HW213416   5.010   3.198   8.897 -0.6054 -0.6300  0.3940
 4280SOL     OW13417   3.603   3.014   6.054 -0.2095 -0.2353 -0.0272
 4280SOL    HW113418   3.681   2.973   6.092  1.3600  1.5955 -1.0965
 4280SOL    HW213419   3.608   2.993   5.961 -1.0088 -0.0981 -0.1075
 4281SOL     OW13420   6.055   8.579   3.481  0.4249  0.4937  0.2228
 4281SOL    HW113421   6.046   8.484   3.480 -0.4337  0.5612 -0.9785
 4281SOL    HW213422   6.032   8.605   3.569  1.8011 -0.4935  0.9215
 4282SOL     OW13423   7.196   4.566   5.262  0.2538 -0.3286  0.1098
 4282SOL    HW113424   7.166   4.533   5.346  1.0768 -0.7090  0.2677
 4282SOL    HW213425   7.290   4.581   5.275  0.0874  1.2344 -0.2235
 4283SOL     OW13426   0.246   4.647   0.635 -0.8266  0.1573 -0.3685
 4283SOL    HW113427   0.340   4.660   0.632 -0.9286  1.0305 -0.1966
 4283SOL    HW213428   0.233   4.580   0.702 -0.2685 -0.7597 -1.1643
 4284SOL     OW13429   7.984   3.738   0.478  0.3544 -0.8372 -0.3556
 4284SOL    HW113430   7.924   3.667   0.502 -0.7279  0.3135  0.4436
 4284SOL    HW213431   8.063   3.693   0.446 -0.6734 -2.3882 -0.8218
 4285SOL     OW13432   1.357   0.683   3.325 -0.4905  0.9448  0.5728
 4285SOL    HW113433   1.338   0.598   3.285 -0.0845  0.2371  1.8384
 4285SOL    HW213434   1.331   0.747   3.259 -2.1727 -0.1186  0.1597
 4286SOL     OW13435   9.489   6.095   4.890  0.2442  0.5707  0.6177
 4286SOL    HW113436   9.490   6.056   4.977 -2.3951  3.3659  2.0697
 4286SOL    HW213437   9.553   6.166   4.895 -0.4579  1.2218  0.5746
 4287SOL     OW13438   0.026   7.721   9.576 -0.0111  0.3580 -0.4190
 4287SOL    HW113439   0.112   7.687   9.554 -0.7712 -3.3096  1.6170
 4287SOL    HW213440  -0.027   7.707   9.497  0.4521 -0.4856 -0.5844
 4288SOL     OW13441   5.739   9.377   7.084  0.0311  0.1023  0.3571
 4288SOL    HW113442   5.807   9.437   7.052  1.6223 -1.9165 -0.2612
 4288SOL    HW213443   5.749   9.298   7.030 -1.5094 -1.0098  1.5976
 4289SOL     OW13444   8.680   3.635   8.965  0.1924  0.6928 -0.2787
 4289SOL    HW113445   8.609   3.594   8.916  1.9019 -1.2544 -1.3050
 4289SOL    HW213446   8.686   3.724   8.929 -0.3381  0.1827 -1.6836
 4290SOL     OW13447   4.576   8.969   8.108  0.3283  0.3088 -0.8098
 4290SOL    HW113448   4.490   8.988   8.070 -0.1440 -0.6749 -0.2536
 4290SOL    HW213449   4.575   9.014   8.192 -0.7387 -1.9236  0.4478
 4291SOL     OW13450   0.920   7.650   0.661  0.6433  0.1912 -0.2196
 4291SOL    HW113451   0.860   7.717   0.692  1.5486  0.9863 -0.1336
 4291SOL    HW213452   0.992   7.699   0.620  0.5325 -0.7647 -1.6362
 4292SOL     OW13453   7.493   3.139   1.995  0.4495  0.1329 -0.1658
 4292SOL    HW113454   7.448   3.223   2.000 -1.1718 -0.7680  2.5686
 4292SOL    HW213455   7.546   3.136   2.075  1.8826 -0.7513 -1.1004
 4293SOL     OW13456   7.508   8.223   3.907 -0.0256  0.1582  0.0130
 4293SOL    HW113457   7.472   8.305   3.873  2.1321  1.0989 -0.1037
 4293SOL    HW213458   7.560   8.248   3.983  1.1913 -1.0186 -0.4026
 4294SOL     OW13459   4.289   0.204   4.046 -0.6003 -0.0341 -0.3526
 4294SOL    HW113460   4.229   0.138   4.078 -0.1809 -0.2028  0.0928
 4294SOL    HW213461   4.314   0.254   4.124 -1.1320  0.8341 -0.7191
 4295SOL     OW13462   7.113   1.921   4.713 -0.6553 -0.2105 -0.1148
 4295SOL    HW113463   7.065   1.847   4.750 -1.7648  0.9554  0.8890
 4295SOL    HW213464   7.205   1.903   4.735 -1.0505 -0.6700  1.3006
 4296SOL     OW13465   0.280   2.859   2.584  0.0446  0.7232  0.1592
 4296SOL    HW113466   0.353   2.912   2.553  0.3818  1.0492  1.4359
 4296SOL    HW213467   0.202   2.907   2.557  0.2886  0.5126 -0.9782
 4297SOL     OW13468   5.476   4.082   0.800 -0.4073  0.3431 -0.3309
 4297SOL    HW113469   5.506   3.994   0.820  0.2573  0.9595  1.6980
 4297SOL    HW213470   5.537   4.114   0.733 -1.7857 -1.3203 -2.4862
 4298SOL     OW13471   0.157   1.408   9.516  0.6060 -0.0902  0.7707
 4298SOL    HW113472   0.152   1.389   9.610  1.0016  0.6848  0.9593
 4298SOL    HW213473   0.066   1.420   9.489  0.4988 -0.1788  1.0857
 4299SOL     OW13474   5.817   3.007   6.988  0.0569  0.2787 -0.1428
 4299SOL    HW113475   5.847   3.022   7.077 -1.5402  0.3343  0.4101
 4299SOL    HW213476   5.723   3.024   6.990 -0.5393 -2.3135 -1.2060
 4300SOL     OW13477   4.668   9.120   5.093  0.1861  0.1352  0.0554
 4300SOL    HW113478   4.671   9.190   5.027  1.0478  0.3436  0.3056
 4300SOL    HW213479   4.746   9.134   5.147 -0.5248 -0.0057  1.1548
 4301SOL     OW13480   5.745   4.795   5.118 -0.0479 -0.3032 -0.2280
 4301SOL    HW113481   5.661   4.751   5.130  0.2457 -1.2356 -1.4280
 4301SOL    HW213482   5.744   4.826   5.028  0.5845  0.3958 -0.0120
 4302SOL     OW13483   8.357   6.483   2.930  0.1679 -0.6512 -0.2554
 4302SOL    HW113484   8.385   6.544   2.861 -0.1454 -0.7332 -0.4582
 4302SOL    HW213485   8.269   6.513   2.954 -0.0631 -1.1393 -0.4915
 4303SOL     OW13486   7.824   4.385   7.708  0.1181  0.1059 -0.7084
 4303SOL    HW113487   7.832   4.357   7.799 -1.3855  1.0052 -0.2700
 4303SOL    HW213488   7.730   4.393   7.693  0.3493  0.0652 -2.3201
 4304SOL     OW13489   0.544   7.268   0.846  0.0620  0.1854 -0.2379
 4304SOL    HW113490   0.493   7.202   0.798 -0.0882 -0.0756  0.2698
 4304SOL    HW213491   0.635   7.251   0.821  0.0428 -0.3319  0.0268
 4305SOL     OW13492   3.273   8.523   2.719  0.7911 -0.0920 -0.2944
 4305SOL    HW113493   3.307   8.574   2.645  1.7315  0.8267  0.7304
 4305SOL    HW213494   3.296   8.575   2.796  2.0129 -2.1590  0.8337
 4306SOL     OW13495   5.646   2.052   1.983 -0.2542 -0.0742  0.2140
 4306SOL    HW113496   5.699   2.035   2.060  2.9972  1.5676 -1.4751
 4306SOL    HW213497   5.573   2.106   2.015  1.3460  1.0999  2.0593
 4307SOL     OW13498   5.082   3.101   9.451 -0.2496  0.3594 -0.4512
 4307SOL    HW113499   5.122   3.060   9.375  0.7039  0.7162 -0.1495
 4307SOL    HW213500   5.102   3.043   9.525 -1.3848 -0.1180 -0.4861
 4308SOL     OW13501   6.263   1.774   7.591  0.3545 -0.5484  0.0156
 4308SOL    HW113502   6.175   1.806   7.569  0.3103 -1.1542 -0.7190
 4308SOL    HW213503   6.318   1.803   7.518  1.1857  1.4549  1.3303
 4309SOL     OW13504   5.435   5.587   2.518 -0.0194 -0.2401  0.3670
 4309SOL    HW113505   5.435   5.508   2.464 -1.5641  0.6092 -0.9484
 4309SOL    HW213506   5.500   5.569   2.586 -0.6128 -2.8137  0.3686
 4310SOL     OW13507   3.270   8.409   5.286  0.3744  0.4135  0.4077
 4310SOL    HW113508   3.239   8.359   5.362 -0.4967  0.1917 -0.0761
 4310SOL    HW213509   3.297   8.493   5.322  2.5844 -0.6109  1.3610
 4311SOL     OW13510   2.703   2.040   3.007 -0.1438 -0.3063  0.5274
 4311SOL    HW113511   2.625   1.986   3.017 -1.1289  0.9875  0.1524
 4311SOL    HW213512   2.722   2.038   2.913 -0.9365  0.9553  0.3156
 4312SOL     OW13513   7.152   8.335   5.731  0.0229  0.6607  0.1263
 4312SOL    HW113514   7.203   8.409   5.697 -0.5415  1.0954  0.1938
 4312SOL    HW213515   7.069   8.375   5.759 -0.9124 -0.2224 -1.2687
 4313SOL     OW13516   1.263   4.158   0.510  0.3736  0.3680  0.6614
 4313SOL    HW113517   1.235   4.071   0.540  0.7844  0.0137  0.0398
 4313SOL    HW213518   1.349   4.144   0.471 -0.3159  0.7012 -1.1123
 4314SOL     OW13519   5.494   5.884   0.081  0.2540  0.4995 -0.0381
 4314SOL    HW113520   5.575   5.856   0.123  0.9925  1.5190 -0.7672
 4314SOL    HW213521   5.425   5.852   0.140  1.0357 -2.3167 -0.4941
 4315SOL     OW13522   5.691   4.867   8.464  0.2157  0.3379 -0.7083
 4315SOL    HW113523   5.746   4.902   8.393 -0.0305  0.7028 -0.7224
 4315SOL    HW213524   5.608   4.846   8.422  0.4108 -0.4221 -0.7305
 4316SOL     OW13525   0.371   0.499   7.495  0.2990  0.1391  0.5495
 4316SOL    HW113526   0.420   0.470   7.572 -1.1797 -1.3083  0.9863
 4316SOL    HW213527   0.309   0.564   7.529 -1.5586 -1.7490  0.9826
 4317SOL     OW13528   3.822   7.010   2.517 -0.4930  0.4784  0.3312
 4317SOL    HW113529   3.775   6.956   2.454  0.0410  0.7213 -0.2936
 4317SOL    HW213530   3.778   7.095   2.513 -0.9872  0.2564  0.9113
 4318SOL     OW13531   9.122   3.036   2.486  0.3794 -0.0096  0.1530
 4318SOL    HW113532   9.028   3.047   2.472  0.6817  0.0726 -2.2406
 4318SOL    HW213533   9.143   2.952   2.444  1.4342  0.1754  0.2716
 4319SOL     OW13534   9.949   2.148   0.777  0.1261  0.0689  0.2171
 4319SOL    HW113535   9.885   2.131   0.708 -1.6117 -0.3993  1.8753
 4319SOL    HW213536   9.999   2.223   0.746 -1.2950  0.5133 -1.0914
 4320SOL     OW13537   4.710   8.801   5.586 -0.2110 -0.0187  0.2376
 4320SOL    HW113538   4.754   8.723   5.553 -0.4064  0.2435 -0.6860
 4320SOL    HW213539   4.625   8.770   5.617  0.7494 -0.6072  2.4824
 4321SOL     OW13540   6.634   2.751   5.082  0.5762 -0.0470  0.4956
 4321SOL    HW113541   6.663   2.763   4.991  1.2223  0.2450  0.7361
 4321SOL    HW213542   6.619   2.657   5.089  1.2711 -0.1807  0.3006
 4322SOL     OW13543   3.964   1.744   2.893  0.1408 -0.4244  0.0323
 4322SOL    HW113544   4.011   1.661   2.899  0.1901 -0.5227 -1.3880
 4322SOL    HW213545   3.873   1.719   2.876  0.3432 -0.2169 -1.5325
 4323SOL     OW13546   0.349   8.496   8.288  0.6159  0.6024  0.1356
 4323SOL    HW113547   0.270   8.448   8.263  1.0366  0.3989 -0.8472
 4323SOL    HW213548   0.352   8.570   8.226  1.4440  0.3382 -0.1431
 4324SOL     OW13549   1.367   2.696   6.500  0.0958  0.2017 -0.1856
 4324SOL    HW113550   1.309   2.771   6.483  0.5034  0.7880  0.9089
 4324SOL    HW213551   1.449   2.719   6.457  0.3272  0.5581  0.4220
 4325SOL     OW13552   6.661   9.558   5.465  0.0734  0.2382  0.1545
 4325SOL    HW113553   6.636   9.534   5.554 -0.6088  0.0954 -0.0753
 4325SOL    HW213554   6.585   9.605   5.430  0.6865  1.1242 -0.0334
 4326SOL     OW13555   8.534   8.952   3.664 -0.0856  0.4416  0.3243
 4326SOL    HW113556   8.467   8.942   3.596  0.9840  3.7874 -1.4375
 4326SOL    HW213557   8.484   8.974   3.743 -1.2603 -2.1375  0.3939
 4327SOL     OW13558   5.306   8.969   7.873  0.3293 -0.3401  0.0651
 4327SOL    HW113559   5.230   9.018   7.904  1.3069  1.6844 -0.5432
 4327SOL    HW213560   5.375   8.989   7.936  1.1108  0.1954 -0.9290
 4328SOL     OW13561   6.755   2.871   4.205  0.2890  0.0286 -0.1255
 4328SOL    HW113562   6.692   2.805   4.232  2.0038 -1.1389  1.2633
 4328SOL    HW213563   6.787   2.908   4.287  1.6418  0.3474 -0.7687
 4329SOL     OW13564   7.027   0.672   8.869 -0.3591 -0.5854  0.1225
 4329SOL    HW113565   7.007   0.764   8.883  1.9290 -0.1116  0.7764
 4329SOL    HW213566   7.080   0.671   8.789 -2.0033 -1.6355 -1.0267
 4330SOL     OW13567   4.500   0.383   3.628  0.0231 -0.4039  0.2830
 4330SOL    HW113568   4.583   0.396   3.581  0.3105  1.2713  1.1617
 4330SOL    HW213569   4.522   0.401   3.720 -1.3359  0.2231  0.5123
 4331SOL     OW13570   0.821   2.463   3.631  0.4323 -0.5636  0.2030
 4331SOL    HW113571   0.883   2.396   3.659 -0.5856 -1.3806  0.5525
 4331SOL    HW213572   0.744   2.449   3.686 -1.0946 -1.3148 -1.9819
 4332SOL     OW13573   1.038   6.156   4.889  0.0112  0.2256  0.3602
 4332SOL    HW113574   1.096   6.098   4.938  0.1013 -0.0039 -0.0086
 4332SOL    HW213575   1.093   6.231   4.867  0.7242 -0.7740 -1.5079
 4333SOL     OW13576   5.419   0.404   1.717  0.0344 -0.4763 -0.6426
 4333SOL    HW113577   5.348   0.353   1.680 -1.0766 -0.0384  0.8113
 4333SOL    HW213578   5.377   0.482   1.752  1.4233  0.4416 -0.9434
 4334SOL     OW13579   7.723   5.480   6.225 -0.7519 -0.5210  0.1241
 4334SOL    HW113580   7.779   5.544   6.181  0.6407 -0.3785  1.9980
 4334SOL    HW213581   7.782   5.409   6.250 -1.4665 -0.5867  1.7474
 4335SOL     OW13582   0.584   4.232   2.946  0.2324 -0.5769  0.2912
 4335SOL    HW113583   0.591   4.262   3.036  0.1432  1.1346 -0.2382
 4335SOL    HW213584   0.595   4.137   2.951  0.8026 -0.4441  2.0226
 4336SOL     OW13585   0.062   7.859   1.736 -0.4670 -0.2219  0.5597
 4336SOL    HW113586   0.005   7.885   1.664  0.6085 -1.8473 -0.9615
 4336SOL    HW213587   0.055   7.764   1.740  1.3358 -0.3825  0.9977
 4337SOL     OW13588   8.465   1.210   8.252 -0.0347  0.2257 -0.3214
 4337SOL    HW113589   8.472   1.115   8.257 -0.2913  0.2229 -0.0254
 4337SOL    HW213590   8.411   1.226   8.175 -2.1017  0.0428  1.0033
 4338SOL     OW13591   0.627   7.474   2.449  0.1737  0.5631  0.1158
 4338SOL    HW113592   0.564   7.545   2.434 -1.1337 -0.7179 -0.7880
 4338SOL    HW213593   0.696   7.490   2.384  0.8400  1.9686  1.0992
 4339SOL     OW13594   9.552   6.185   7.394 -0.0006  0.1625  0.1366
 4339SOL    HW113595   9.513   6.251   7.337 -0.6909 -2.2434 -2.3728
 4339SOL    HW213596   9.512   6.103   7.367  3.1005 -1.7690  0.9390
 4340SOL     OW13597   2.227   8.533   4.142 -0.2465 -0.2616  0.1249
 4340SOL    HW113598   2.234   8.626   4.165  1.1920 -0.1937 -0.4540
 4340SOL    HW213599   2.200   8.490   4.223  1.8020  0.3371  1.2019
 4341SOL     OW13600   4.703   3.407   5.586 -0.5116 -0.8109  0.0721
 4341SOL    HW113601   4.611   3.433   5.583 -0.5908 -0.6267  2.3868
 4341SOL    HW213602   4.741   3.457   5.659  0.9910 -2.1490  0.2819
 4342SOL     OW13603   8.766   8.829   0.228  0.1729 -0.2222 -0.5369
 4342SOL    HW113604   8.693   8.887   0.208  1.0263  1.0262 -0.1646
 4342SOL    HW213605   8.744   8.747   0.183 -1.1908  0.2876 -0.8638
 4343SOL     OW13606   8.841   4.527   7.930  0.0555 -0.0536  0.0230
 4343SOL    HW113607   8.769   4.480   7.890  0.0881 -0.0484 -0.0433
 4343SOL    HW213608   8.913   4.518   7.867 -0.5101  1.7604 -0.9572
 4344SOL     OW13609   2.902   9.128   2.023 -0.7209 -0.5054 -0.4283
 4344SOL    HW113610   2.913   9.098   1.933 -0.1338  1.4004 -1.0534
 4344SOL    HW213611   2.831   9.074   2.058 -0.2778 -1.9816 -1.6779
 4345SOL     OW13612   4.931   0.342   8.206  0.3302 -0.4694 -0.0249
 4345SOL    HW113613   4.920   0.248   8.194 -0.7843 -0.4175  0.4663
 4345SOL    HW213614   4.881   0.362   8.285  3.2253 -0.0030  1.8352
 4346SOL     OW13615   2.391   2.746   4.309 -0.1001 -0.0991  0.1284
 4346SOL    HW113616   2.350   2.729   4.225  0.9409  0.1894 -0.4519
 4346SOL    HW213617   2.318   2.746   4.372 -0.7359 -1.7352 -0.5428
 4347SOL     OW13618   5.915   6.863   5.641 -0.0534  0.2413 -0.0990
 4347SOL    HW113619   5.828   6.825   5.658  0.9273 -1.1270  2.4390
 4347SOL    HW213620   5.921   6.867   5.546 -2.3446 -0.9782 -0.3697
 4348SOL     OW13621   9.936   1.385   2.319  0.3951  0.6020  0.2980
 4348SOL    HW113622   9.978   1.433   2.248  0.7152  0.9901  0.7447
 4348SOL    HW213623   9.964   1.430   2.398  0.2520  0.0121  0.6872
 4349SOL     OW13624   5.217   9.186   0.207 -0.6941  0.0593  0.3205
 4349SOL    HW113625   5.240   9.243   0.281 -0.8136  2.3468 -1.2944
 4349SOL    HW213626   5.123   9.171   0.217 -0.6228 -0.0405  0.8801
 4350SOL     OW13627   2.193   9.138   8.441 -0.7233 -0.1244  0.5535
 4350SOL    HW113628   2.281   9.176   8.452 -0.4097 -0.9370  0.9533
 4350SOL    HW213629   2.141   9.179   8.511 -0.7142  0.4960  0.2042
 4351SOL     OW13630   3.313   2.606   8.602 -0.3504  0.7714  0.2392
 4351SOL    HW113631   3.383   2.635   8.543  0.2877 -1.7289 -0.3354
 4351SOL    HW213632   3.234   2.609   8.548 -0.2254  0.9822  0.0659
 4352SOL     OW13633   4.171   5.544   6.334  0.3109 -0.4977  0.6989
 4352SOL    HW113634   4.096   5.581   6.382  1.1163  0.4630  1.2621
 4352SOL    HW213635   4.132   5.482   6.272 -0.9649  0.1398  0.8329
 4353SOL     OW13636   4.063   0.857   1.513  0.1941  0.7645  0.9700
 4353SOL    HW113637   4.115   0.852   1.433  0.2318  1.5146  0.9374
 4353SOL    HW213638   3.974   0.833   1.486  0.3990  0.0459  0.9122
 4354SOL     OW13639   0.268   8.903   5.149 -0.0732 -0.3722  0.0031
 4354SOL    HW113640   0.328   8.972   5.179  0.3720 -0.8770  0.2968
 4354SOL    HW213641   0.212   8.885   5.224  0.5412 -1.0997  0.3052
 4355SOL     OW13642   7.132   7.165   9.264 -0.9167 -0.2543  0.1061
 4355SOL    HW113643   7.227   7.155   9.262 -0.9479 -1.4730  1.8768
 4355SOL    HW213644   7.099   7.094   9.208 -0.7878 -0.1523 -0.0976
 4356SOL     OW13645   3.838   4.446   6.789 -0.2349 -0.3095  0.2556
 4356SOL    HW113646   3.908   4.509   6.805 -0.8787  0.6781 -0.7055
 4356SOL    HW213647   3.865   4.398   6.711 -1.1304  0.8660 -0.8125
 4357SOL     OW13648   5.649   4.173   1.350 -0.7217  0.2416  0.1037
 4357SOL    HW113649   5.560   4.200   1.373 -1.6134 -1.4277 -1.1238
 4357SOL    HW213650   5.643   4.078   1.340  0.7892  0.2753 -1.6537
 4358SOL     OW13651   0.617   4.727   8.900  0.1113  0.1866  0.4019
 4358SOL    HW113652   0.693   4.670   8.912  0.8103  1.2618  1.3023
 4358SOL    HW213653   0.587   4.745   8.989  1.0404  2.6630  0.2985
 4359SOL     OW13654   5.792   7.306   1.945  0.4520  0.3841 -0.3356
 4359SOL    HW113655   5.866   7.251   1.970  0.7381  0.8422 -0.1607
 4359SOL    HW213656   5.729   7.246   1.906  0.8470 -0.0327 -0.3309
 4360SOL     OW13657   5.731   7.243   0.050  0.0871  0.2686 -0.3452
 4360SOL    HW113658   5.752   7.264   0.141  0.0195 -2.7207  0.4864
 4360SOL    HW213659   5.816   7.231   0.008  0.1140  0.0649 -0.2338
 4361SOL     OW13660   4.032   4.752   6.778  0.5862  0.0500  0.1393
 4361SOL    HW113661   4.045   4.846   6.767 -0.4075  0.1874  0.1125
 4361SOL    HW213662   3.942   4.737   6.752  0.8990 -1.0030 -0.3948
 4362SOL     OW13663   9.743   2.014   8.526 -0.3116 -0.0316  0.4231
 4362SOL    HW113664   9.817   1.975   8.574  0.7317  0.7072 -0.5400
 4362SOL    HW213665   9.730   1.955   8.451 -0.6670 -0.1205  0.5523
 4363SOL     OW13666   5.452   6.107   4.622  0.3105  0.6013  0.0084
 4363SOL    HW113667   5.431   6.047   4.694  0.5809  0.4202 -0.0578
 4363SOL    HW213668   5.532   6.150   4.651  0.2083  0.8075 -0.0193
 4364SOL     OW13669   7.475   6.120   4.297  0.2034  0.3795 -0.3797
 4364SOL    HW113670   7.567   6.132   4.271  0.3836 -1.4517 -0.7256
 4364SOL    HW213671   7.425   6.148   4.221  0.4825  1.0871 -0.3083
 4365SOL     OW13672   3.163   9.801   4.638 -0.0592 -0.1943  0.4523
 4365SOL    HW113673   3.079   9.839   4.612 -0.2015 -0.3771  0.6516
 4365SOL    HW213674   3.212   9.794   4.555  0.2046  0.9860  0.4882
 4366SOL     OW13675   9.244   5.043   2.491  0.7956 -0.0299 -0.3977
 4366SOL    HW113676   9.294   5.062   2.571  2.6195 -0.0411 -1.4822
 4366SOL    HW213677   9.309   5.042   2.421 -0.6109 -0.9643 -1.7748
 4367SOL     OW13678   7.059   8.544   7.035 -0.1131  0.2695  0.0910
 4367SOL    HW113679   7.066   8.448   7.037  0.3017  0.2991  0.0644
 4367SOL    HW213680   6.982   8.561   6.981  1.9866  0.0368 -3.2558
 4368SOL     OW13681   8.416   9.861   5.887  0.4657 -0.1434  0.1207
 4368SOL    HW113682   8.388   9.953   5.893  0.5907 -0.2204  2.9868
 4368SOL    HW213683   8.386   9.822   5.969  1.4690 -2.3910 -0.5284
 4369SOL     OW13684   0.263   0.999   5.072 -0.1937 -0.0066 -0.3297
 4369SOL    HW113685   0.358   1.013   5.062  0.0152 -0.0363  1.2917
 4369SOL    HW213686   0.240   0.941   5.000  1.1666 -0.5293 -0.3915
 4370SOL     OW13687   0.612   7.709   3.944  0.6307  0.3162  0.3537
 4370SOL    HW113688   0.649   7.761   3.873  0.2474 -3.4389 -2.9773
 4370SOL    HW213689   0.674   7.637   3.956 -0.7498 -0.7116  1.7862
 4371SOL     OW13690   3.538   3.170   4.052 -0.0785  0.1638 -0.0652
 4371SOL    HW113691   3.451   3.152   4.014 -0.9883  0.5136  1.7377
 4371SOL    HW213692   3.577   3.083   4.063 -0.9126 -0.1394  0.6577
 4372SOL     OW13693   9.095   2.259   3.976  0.0893  0.4975 -0.0679
 4372SOL    HW113694   9.112   2.319   3.902 -2.3470 -0.0107 -1.1318
 4372SOL    HW213695   9.182   2.238   4.010  1.4407 -0.0189 -3.4237
 4373SOL     OW13696   2.525   6.674   6.117 -0.4477  0.0261 -0.5951
 4373SOL    HW113697   2.525   6.600   6.057  0.9710  0.0394 -0.6490
 4373SOL    HW213698   2.433   6.701   6.123 -0.8239 -1.0259 -1.4388
 4374SOL     OW13699   9.118   9.148   6.350  0.6715 -0.6597  0.5096
 4374SOL    HW113700   9.168   9.074   6.316  0.0064 -0.8199 -0.1490
 4374SOL    HW213701   9.069   9.180   6.274  0.7828  0.3181  0.8385
 4375SOL     OW13702   5.045   6.028   7.644 -0.5460 -0.0056 -0.0852
 4375SOL    HW113703   4.963   6.041   7.597  0.0940  0.8874 -1.0198
 4375SOL    HW213704   5.036   6.082   7.723 -0.3362  1.2286 -0.8784
 4376SOL     OW13705   5.168   9.801   3.498 -0.1001 -0.0673  0.4782
 4376SOL    HW113706   5.130   9.780   3.413  1.2434  1.8039 -0.6667
 4376SOL    HW213707   5.098   9.847   3.545  0.0089  1.4471 -0.7694
 4377SOL     OW13708   5.244   9.759   3.893  0.4318  0.1167  0.0499
 4377SOL    HW113709   5.204   9.840   3.861  0.6956 -0.1736 -1.0525
 4377SOL    HW213710   5.285   9.783   3.976  1.4850  1.3888 -0.8102
 4378SOL     OW13711   0.222   9.130   9.370  0.1710 -0.1460  0.0812
 4378SOL    HW113712   0.195   9.039   9.369 -2.9520  0.6444 -1.3865
 4378SOL    HW213713   0.170   9.170   9.440  0.2129  0.8065 -0.4139
 4379SOL     OW13714   3.133   5.066   4.526  0.5527 -0.1494  0.6076
 4379SOL    HW113715   3.129   5.155   4.490  2.0223 -0.3883 -0.2004
 4379SOL    HW213716   3.176   5.014   4.459 -2.3450 -2.0568  0.0564
 4380SOL     OW13717   0.465   5.151   7.194 -0.5928  0.4067  0.0695
 4380SOL    HW113718   0.473   5.080   7.131 -1.0343  0.5841 -0.1892
 4380SOL    HW213719   0.512   5.120   7.272  0.4102  0.3906 -0.5186
 4381SOL     OW13720   0.381   1.133   0.347 -0.6448  0.0769  0.1927
 4381SOL    HW113721   0.353   1.215   0.388 -0.8185  0.0561  0.1173
 4381SOL    HW213722   0.469   1.152   0.314 -0.4113  0.0216  0.7694
 4382SOL     OW13723   9.460   1.256   7.741  0.0223 -0.3724  0.3523
 4382SOL    HW113724   9.534   1.205   7.775  1.2495 -0.9088 -2.7273
 4382SOL    HW213725   9.389   1.192   7.732  0.4323 -0.7698 -0.1814
 4383SOL     OW13726   0.428   2.863   2.866  0.7764  0.4095 -0.4209
 4383SOL    HW113727   0.492   2.793   2.882  0.0249 -0.3918 -0.8091
 4383SOL    HW213728   0.404   2.853   2.773  1.4027  1.8322 -0.7547
 4384SOL     OW13729   3.469   1.520   2.625  0.6925  0.1781 -0.3101
 4384SOL    HW113730   3.427   1.475   2.552 -1.0440  2.1431 -0.6496
 4384SOL    HW213731   3.403   1.520   2.695  2.2894 -1.6033  1.3186
 4385SOL     OW13732   0.303   4.492   7.709 -0.1014 -0.9436  0.7158
 4385SOL    HW113733   0.301   4.573   7.658 -0.9796 -0.6099  1.2564
 4385SOL    HW213734   0.300   4.422   7.644  0.2027 -0.5417  0.2614
 4386SOL     OW13735   9.739   5.902   5.903  0.1068 -0.9396 -0.5494
 4386SOL    HW113736   9.732   5.812   5.934 -0.1864 -0.8089 -0.2238
 4386SOL    HW213737   9.684   5.952   5.963 -1.3864 -0.8258 -1.9383
 4387SOL     OW13738   1.544   1.013   3.158 -0.5453  0.4288  0.4787
 4387SOL    HW113739   1.614   0.976   3.211 -2.3707  0.0691  2.7744
 4387SOL    HW213740   1.577   1.099   3.132  1.4766 -0.4826 -0.1535
 4388SOL     OW13741   4.291   4.578   4.819 -0.2880 -0.3215  0.4132
 4388SOL    HW113742   4.330   4.498   4.785  0.4418 -0.2001  0.9359
 4388SOL    HW213743   4.319   4.647   4.758 -0.0842 -0.3126  0.5145
 4389SOL     OW13744   1.233   0.331   1.849 -0.3640  0.0148 -0.1081
 4389SOL    HW113745   1.242   0.299   1.759 -0.6625  0.1590 -0.1932
 4389SOL    HW213746   1.143   0.309   1.873  0.2506 -1.6223  0.8051
 4390SOL     OW13747   1.845   9.940   1.435  0.3704 -1.0319  0.3410
 4390SOL    HW113748   1.769   9.893   1.402 -0.2452  0.5451 -0.5745
 4390SOL    HW213749   1.884   9.880   1.499 -0.5116 -2.6592 -0.5810
 4391SOL     OW13750   2.676   9.552   8.195  0.2060 -0.1522  0.0050
 4391SOL    HW113751   2.663   9.483   8.260  0.0307  0.8054  1.0102
 4391SOL    HW213752   2.643   9.632   8.238 -0.2594  0.4341 -1.3917
 4392SOL     OW13753   2.310   4.417   5.668 -0.0547 -0.6522  0.4159
 4392SOL    HW113754   2.240   4.448   5.611  0.6390  0.6404  0.2292
 4392SOL    HW213755   2.343   4.338   5.625 -0.8469 -0.8126  0.0894
 4393SOL     OW13756   8.335   2.866   2.431 -0.4960 -0.2686 -0.8861
 4393SOL    HW113757   8.247   2.902   2.441 -0.7412 -0.5544 -1.8762
 4393SOL    HW213758   8.340   2.795   2.496  0.0915  1.6546  1.2906
 4394SOL     OW13759   2.531   4.371   8.657 -0.2943 -0.3211  0.3357
 4394SOL    HW113760   2.512   4.291   8.705  0.1887  0.0635  1.2049
 4394SOL    HW213761   2.512   4.350   8.566 -0.5619 -1.2905  0.6020
 4395SOL     OW13762   3.343   8.212   0.584  0.2206 -0.3118 -0.1404
 4395SOL    HW113763   3.351   8.280   0.651  0.0314 -0.6814  0.2646
 4395SOL    HW213764   3.288   8.251   0.517 -0.1569 -0.1807  0.2409
 4396SOL     OW13765   0.426   0.372   2.142 -0.4403  0.5355 -0.0150
 4396SOL    HW113766   0.510   0.407   2.171 -0.2624  1.5283 -1.5826
 4396SOL    HW213767   0.364   0.444   2.157 -0.8749  0.0648  0.4751
 4397SOL     OW13768   8.539   5.471   9.308 -1.0237 -0.3691 -0.0026
 4397SOL    HW113769   8.486   5.550   9.312  1.8336  1.6802  0.9074
 4397SOL    HW213770   8.495   5.410   9.367 -1.3794  1.9504  2.3341
 4398SOL     OW13771   1.387   3.758   7.145 -0.1315 -0.4126  0.0767
 4398SOL    HW113772   1.340   3.723   7.070 -3.3964 -1.4014  2.3362
 4398SOL    HW213773   1.455   3.693   7.164 -0.4732 -1.0678 -0.9014
 4399SOL     OW13774   4.566   3.647   8.777  0.2183  0.6769  0.4952
 4399SOL    HW113775   4.657   3.626   8.798  0.5257  0.5045 -0.8838
 4399SOL    HW213776   4.522   3.653   8.862  1.5048  0.7379  1.1795
 4400SOL     OW13777   1.302   3.288   1.706  0.4990  0.2927 -1.0318
 4400SOL    HW113778   1.248   3.210   1.691  1.1326 -0.3790  0.0511
 4400SOL    HW213779   1.298   3.336   1.623 -0.5708 -0.4712 -1.4421
 4401SOL     OW13780   7.125   6.981   8.681 -0.1079  0.1018  0.1752
 4401SOL    HW113781   7.209   7.000   8.722 -0.1589 -1.0024  0.8514
 4401SOL    HW213782   7.146   6.963   8.589  0.1880  1.2560  0.0080
 4402SOL     OW13783   5.093   2.959   6.924  0.1290  0.2439 -0.0993
 4402SOL    HW113784   5.167   2.902   6.907  0.3304  0.2176  0.8170
 4402SOL    HW213785   5.124   3.047   6.902  0.7611  0.3611  1.1898
 4403SOL     OW13786   2.871   6.223   9.024  0.4798  0.1926 -0.2980
 4403SOL    HW113787   2.890   6.167   8.948 -0.4030 -0.1057 -0.3056
 4403SOL    HW213788   2.850   6.308   8.986  0.7129  0.2254 -0.3527
 4404SOL     OW13789   6.248   6.622   0.615 -0.2310  0.4729  0.6782
 4404SOL    HW113790   6.227   6.656   0.528 -0.1201 -0.2515  0.3612
 4404SOL    HW213791   6.326   6.569   0.601  0.0873  0.7607  1.3181
 4405SOL     OW13792   8.720   7.511   4.064 -0.0801  0.5385  0.4513
 4405SOL    HW113793   8.663   7.587   4.058 -0.9854  0.1358  2.8547
 4405SOL    HW213794   8.662   7.436   4.056  0.2825  0.1244  1.4355
 4406SOL     OW13795   9.839   9.074   8.822  0.1800  0.4644 -0.0767
 4406SOL    HW113796   9.838   9.165   8.848  1.8774  0.6786 -0.6220
 4406SOL    HW213797   9.762   9.064   8.766 -0.4922  1.3260  0.6709
 4407SOL     OW13798   4.649   6.228   7.997  0.0078 -0.0400  0.7396
 4407SOL    HW113799   4.620   6.159   8.057  0.6917 -1.5649 -0.5891
 4407SOL    HW213800   4.705   6.284   8.050 -0.6246 -0.4700  1.8848
 4408SOL     OW13801   4.591  -0.031   2.164  0.2634 -0.5007 -0.2367
 4408SOL    HW113802   4.528  -0.002   2.098 -2.5792  0.7695  2.7815
 4408SOL    HW213803   4.642   0.047   2.184  1.5605 -1.0440 -1.2902
 4409SOL     OW13804   8.575   8.103   1.993  0.1346  0.3595 -0.3012
 4409SOL    HW113805   8.508   8.170   2.009  0.1367  0.0808  0.9274
 4409SOL    HW213806   8.527   8.021   1.989  0.5492 -0.0929  2.4948
 4410SOL     OW13807   5.621   4.383   5.095  0.0347  0.1393  0.2845
 4410SOL    HW113808   5.673   4.306   5.073  0.2317  0.2975  0.1888
 4410SOL    HW213809   5.531   4.352   5.096 -0.0521  0.2705 -1.4264
 4411SOL     OW13810   8.107   9.826   5.618  0.0165  0.0441 -0.4808
 4411SOL    HW113811   8.034   9.867   5.571 -3.9788 -3.8525  1.4757
 4411SOL    HW213812   8.159   9.783   5.550 -0.5116  1.4980 -1.8592
 4412SOL     OW13813   2.074   8.754   1.068  0.2834 -0.8139  0.2584
 4412SOL    HW113814   2.112   8.745   1.156  0.9173 -2.5090 -0.1611
 4412SOL    HW213815   2.018   8.678   1.058 -0.7007 -0.0329 -0.4019
 4413SOL     OW13816   8.144   6.259   4.891  0.0096 -0.0962 -0.2783
 4413SOL    HW113817   8.187   6.263   4.806 -0.9621 -2.1045 -0.9228
 4413SOL    HW213818   8.112   6.169   4.898  0.1735 -0.0270  2.2874
 4414SOL     OW13819   7.588   9.218   3.601  0.0681 -0.7616  0.3944
 4414SOL    HW113820   7.510   9.164   3.608 -0.3499 -0.3927 -1.0460
 4414SOL    HW213821   7.591   9.243   3.509  0.4940  1.2931  0.9227
 4415SOL     OW13822   3.944   6.652   0.491 -0.2469  0.6119 -0.6318
 4415SOL    HW113823   3.982   6.610   0.568  0.2457 -0.5678 -1.4885
 4415SOL    HW213824   3.965   6.744   0.501 -0.9729  0.6260  1.0870
 4416SOL     OW13825   8.979   6.626   4.643  0.3799  0.2988 -0.5383
 4416SOL    HW113826   8.958   6.621   4.550  0.4188 -0.4689 -0.5174
 4416SOL    HW213827   8.909   6.679   4.682 -0.1541 -0.1623 -0.8571
 4417SOL     OW13828   3.812   9.413   8.731 -0.3317  0.1690 -0.7241
 4417SOL    HW113829   3.817   9.505   8.706 -2.0062  0.1389 -1.3151
 4417SOL    HW213830   3.899   9.392   8.763  0.5101  1.5411 -1.9974
 4418SOL     OW13831   9.422   0.585   1.212  0.4772  0.4413 -0.1221
 4418SOL    HW113832   9.448   0.500   1.248  0.2618  0.7150  0.6871
 4418SOL    HW213833   9.350   0.614   1.268  0.2023  0.9243 -0.7119
 4419SOL     OW13834   0.842   1.390   4.913  0.1434 -0.4508  0.1220
 4419SOL    HW113835   0.859   1.368   4.822 -2.7888  0.3812 -0.7397
 4419SOL    HW213836   0.829   1.485   4.913  0.5216 -0.3782  1.4788
 4420SOL     OW13837   8.257   8.328   2.430 -0.1686 -0.0853 -0.1769
 4420SOL    HW113838   8.269   8.344   2.523  1.1479 -0.5200 -0.2466
 4420SOL    HW213839   8.311   8.395   2.387  1.4071 -1.5504 -0.5560
 4421SOL     OW13840   9.828   4.392   0.672  0.4112 -0.0531 -0.0813
 4421SOL    HW113841   9.785   4.460   0.724  1.2062  1.3551 -1.1671
 4421SOL    HW213842   9.840   4.433   0.586  2.9270 -0.7512 -0.1246
 4422SOL     OW13843   7.790   2.955   2.575 -0.4787  0.6532 -0.3294
 4422SOL    HW113844   7.862   2.995   2.624 -1.5425 -0.3835  2.3314
 4422SOL    HW213845   7.715   3.010   2.595 -0.8982  0.3409 -1.0351
 4423SOL     OW13846   0.375   0.273   8.645 -0.0704  0.0799 -0.3274
 4423SOL    HW113847   0.317   0.198   8.658  0.7832 -1.1239 -2.8797
 4423SOL    HW213848   0.463   0.236   8.644  0.3432  1.0092 -2.0375
 4424SOL     OW13849   2.909   0.469   9.243  0.1032 -0.1798 -0.6293
 4424SOL    HW113850   2.985   0.428   9.284  0.4224  0.1892 -0.8490
 4424SOL    HW213851   2.834   0.426   9.283  0.4081  0.1922  0.3654
 4425SOL     OW13852   3.852   8.916   5.915 -0.5239  0.1207 -0.0790
 4425SOL    HW113853   3.902   8.885   5.839 -0.1687  0.6437 -0.0641
 4425SOL    HW213854   3.790   8.980   5.878 -1.2472 -0.5732 -0.1081
 4426SOL     OW13855   2.434   7.444   9.143  0.1343 -0.0602  0.2811
 4426SOL    HW113856   2.368   7.386   9.181 -0.4086  0.4412  0.1157
 4426SOL    HW213857   2.394   7.476   9.062 -0.4685  2.1911  1.3840
 4427SOL     OW13858   4.711   8.984   1.959  0.3057  0.0843  0.1646
 4427SOL    HW113859   4.637   8.940   1.917 -0.8142  1.5973  0.4524
 4427SOL    HW213860   4.693   8.976   2.053  1.0933 -0.4684  0.2814
 4428SOL     OW13861   2.658   2.960   6.526  0.3855 -0.1867 -0.1102
 4428SOL    HW113862   2.580   2.905   6.515  0.5554 -0.3715 -0.4021
 4428SOL    HW213863   2.672   2.963   6.621  0.5786 -0.9340 -0.1118
 4429SOL     OW13864   3.324   0.832   6.573 -0.1977 -0.0654  0.7436
 4429SOL    HW113865   3.284   0.917   6.556  1.8915  0.8870  0.3197
 4429SOL    HW213866   3.266   0.791   6.637 -2.0946  0.9923 -0.2113
 4430SOL     OW13867   5.764   8.486   8.725  0.5811  0.0861  0.1082
 4430SOL    HW113868   5.731   8.509   8.638  3.8335  0.2196 -1.2257
 4430SOL    HW213869   5.775   8.569   8.770 -0.4222  0.0658  0.4155
 4431SOL     OW13870   0.384   0.059   4.277  0.3595  0.1692 -0.0803
 4431SOL    HW113871   0.305   0.111   4.293  0.4526 -0.0047  1.0214
 4431SOL    HW213872   0.377   0.033   4.185  0.1171  1.8002 -0.5644
 4432SOL     OW13873   0.620   0.014   2.624  0.0113 -0.0169  0.1081
 4432SOL    HW113874   0.581   0.073   2.559  0.5951  0.8825  0.5418
 4432SOL    HW213875   0.550  -0.048   2.645 -0.9535  1.0990  0.3227
 4433SOL     OW13876   0.591   1.296   1.576 -0.1315 -0.1742  0.0474
 4433SOL    HW113877   0.626   1.368   1.524 -1.6963 -0.9692 -2.2886
 4433SOL    HW213878   0.667   1.261   1.623  1.6067  0.0914 -2.3629
 4434SOL     OW13879   7.292   7.005   3.391 -0.0490 -0.3587  0.5431
 4434SOL    HW113880   7.198   6.988   3.399 -0.2087  0.5892  0.8876
 4434SOL    HW213881   7.334   6.924   3.420 -0.7588 -1.1762 -0.6564
 4435SOL     OW13882   9.037   7.259   9.432  0.5979  0.0188 -0.4581
 4435SOL    HW113883   9.015   7.341   9.476  1.0130 -0.0876 -0.0529
 4435SOL    HW213884   8.981   7.193   9.472  0.6617  0.0011 -0.3993
 4436SOL     OW13885   2.449   7.918   4.452  0.0903 -0.0127  0.1327
 4436SOL    HW113886   2.491   7.833   4.444 -0.4448 -0.4214  1.3686
 4436SOL    HW213887   2.415   7.920   4.542 -1.5947  0.7061 -0.4647
 4437SOL     OW13888   5.834   3.433   6.318  0.1694  0.2241  0.3172
 4437SOL    HW113889   5.765   3.453   6.254  1.4183 -1.5200 -1.6927
 4437SOL    HW213890   5.839   3.512   6.372 -2.0808  1.1367 -0.6572
 4438SOL     OW13891   4.114   4.546   2.834 -0.1072  0.1156  0.1127
 4438SOL    HW113892   4.183   4.609   2.812 -0.0722  0.0599  0.0619
 4438SOL    HW213893   4.049   4.556   2.764  0.2768 -0.4718 -0.3386
 4439SOL     OW13894   6.134   6.134   2.026  0.4544 -0.2385  0.3030
 4439SOL    HW113895   6.155   6.041   2.029 -2.1940 -0.9136  2.7447
 4439SOL    HW213896   6.039   6.137   2.010  0.7316  2.1488 -1.4029
 4440SOL     OW13897   3.490   6.341   6.181  0.2275  0.5555 -0.0425
 4440SOL    HW113898   3.448   6.307   6.260 -0.1705  0.1405 -0.4255
 4440SOL    HW213899   3.584   6.332   6.198  0.1286 -0.5348 -0.0464
 4441SOL     OW13900   3.205   4.419   7.725  0.1129  0.1144  0.2744
 4441SOL    HW113901   3.274   4.406   7.791  0.2684 -0.6289 -0.0242
 4441SOL    HW213902   3.154   4.492   7.758  0.1389 -0.3021  1.2642
 4442SOL     OW13903   8.098   8.161   1.930 -0.1011  0.0216  0.6358
 4442SOL    HW113904   8.110   8.184   2.023  1.6649 -1.8258  0.9620
 4442SOL    HW213905   8.101   8.065   1.929  1.2557  0.0173 -1.4541
 4443SOL     OW13906   5.982   9.168   3.084 -0.6785  0.1956 -0.2905
 4443SOL    HW113907   6.035   9.157   3.005 -0.4466  0.7055 -0.2092
 4443SOL    HW213908   5.925   9.242   3.064 -2.0901 -0.9520 -0.7609
 4444SOL     OW13909   6.327   7.082   9.620  0.1755 -0.4698  0.3861
 4444SOL    HW113910   6.376   7.012   9.576 -0.7372  0.8797 -3.0995
 4444SOL    HW213911   6.254   7.037   9.661  0.4687 -1.7556 -0.4150
 4445SOL     OW13912   3.228   5.150   1.596 -0.2373 -0.1910 -0.3649
 4445SOL    HW113913   3.149   5.194   1.564  0.1320  1.3184  0.6985
 4445SOL    HW213914   3.236   5.179   1.687  1.2984 -0.6560 -0.3311
 4446SOL     OW13915   5.639   6.019   2.813  0.1844  0.0949  0.1841
 4446SOL    HW113916   5.618   5.946   2.872  0.0452 -0.4181 -0.4895
 4446SOL    HW213917   5.682   6.083   2.869  0.7187 -0.6998  0.7041
 4447SOL     OW13918   7.091   7.834   9.306 -0.4264 -0.1318  0.4117
 4447SOL    HW113919   7.005   7.873   9.322 -0.7783 -0.8829  0.4141
 4447SOL    HW213920   7.076   7.740   9.313 -0.3243 -0.5060 -2.8665
 4448SOL     OW13921   6.534   7.573   4.429  0.0641  0.1366 -0.3240
 4448SOL    HW113922   6.494   7.645   4.379 -0.6673 -0.1815 -0.2174
 4448SOL    HW213923   6.489   7.495   4.398  1.3034 -0.3709 -0.8975
 4449SOL     OW13924   3.552   6.711   6.277  0.0268 -0.4816  0.8773
 4449SOL    HW113925   3.625   6.701   6.338 -0.4199 -0.8326  1.3715
 4449SOL    HW213926   3.590   6.695   6.191  0.8048  0.6645  0.9847
 4450SOL     OW13927   8.208   7.988   5.992 -0.6011  0.3323 -0.3059
 4450SOL    HW113928   8.128   8.039   5.977  0.1889  1.2749 -1.5402
 4450SOL    HW213929   8.248   8.028   6.069 -0.5582  0.8596 -0.5967
 4451SOL     OW13930   4.831   6.157   8.462 -0.1215  0.0201  0.3512
 4451SOL    HW113931   4.809   6.189   8.550 -0.3379  0.0313  0.2948
 4451SOL    HW213932   4.747   6.129   8.426 -0.1268  0.6064 -0.0980
 4452SOL     OW13933   5.429   9.337   7.760  0.2890 -0.5968  0.1916
 4452SOL    HW113934   5.372   9.300   7.827  0.5250 -1.9820 -0.3389
 4452SOL    HW213935   5.388   9.421   7.737  0.3941  0.0851  2.2820
 4453SOL     OW13936   9.510   1.359   3.381 -0.3013  0.0498  0.0727
 4453SOL    HW113937   9.538   1.428   3.321 -0.7964 -0.5953 -0.9307
 4453SOL    HW213938   9.588   1.336   3.431  0.3110  0.0844 -0.8583
 4454SOL     OW13939   2.046   6.125   9.212  0.1367  0.3913  0.5937
 4454SOL    HW113940   2.051   6.040   9.168 -1.8072  1.3842 -1.7677
 4454SOL    HW213941   2.123   6.127   9.268  0.5008 -2.7181  0.3993
 4455SOL     OW13942   6.755   7.411   5.281 -0.4928 -0.7543  0.3375
 4455SOL    HW113943   6.785   7.341   5.224  1.9372 -0.3314  0.9995
 4455SOL    HW213944   6.780   7.492   5.235  0.2990 -0.3991  1.3490
 4456SOL     OW13945   5.392   3.286   6.689 -0.1957  0.2588 -0.2284
 4456SOL    HW113946   5.303   3.313   6.712 -0.1232 -0.6755  1.3218
 4456SOL    HW213947   5.448   3.357   6.723 -0.3215  0.8755 -1.2572
 4457SOL     OW13948   2.605   0.097   0.122  0.0569  0.4857 -0.1613
 4457SOL    HW113949   2.591   0.105   0.028  0.3570 -0.3438 -0.2859
 4457SOL    HW213950   2.518   0.094   0.160 -0.0751  0.1968 -0.4789
 4458SOL     OW13951   9.834   2.581   3.048  0.0470 -0.2378 -0.3603
 4458SOL    HW113952   9.890   2.613   3.119  0.3862  0.9843 -1.1597
 4458SOL    HW213953   9.866   2.626   2.970 -0.9792 -0.7950 -1.1216
 4459SOL     OW13954   8.376   2.201   1.763  0.3802 -0.1454 -0.3191
 4459SOL    HW113955   8.308   2.176   1.826  0.1429 -1.6053 -1.1053
 4459SOL    HW213956   8.428   2.267   1.809 -0.1517 -0.7191  1.1911
 4460SOL     OW13957   1.114   9.762   7.794  0.1113 -0.4565  0.1815
 4460SOL    HW113958   1.048   9.800   7.852 -0.5885 -0.2226 -0.7252
 4460SOL    HW213959   1.065   9.702   7.738  0.7165 -0.4750 -0.3437
 4461SOL     OW13960   3.524   1.666   7.103 -0.5719 -0.4890 -0.1297
 4461SOL    HW113961   3.513   1.680   7.009 -0.6123  0.8396  0.0422
 4461SOL    HW213962   3.617   1.683   7.119 -0.7164  0.0359  0.1741
 4462SOL     OW13963   9.400   7.020   7.783 -0.2106 -0.2151  0.6085
 4462SOL    HW113964   9.486   7.063   7.782 -0.6203  0.6922  1.5315
 4462SOL    HW213965   9.365   7.039   7.870 -1.4066 -0.4419  0.2040
 4463SOL     OW13966   8.690   5.974   4.902  0.2775 -0.1676  0.9180
 4463SOL    HW113967   8.747   6.027   4.846  0.1764  0.2722  1.2263
 4463SOL    HW213968   8.602   6.009   4.886 -0.0311 -1.3446 -0.1334
 4464SOL     OW13969   4.964   7.572   6.549 -0.4622  1.1125 -0.2574
 4464SOL    HW113970   4.929   7.492   6.508  0.3041  0.6127  0.0433
 4464SOL    HW213971   5.050   7.546   6.583 -0.9613  1.5716  1.4655
 4465SOL     OW13972   9.652   0.269   7.698 -0.0090 -0.4490 -0.6693
 4465SOL    HW113973   9.682   0.351   7.737 -1.7921  1.1641 -2.4647
 4465SOL    HW213974   9.562   0.258   7.730  0.3007 -1.9298 -0.1966
 4466SOL     OW13975   2.972   5.963   5.205  0.0354 -0.2456  0.0162
 4466SOL    HW113976   3.032   6.038   5.195  0.9767 -1.0891 -0.8014
 4466SOL    HW213977   2.909   5.973   5.134 -0.9330  0.7358  0.9770
 4467SOL     OW13978   2.834   4.516   1.707 -0.3779  0.1272  0.1017
 4467SOL    HW113979   2.884   4.577   1.762 -1.8940  1.1238  0.4424
 4467SOL    HW213980   2.848   4.547   1.618 -1.9786  1.7190  0.3395
 4468SOL     OW13981   2.619   3.184   1.512  0.0330 -0.0366  0.4006
 4468SOL    HW113982   2.714   3.183   1.529  0.0217 -0.7039  0.4498
 4468SOL    HW213983   2.612   3.199   1.417  0.1280  2.1475  0.6863
 4469SOL     OW13984   4.919   2.722   5.515  0.5009 -0.0916 -0.7049
 4469SOL    HW113985   4.858   2.679   5.455  2.4181 -2.0933 -1.3364
 4469SOL    HW213986   4.952   2.797   5.466  1.0157 -0.9256 -1.6681
 4470SOL     OW13987   0.841   1.870   3.757  0.6244 -0.1465 -0.6918
 4470SOL    HW113988   0.813   1.813   3.685  0.6322  0.1347 -0.9205
 4470SOL    HW213989   0.769   1.867   3.820  2.1400 -3.4398  1.1551
 4471SOL     OW13990   8.851   9.820   8.911 -0.6417 -0.0824 -0.1982
 4471SOL    HW113991   8.944   9.802   8.897  0.3366  2.8403  1.6568
 4471SOL    HW213992   8.824   9.754   8.975  0.7023  0.1432  0.6500
 4472SOL     OW13993   4.389   9.262   4.765  0.0812  0.4940 -0.3236
 4472SOL    HW113994   4.475   9.257   4.723  0.9335 -1.6849  1.4904
 4472SOL    HW213995   4.401   9.220   4.850 -2.7450  0.3281  0.0966
 4473SOL     OW13996   6.775   9.841   2.361  0.3373  0.1430 -0.3772
 4473SOL    HW113997   6.752   9.927   2.326 -0.7214 -0.0518 -0.2043
 4473SOL    HW213998   6.824   9.860   2.441 -1.9151  0.6455  0.9797
 4474SOL     OW13999   5.941   3.416   5.265  0.4172 -0.2136 -0.3434
 4474SOL    HW114000   5.935   3.354   5.192  1.8655 -0.0777 -0.6202
 4474SOL    HW214001   5.978   3.364   5.336  0.2662 -0.0171 -0.1202
 4475SOL     OW14002   8.454   5.120   1.435 -0.2797 -0.1859  0.5086
 4475SOL    HW114003   8.480   5.172   1.359 -0.3666 -0.3290  0.3777
 4475SOL    HW214004   8.492   5.165   1.510 -2.1273  1.2984  0.6333
 4476SOL     OW14005   9.837   7.476   1.867  0.7342  0.3021  0.0386
 4476SOL    HW114006   9.779   7.400   1.858 -1.4627  2.0276 -1.4736
 4476SOL    HW214007   9.886   7.459   1.948 -0.1589 -2.3654  0.1214
 4477SOL     OW14008   7.800   6.512   6.207 -0.1394  0.6900  0.4784
 4477SOL    HW114009   7.848   6.429   6.209  0.7141  1.0738 -1.4929
 4477SOL    HW214010   7.738   6.505   6.279  0.6763 -1.1849  1.0821
 4478SOL     OW14011   6.544   9.003   2.328 -0.4439 -0.4297 -0.2783
 4478SOL    HW114012   6.554   9.088   2.370 -2.6649 -0.1731 -0.1380
 4478SOL    HW214013   6.580   8.941   2.391 -2.6450  0.0576  1.6167
 4479SOL     OW14014   4.577   0.055   8.089  0.1941  0.0899 -0.1450
 4479SOL    HW114015   4.666   0.090   8.085  0.4152 -0.3516  0.5687
 4479SOL    HW214016   4.527   0.120   8.137  0.4170 -0.2026  0.4901
 4480SOL     OW14017   2.218   1.830   3.297  0.2042  0.4640  0.2537
 4480SOL    HW114018   2.211   1.760   3.232 -0.8386 -0.1882  1.0339
 4480SOL    HW214019   2.128   1.863   3.305  0.6769  1.8775 -0.0700
 4481SOL     OW14020   6.644   2.457   9.930  0.5736  0.6296  0.2766
 4481SOL    HW114021   6.690   2.394   9.876 -1.3226  1.2786 -2.2837
 4481SOL    HW214022   6.552   2.447   9.906 -0.1292  2.3547  1.9506
 4482SOL     OW14023   1.860   5.658   9.793 -0.6550 -0.5258 -0.0539
 4482SOL    HW114024   1.826   5.568   9.784 -0.7136 -0.3778 -1.8283
 4482SOL    HW214025   1.824   5.704   9.717  2.2744  0.0396 -1.2264
 4483SOL     OW14026   6.337   8.337   1.798 -0.0959  0.2051 -0.3105
 4483SOL    HW114027   6.244   8.352   1.812  0.1208  0.4596  1.0415
 4483SOL    HW214028   6.354   8.371   1.710 -1.6683 -1.7642 -1.4460
 4484SOL     OW14029   8.050   9.565   3.902 -0.1153  0.6889 -0.4424
 4484SOL    HW114030   8.050   9.643   3.846  2.1236 -1.3022 -3.4842
 4484SOL    HW214031   8.140   9.560   3.935 -0.9424  0.8059  2.0830
 4485SOL     OW14032   9.648   3.063   2.893 -0.1342 -0.5155 -0.5628
 4485SOL    HW114033   9.677   2.972   2.886  0.4349 -0.3933  0.1611
 4485SOL    HW214034   9.706   3.102   2.958 -0.3017  0.3993 -0.9486
 4486SOL     OW14035   7.074   2.330   4.644  0.0325 -0.2755 -0.0116
 4486SOL    HW114036   7.139   2.303   4.709  0.0439 -0.7305 -0.2051
 4486SOL    HW214037   6.990   2.311   4.685  0.0148  0.3661  0.2613
 4487SOL     OW14038   0.367   4.519   0.295  0.1679  0.3132  0.2110
 4487SOL    HW114039   0.348   4.426   0.307  0.9653 -0.0225 -0.9216
 4487SOL    HW214040   0.418   4.544   0.372 -3.0166  0.7558  2.3567
 4488SOL     OW14041   6.066   6.624   9.434 -0.7559  0.2225  0.2621
 4488SOL    HW114042   5.992   6.664   9.388 -0.1926  1.0611  0.0598
 4488SOL    HW214043   6.069   6.669   9.518 -1.1340 -0.5767  0.7196
 4489SOL     OW14044   1.021   0.337   1.092 -0.3716 -0.0918 -0.2511
 4489SOL    HW114045   0.979   0.416   1.127  3.8908  1.7928  1.3885
 4489SOL    HW214046   1.054   0.364   1.006  1.5089  0.2151  0.5120
 4490SOL     OW14047   2.113   0.360   4.697 -0.6802 -0.1077 -0.3410
 4490SOL    HW114048   2.119   0.455   4.708  0.5856 -0.3849  1.8126
 4490SOL    HW214049   2.203   0.331   4.689 -0.9807 -1.2409  0.1888
 4491SOL     OW14050   6.645   7.352   1.510 -0.6042 -0.0485  0.7020
 4491SOL    HW114051   6.647   7.363   1.605  0.1680 -1.4571  0.8838
 4491SOL    HW214052   6.731   7.316   1.489 -1.4505 -1.6042 -0.2533
 4492SOL     OW14053   9.612   9.345   1.450 -0.0378 -0.0111  0.4070
 4492SOL    HW114054   9.651   9.273   1.399 -0.6012 -1.0341  1.3769
 4492SOL    HW214055   9.677   9.415   1.445  1.9458 -1.6270  1.8989
 4493SOL     OW14056   9.704   6.474   0.391 -0.1299  0.5699 -0.0643
 4493SOL    HW114057   9.623   6.522   0.409 -0.6315  0.1666 -1.1765
 4493SOL    HW214058   9.689   6.431   0.307  1.2627  0.5272 -0.3215
 4494SOL     OW14059   2.109   0.141   6.367 -0.5481  0.6738 -0.0478
 4494SOL    HW114060   2.101   0.234   6.348 -1.0349  0.4742 -0.8764
 4494SOL    HW214061   2.131   0.137   6.460  1.9353  1.7061 -0.4924
 4495SOL     OW14062   4.673   7.540   6.980  0.4279  0.6687 -0.2052
 4495SOL    HW114063   4.586   7.561   7.012  0.7630 -1.3455  2.2873
 4495SOL    HW214064   4.732   7.597   7.030  0.7533 -0.3987  0.6551
 4496SOL     OW14065   7.364   0.218   7.141 -0.3889 -0.6021  0.0403
 4496SOL    HW114066   7.358   0.180   7.053 -2.0154  1.9645 -1.0771
 4496SOL    HW214067   7.355   0.143   7.200 -0.2864 -2.2951 -1.9583
 4497SOL     OW14068   0.472   3.034   2.199 -0.1308  0.2105  0.3887
 4497SOL    HW114069   0.398   2.979   2.170 -0.0757  1.6119 -2.8789
 4497SOL    HW214070   0.433   3.119   2.216  0.2727  0.0674  2.1558
 4498SOL     OW14071   1.352   2.345   2.046 -0.4559  0.2238  0.5381
 4498SOL    HW114072   1.275   2.292   2.025 -1.4756  0.2582  3.6601
 4498SOL    HW214073   1.322   2.435   2.032 -0.4811  0.1847  0.3308
 4499SOL     OW14074   5.528   1.031   2.343 -0.0410  0.3627 -0.3284
 4499SOL    HW114075   5.537   1.125   2.354  2.1528  0.0399  1.4000
 4499SOL    HW214076   5.596   1.007   2.281 -0.0454 -0.1719 -0.1378
 4500SOL     OW14077   5.434   1.814   7.744  0.2713  0.2947 -0.1903
 4500SOL    HW114078   5.464   1.724   7.735  1.4344  0.4874  1.2457
 4500SOL    HW214079   5.480   1.847   7.822 -1.0126  1.7606  0.0099
 4501SOL     OW14080   2.938   4.113   9.317 -0.3439  0.1333 -0.3975
 4501SOL    HW114081   2.854   4.080   9.285 -0.1750  0.5631 -1.2943
 4501SOL    HW214082   2.943   4.203   9.284  0.6378 -0.0145 -0.6746
 4502SOL     OW14083   4.900   1.836   5.316  0.5444  0.1264  0.3065
 4502SOL    HW114084   4.852   1.753   5.306  0.1611  0.3928 -0.1049
 4502SOL    HW214085   4.839   1.903   5.286 -0.1555  0.8744  3.1073
 4503SOL     OW14086   9.196   0.987   4.407  0.0217 -0.5454  0.5813
 4503SOL    HW114087   9.213   0.927   4.334 -0.5084 -1.0909  0.8988
 4503SOL    HW214088   9.103   1.008   4.399  0.4428  1.1670 -0.2167
 4504SOL     OW14089   2.038   2.157   7.551  0.1121  0.0831 -0.1038
 4504SOL    HW114090   2.089   2.224   7.507  0.3402 -1.4205 -2.3021
 4504SOL    HW214091   1.952   2.197   7.564  0.2714  0.8651 -1.2543
 4505SOL     OW14092   7.372   4.697   0.295 -0.0087  0.0503 -0.0765
 4505SOL    HW114093   7.288   4.716   0.336  0.5291  0.2959  0.9445
 4505SOL    HW214094   7.420   4.780   0.300  0.5355 -0.2596 -0.0415
 4506SOL     OW14095   6.010   7.298   0.738  0.1604 -0.0619  0.6223
 4506SOL    HW114096   6.037   7.207   0.741  0.0913 -0.1832 -1.4079
 4506SOL    HW214097   6.090   7.347   0.720  0.0751  0.2210  0.9891
 4507SOL     OW14098   3.520   2.376   8.786 -0.1851  0.1006  0.0934
 4507SOL    HW114099   3.599   2.354   8.737 -0.0931  0.4790  0.0695
 4507SOL    HW214100   3.531   2.468   8.809 -0.2238 -0.0685  0.8231
 4508SOL     OW14101   6.403   1.564   4.309  0.4145  0.8166 -0.5492
 4508SOL    HW114102   6.377   1.537   4.221  1.2054  1.8529 -1.1398
 4508SOL    HW214103   6.453   1.645   4.294  1.7864  0.2514  0.7128
 4509SOL     OW14104   1.033   8.234   4.617  0.1406  0.0768 -0.0724
 4509SOL    HW114105   1.001   8.145   4.603 -3.1461  0.6483  2.5044
 4509SOL    HW214106   1.025   8.248   4.711  2.3350  2.5455 -0.1257
 4510SOL     OW14107   0.938   4.764   7.879  0.2764 -0.2271  0.0525
 4510SOL    HW114108   0.886   4.827   7.830 -0.7245 -1.0663  0.0052
 4510SOL    HW214109   0.891   4.754   7.962  0.4010 -0.9523  0.0363
 4511SOL     OW14110   4.707   5.117   6.409  0.1706  0.2991 -0.1472
 4511SOL    HW114111   4.748   5.178   6.349 -1.0002  1.8289  0.5279
 4511SOL    HW214112   4.613   5.127   6.393 -0.0809 -0.7059  0.5820
 4512SOL     OW14113   5.171   2.463   9.290 -0.0673 -0.4898  0.1694
 4512SOL    HW114114   5.107   2.514   9.241  0.2747  0.0689  0.2963
 4512SOL    HW214115   5.184   2.384   9.237 -0.0219 -0.0945 -0.4248
 4513SOL     OW14116   4.058   9.118   1.135  0.2849  0.5225  0.7726
 4513SOL    HW114117   4.044   9.211   1.120 -1.1468  0.0971 -0.7717
 4513SOL    HW214118   4.092   9.085   1.052  1.4508 -0.2199  1.5245
 4514SOL     OW14119   7.476   7.886   4.236  0.0836  0.2104  0.2816
 4514SOL    HW114120   7.441   7.892   4.325 -2.1099  1.1892 -0.5671
 4514SOL    HW214121   7.570   7.902   4.246 -0.5710  4.0454  2.1004
 4515SOL     OW14122   3.595   9.291   7.463  0.6003  0.4080 -0.4685
 4515SOL    HW114123   3.592   9.195   7.463 -0.0230  0.4242  0.1110
 4515SOL    HW214124   3.504   9.318   7.461  0.7718  0.9948 -0.4951
 4516SOL     OW14125   8.975   4.477   7.076 -0.3826 -0.4694  0.8452
 4516SOL    HW114126   9.055   4.505   7.032 -1.4268  1.0539 -0.2186
 4516SOL    HW214127   8.937   4.411   7.017  0.2515 -1.4757  1.5377
 4517SOL     OW14128   2.584   7.946   8.152  0.0292 -0.6680 -0.0575
 4517SOL    HW114129   2.658   7.989   8.195  1.3329 -2.3145 -0.5248
 4517SOL    HW214130   2.561   8.005   8.081  0.9114 -0.1053  0.0999
 4518SOL     OW14131   8.206   8.572   9.276  0.5773 -0.4300 -0.2779
 4518SOL    HW114132   8.117   8.605   9.290  1.8569  2.7028  1.3848
 4518SOL    HW214133   8.216   8.501   9.339  0.0644  0.9780  1.4478
 4519SOL     OW14134   8.265   5.622   0.849  0.2603  0.5579 -0.0471
 4519SOL    HW114135   8.336   5.574   0.806 -0.7858 -0.6809 -0.4576
 4519SOL    HW214136   8.300   5.710   0.863  1.3169  0.4342 -1.6694
 4520SOL     OW14137   4.808   2.022   9.920 -0.0419  0.1005  0.1621
 4520SOL    HW114138   4.791   1.942   9.969 -0.4345 -0.3361 -0.6606
 4520SOL    HW214139   4.741   2.083   9.951  0.1970  0.0824  0.7219
 4521SOL     OW14140   2.674   4.645   6.579  0.4173  0.1238  0.0471
 4521SOL    HW114141   2.681   4.655   6.484  0.6243  0.6848  0.1169
 4521SOL    HW214142   2.752   4.689   6.613 -0.4031  1.2288  0.5446
 4522SOL     OW14143   5.022   0.137   8.854 -0.0282  0.0769 -0.1580
 4522SOL    HW114144   5.016   0.097   8.767 -0.7599 -0.0881 -0.0386
 4522SOL    HW214145   5.103   0.102   8.890  0.3894  0.2991 -0.8448
 4523SOL     OW14146   5.821   1.284   0.736  0.6859 -0.4339  0.4194
 4523SOL    HW114147   5.888   1.268   0.802  1.4795 -2.1492 -0.7350
 4523SOL    HW214148   5.758   1.213   0.747  0.8442 -0.7662 -0.6517
 4524SOL     OW14149   3.290   7.920   7.142  0.5233  0.2072 -0.8595
 4524SOL    HW114150   3.317   7.891   7.229 -1.1313  1.0208 -0.0317
 4524SOL    HW214151   3.370   7.915   7.089  0.9620 -3.1491 -0.1187
 4525SOL     OW14152   5.836   5.266   0.832 -0.6013  0.4878 -0.6836
 4525SOL    HW114153   5.827   5.281   0.926  1.0833  1.5509 -0.6624
 4525SOL    HW214154   5.779   5.191   0.814  0.7101 -1.1284  1.5567
 4526SOL     OW14155   7.951   3.598   6.493  0.1040  0.4156 -0.2913
 4526SOL    HW114156   7.987   3.515   6.462 -1.3679 -0.7823  1.0051
 4526SOL    HW214157   8.027   3.651   6.516  1.0858 -1.5286  1.1713
 4527SOL     OW14158   3.518   2.835   3.527  0.2118  0.1781 -0.0678
 4527SOL    HW114159   3.564   2.758   3.493  2.3022  0.6448  1.4924
 4527SOL    HW214160   3.448   2.800   3.582  0.2020 -0.5906 -0.5678
 4528SOL     OW14161   7.453   1.473   8.998  0.4090 -0.0206  0.5090
 4528SOL    HW114162   7.388   1.430   8.943  0.2663 -0.7376  1.2095
 4528SOL    HW214163   7.416   1.559   9.016  0.5194  0.2761 -0.6053
 4529SOL     OW14164   5.190   1.624   3.907  0.1299 -0.8416  0.2429
 4529SOL    HW114165   5.266   1.574   3.936  0.2469 -0.7488  0.0980
 4529SOL    HW214166   5.119   1.598   3.967 -0.1259 -2.0786 -0.5701
 4530SOL     OW14167   6.004   8.222   2.899 -0.1564  0.3582 -0.3553
 4530SOL    HW114168   5.923   8.214   2.950 -0.5110  0.7264 -0.8551
 4530SOL    HW214169   6.066   8.165   2.944 -0.6614  0.1603  0.0997
 4531SOL     OW14170   5.788   6.753   9.768 -0.5420 -0.1148 -0.1099
 4531SOL    HW114171   5.805   6.823   9.705 -1.2765  0.3501  0.1935
 4531SOL    HW214172   5.737   6.795   9.837  0.8006 -0.4550  1.1435
 4532SOL     OW14173   8.448   0.896   6.892 -0.3899  0.2716 -0.4555
 4532SOL    HW114174   8.541   0.905   6.909 -0.0187  0.4616 -2.3323
 4532SOL    HW214175   8.405   0.943   6.964  1.0403  2.2028 -0.7823
 4533SOL     OW14176   9.397   6.970   5.543  1.0515 -0.3455 -0.3044
 4533SOL    HW114177   9.341   7.047   5.548  0.4540 -0.4572 -3.2524
 4533SOL    HW214178   9.486   7.004   5.554  0.6244  0.0930  2.5220
 4534SOL     OW14179   3.018   2.461   4.219 -0.3970  0.8394  0.4639
 4534SOL    HW114180   2.952   2.405   4.260  0.4792 -0.2070  0.4711
 4534SOL    HW214181   3.040   2.526   4.286  0.6448 -0.5345  1.4922
 4535SOL     OW14182   1.040   4.884   4.256  0.5075  0.0652  0.4354
 4535SOL    HW114183   1.057   4.910   4.166  1.6680  0.5322  0.7731
 4535SOL    HW214184   0.948   4.908   4.271  0.1482 -0.5107 -0.7694
 4536SOL     OW14185   8.126   3.414   1.079 -0.7280 -0.3347 -0.6066
 4536SOL    HW114186   8.152   3.327   1.108  0.2162  1.1977  3.9607
 4536SOL    HW214187   8.208   3.456   1.053 -1.2509 -0.8433 -3.3608
 4537SOL     OW14188   8.748   5.078   2.444 -0.8146 -0.0639  0.0150
 4537SOL    HW114189   8.800   5.013   2.396  1.0846  2.1476 -1.1318
 4537SOL    HW214190   8.762   5.056   2.536 -1.5176 -2.1780 -0.3383
 4538SOL     OW14191   1.224   4.754   8.909 -0.5362  0.2141  0.4735
 4538SOL    HW114192   1.316   4.778   8.901 -0.1723 -0.7316  1.6048
 4538SOL    HW214193   1.221   4.663   8.879 -1.5924  0.9903 -2.0923
 4539SOL     OW14194   8.266   6.277   4.656  0.0444 -0.4432 -0.0974
 4539SOL    HW114195   8.328   6.331   4.608 -0.6530 -1.3405 -2.0924
 4539SOL    HW214196   8.215   6.233   4.589 -1.6705 -0.9960  1.4894
 4540SOL     OW14197   6.987   5.595   4.830  0.5329  0.4106 -0.1522
 4540SOL    HW114198   6.933   5.674   4.830  0.3173  0.2751  0.4300
 4540SOL    HW214199   7.004   5.579   4.923 -1.0064 -1.2870 -0.0965
 4541SOL     OW14200   0.179   8.842   1.317  0.8497  0.1711 -0.0912
 4541SOL    HW114201   0.167   8.750   1.293  2.0919  0.5134 -2.3170
 4541SOL    HW214202   0.231   8.839   1.398 -1.1258 -1.0447  1.2205
 4542SOL     OW14203   0.666   0.231   1.964  0.1877  0.3991  0.2985
 4542SOL    HW114204   0.600   0.183   2.014 -0.2714 -0.4303 -1.0530
 4542SOL    HW214205   0.663   0.192   1.877  3.7259 -0.9530  0.5955
 4543SOL     OW14206   0.496   1.809   4.415 -1.0360 -0.0744 -0.5464
 4543SOL    HW114207   0.573   1.832   4.364 -1.3692 -0.5370 -1.2590
 4543SOL    HW214208   0.497   1.871   4.488 -0.2318  0.2004 -0.7829
 4544SOL     OW14209   6.518   9.475   0.023  0.2568  0.3978 -0.2281
 4544SOL    HW114210   6.607   9.511   0.024  1.4616 -2.3012 -0.9396
 4544SOL    HW214211   6.469   9.533  -0.035  1.2768  2.3965  0.7713
 4545SOL     OW14212   5.601   9.586   6.200  0.2328 -0.2653 -0.0195
 4545SOL    HW114213   5.585   9.643   6.276  1.1225 -0.8293  0.6132
 4545SOL    HW214214   5.667   9.524   6.230 -0.1126 -1.1241 -0.9574
 4546SOL     OW14215   0.195   0.625   6.845  0.9970  0.0117 -0.4896
 4546SOL    HW114216   0.243   0.675   6.912 -1.9068  2.8796 -0.3060
 4546SOL    HW214217   0.250   0.632   6.767  2.4344  0.3081  0.5102
 4547SOL     OW14218   0.757   3.729   9.343  0.2703  0.0074 -0.1263
 4547SOL    HW114219   0.685   3.679   9.382  1.6299 -1.1545  0.9887
 4547SOL    HW214220   0.744   3.720   9.248 -1.6470  0.7543  0.0168
 4548SOL     OW14221   2.701   0.791   9.522  0.2626  0.4236 -0.4430
 4548SOL    HW114222   2.740   0.714   9.563 -1.2059  0.7702  1.8554
 4548SOL    HW214223   2.621   0.807   9.573 -1.8302  0.9079 -3.5780
 4549SOL     OW14224   6.798   8.654   8.232  0.3511 -0.5724  0.8495
 4549SOL    HW114225   6.885   8.630   8.262  0.5859 -0.3434  0.3715
 4549SOL    HW214226   6.763   8.573   8.194  1.1403 -0.1950 -0.7616
 4550SOL     OW14227   6.352   6.285   0.966  0.1728 -0.4915  0.1755
 4550SOL    HW114228   6.335   6.372   1.003  0.0353 -0.5195  0.1762
 4550SOL    HW214229   6.393   6.303   0.881 -0.0320 -0.4255  0.0904
 4551SOL     OW14230   4.119   7.021   8.219 -0.5298 -0.1238 -1.0618
 4551SOL    HW114231   4.158   7.064   8.143  1.8707  0.7787  0.5432
 4551SOL    HW214232   4.092   7.093   8.276 -1.4094 -0.7726 -0.6406
 4552SOL     OW14233   0.798   4.773   9.795 -0.3870 -0.5431 -0.2031
 4552SOL    HW114234   0.734   4.708   9.825 -2.4774  0.5880 -1.9364
 4552SOL    HW214235   0.869   4.767   9.859 -1.6428 -2.7168  1.1452
 4553SOL     OW14236   7.650   0.864   1.442  0.2098 -0.4292 -0.5415
 4553SOL    HW114237   7.732   0.829   1.409  1.7240  2.6647 -0.4189
 4553SOL    HW214238   7.613   0.913   1.369  0.1143  0.8074  0.2982
 4554SOL     OW14239   6.349   7.828   0.649  0.6220 -0.2531 -0.2989
 4554SOL    HW114240   6.322   7.908   0.693 -0.7867  0.7099 -2.7111
 4554SOL    HW214241   6.445   7.830   0.651  0.6387 -0.2509  2.5160
 4555SOL     OW14242   7.829   1.356   2.576  0.2041  0.6883  0.0341
 4555SOL    HW114243   7.832   1.318   2.663 -0.4917  0.8861  0.1493
 4555SOL    HW214244   7.920   1.354   2.546  0.3779  0.2031  0.5769
 4556SOL     OW14245   6.691   3.240   4.348  0.5840  0.2273  0.1945
 4556SOL    HW114246   6.690   3.336   4.356 -0.5536  0.2860 -0.5333
 4556SOL    HW214247   6.603   3.213   4.373  0.3255 -0.4645 -1.3550
 4557SOL     OW14248   9.242   7.908   3.833  0.6029 -0.1936  0.0055
 4557SOL    HW114249   9.299   7.874   3.902  0.9433 -0.4018 -0.3751
 4557SOL    HW214250   9.299   7.920   3.757  0.1719 -0.2932 -0.3442
 4558SOL     OW14251   6.305   5.875   5.722 -0.1156  0.1893  0.4161
 4558SOL    HW114252   6.394   5.841   5.730 -1.0916 -2.2580  2.2878
 4558SOL    HW214253   6.287   5.917   5.806 -0.2375  2.1622 -0.5398
 4559SOL     OW14254   1.412   3.725   3.307  0.0562  0.0164 -0.3515
 4559SOL    HW114255   1.381   3.738   3.397 -0.1885 -0.2015 -0.4016
 4559SOL    HW214256   1.342   3.674   3.265  1.1670 -1.8902 -0.0139
 4560SOL     OW14257   1.750   0.769   9.213  0.2868 -0.8110 -0.4562
 4560SOL    HW114258   1.691   0.696   9.233  0.4382 -0.4083  1.7117
 4560SOL    HW214259   1.837   0.729   9.213  0.5184 -0.4751  2.1801
 4561SOL     OW14260   1.204   3.338   9.657 -0.0502 -0.2681 -0.0228
 4561SOL    HW114261   1.263   3.361   9.585  0.4380 -1.1875  0.0680
 4561SOL    HW214262   1.181   3.247   9.641 -1.7091  0.1534 -0.2227
 4562SOL     OW14263   8.149   5.745   7.564  0.2056  0.6363  0.5677
 4562SOL    HW114264   8.179   5.680   7.500 -1.6374  0.6034 -0.3211
 4562SOL    HW214265   8.118   5.692   7.638  1.0549  0.6168  0.9134
 4563SOL     OW14266   9.548   9.846   0.917 -0.0401  0.5662  0.3569
 4563SOL    HW114267   9.580   9.919   0.862  1.1949  0.2511  0.6166
 4563SOL    HW214268   9.515   9.782   0.854  3.5203 -0.8390 -0.3110
 4564SOL     OW14269   6.713   0.169   3.960 -0.4035  0.3942 -0.4675
 4564SOL    HW114270   6.791   0.115   3.947 -0.5534 -0.1998  1.0143
 4564SOL    HW214271   6.668   0.166   3.875  0.3411 -0.5915 -0.8491
 4565SOL     OW14272   4.391   7.239   1.285 -0.3202  0.0634  0.2063
 4565SOL    HW114273   4.375   7.272   1.374 -0.6643  0.3814  0.0274
 4565SOL    HW214274   4.408   7.145   1.298 -3.0900 -0.5280  0.3773
 4566SOL     OW14275   6.804   4.846   3.341 -0.5796 -0.1259  0.4258
 4566SOL    HW114276   6.709   4.850   3.350 -0.3525  2.8004  3.2848
 4566SOL    HW214277   6.836   4.836   3.430  1.8260  0.0437 -0.3558
 4567SOL     OW14278   6.060   5.149   9.019  0.5682  0.8168 -0.1674
 4567SOL    HW114279   6.053   5.166   8.925 -1.1364  0.9018 -0.0565
 4567SOL    HW214280   6.146   5.183   9.043  0.7142  1.4972 -1.5485
 4568SOL     OW14281   3.879   3.794   2.752 -0.5633 -0.4271  0.2243
 4568SOL    HW114282   3.897   3.887   2.738 -0.1028 -0.4689  0.5503
 4568SOL    HW214283   3.786   3.785   2.732 -0.4362 -0.0463 -0.5895
 4569SOL     OW14284   0.401   1.815   7.069  0.3387 -0.3794 -0.2259
 4569SOL    HW114285   0.431   1.731   7.103  0.8531 -0.1941 -0.1960
 4569SOL    HW214286   0.308   1.819   7.092  0.1446 -1.2262 -0.8330
 4570SOL     OW14287   1.419   8.923   5.261  0.4008 -0.2323  0.2868
 4570SOL    HW114288   1.375   8.848   5.300 -0.3823 -0.4788 -0.9995
 4570SOL    HW214289   1.457   8.889   5.180  0.9378  0.5266  0.2051
 4571SOL     OW14290   5.039   7.140   3.959  0.4136  0.3071  0.3636
 4571SOL    HW114291   5.128   7.170   3.941  0.5912 -0.5952 -0.3023
 4571SOL    HW214292   4.987   7.221   3.962  1.3387  0.8932  1.3695
 4572SOL     OW14293   9.459   4.758   7.912  0.8851 -0.0819  0.1939
 4572SOL    HW114294   9.408   4.828   7.954  0.6918  1.2586 -2.0991
 4572SOL    HW214295   9.423   4.677   7.948 -1.9746  0.8476 -0.3274
 4573SOL     OW14296   2.688   2.284   7.171 -0.0147 -0.4318  0.3697
 4573SOL    HW114297   2.781   2.264   7.178  0.9818  3.1958 -0.3609
 4573SOL    HW214298   2.673   2.353   7.236 -1.2636  1.5169 -1.8142
 4574SOL     OW14299   0.030   5.804   3.722 -0.1515 -0.3233 -0.2341
 4574SOL    HW114300   0.018   5.734   3.658  1.3722  1.5396 -2.7722
 4574SOL    HW214301   0.113   5.784   3.764 -0.6234 -0.9781  0.4114
 4575SOL     OW14302   6.145   9.549   0.913 -0.2478  0.0226 -0.4284
 4575SOL    HW114303   6.239   9.564   0.930 -0.1334  0.0686 -1.0975
 4575SOL    HW214304   6.119   9.487   0.981  0.7493 -1.5894 -1.4361
 4576SOL     OW14305   4.680   9.009   7.280  0.2650 -0.0459 -0.6908
 4576SOL    HW114306   4.741   8.938   7.302 -0.3238 -0.1748  0.6497
 4576SOL    HW214307   4.657   8.994   7.189  1.4487 -0.5852 -0.9232
 4577SOL     OW14308   1.839   6.324   3.920 -0.3110 -0.3475  0.2600
 4577SOL    HW114309   1.901   6.260   3.955  1.7559  1.5565  0.3121
 4577SOL    HW214310   1.878   6.352   3.837 -1.6481  0.1539 -0.2194
 4578SOL     OW14311   2.718   6.526   1.386 -0.6302 -0.3858  0.4735
 4578SOL    HW114312   2.678   6.439   1.376 -3.7895  0.8366  1.5383
 4578SOL    HW214313   2.758   6.523   1.473  3.0796 -1.9997 -1.0210
 4579SOL     OW14314   0.582   8.305   0.667  0.1667  0.0993 -0.5015
 4579SOL    HW114315   0.525   8.250   0.722  0.9541 -0.0035  0.2358
 4579SOL    HW214316   0.551   8.395   0.683  0.5003  0.0859  0.2624
 4580SOL     OW14317   0.377   6.831   1.794  0.2747 -0.2502  0.9615
 4580SOL    HW114318   0.463   6.872   1.797 -0.3420  1.1912  0.2182
 4580SOL    HW214319   0.344   6.850   1.706 -0.6504 -1.1047  1.0966
 4581SOL     OW14320   3.086   2.297   1.098  0.0694 -0.0873 -0.1975
 4581SOL    HW114321   3.083   2.206   1.069  0.8189 -0.4106  0.6831
 4581SOL    HW214322   3.127   2.294   1.185 -0.3971  1.0319  0.0917
 4582SOL     OW14323   8.733   4.219   9.040 -0.0441 -0.2235 -0.2462
 4582SOL    HW114324   8.728   4.272   9.119  2.1943  4.1145 -2.5865
 4582SOL    HW214325   8.790   4.145   9.063  1.0706  1.2346  2.0670
 4583SOL     OW14326   6.435   0.912   9.545 -0.1919 -0.0975  0.0465
 4583SOL    HW114327   6.378   0.907   9.622  0.1576 -0.6220  0.2781
 4583SOL    HW214328   6.424   0.828   9.501 -0.6685  0.3371 -0.6835
 4584SOL     OW14329   8.027   8.953   1.470  0.0909 -0.5011 -0.3254
 4584SOL    HW114330   8.048   8.860   1.466  3.5294  0.1368 -0.3935
 4584SOL    HW214331   8.005   8.969   1.561  1.8171 -1.0314  0.2182
 4585SOL     OW14332   7.606   6.304   3.286 -0.0203 -0.3204  0.4312
 4585SOL    HW114333   7.660   6.341   3.216  0.1929  2.6162  1.9805
 4585SOL    HW214334   7.668   6.278   3.354 -0.3347 -1.1125  0.4269
 4586SOL     OW14335   7.606   0.132   2.009  0.3144  0.6906  0.0630
 4586SOL    HW114336   7.554   0.185   1.948 -1.0865 -1.6011 -0.8349
 4586SOL    HW214337   7.671   0.090   1.955 -1.0384 -1.4905  0.0225
 4587SOL     OW14338   7.899   7.342   5.985  0.1272  0.3187  0.2189
 4587SOL    HW114339   7.889   7.436   6.001 -0.5250  0.7185 -2.1022
 4587SOL    HW214340   7.977   7.336   5.929  0.7153 -0.6425  1.1096
 4588SOL     OW14341   6.682   2.470   0.396  0.0468  0.6177 -0.0476
 4588SOL    HW114342   6.740   2.474   0.320  1.5726 -2.3991  0.8043
 4588SOL    HW214343   6.640   2.385   0.389 -0.8764  0.8824  1.7565
 4589SOL     OW14344   2.271   9.666   1.889 -0.3041  0.4452  0.1539
 4589SOL    HW114345   2.270   9.719   1.969  1.0233 -1.5785  1.6011
 4589SOL    HW214346   2.180   9.642   1.874 -0.4375 -0.1896  1.8293
 4590SOL     OW14347   1.689   7.463   6.747  0.7460  0.3157  0.3033
 4590SOL    HW114348   1.648   7.453   6.833  2.9278 -1.1036  1.2721
 4590SOL    HW214349   1.655   7.546   6.714  0.1304  1.1091  2.7087
 4591SOL     OW14350   7.281   0.192   1.516 -0.2151  0.6448  0.4724
 4591SOL    HW114351   7.349   0.132   1.484 -0.7349 -0.3601  1.1869
 4591SOL    HW214352   7.211   0.184   1.452  0.0921  1.2306  0.0541
 4592SOL     OW14353   5.513   1.402   8.456  0.1806 -0.1144 -0.5828
 4592SOL    HW114354   5.480   1.316   8.480  1.6060 -0.5920 -0.2357
 4592SOL    HW214355   5.437   1.459   8.462 -0.6621 -1.2368 -0.2417
 4593SOL     OW14356   6.280   8.680   0.217  0.4291  0.1326 -0.0425
 4593SOL    HW114357   6.226   8.755   0.243 -0.5173 -0.0135 -1.4801
 4593SOL    HW214358   6.219   8.620   0.176  0.9678 -1.9912  2.0565
 4594SOL     OW14359   0.496   3.004   2.503  0.1315  0.0161 -0.2205
 4594SOL    HW114360   0.503   3.013   2.408 -0.1817 -0.0510 -0.2500
 4594SOL    HW214361   0.573   2.952   2.528  2.1300  2.7857 -0.0364
 4595SOL     OW14362   6.571   1.179   7.944  0.3446 -0.3961  0.7335
 4595SOL    HW114363   6.565   1.125   8.023  1.5026 -0.8627  0.5323
 4595SOL    HW214364   6.657   1.157   7.907  0.6431  1.2419  0.3844
 4596SOL     OW14365   4.750   6.213   6.510  0.4013 -0.2356  0.4954
 4596SOL    HW114366   4.666   6.220   6.555 -0.4605 -2.4293 -0.6043
 4596SOL    HW214367   4.787   6.130   6.540  0.6678 -0.8371 -1.3641
 4597SOL     OW14368   6.818   6.938   0.392 -0.0373 -0.4878 -0.2107
 4597SOL    HW114369   6.887   6.871   0.390 -0.1239 -0.6394  0.9612
 4597SOL    HW214370   6.795   6.952   0.300  1.5335 -0.4516 -0.6313
 4598SOL     OW14371   1.660   4.465   1.834  0.5118  0.0983  0.6920
 4598SOL    HW114372   1.599   4.487   1.763 -0.4903  0.6672  1.7119
 4598SOL    HW214373   1.605   4.459   1.912  1.3294 -2.1518  1.1839
 4599SOL     OW14374   4.441   2.958   6.689  0.6238 -0.1783  0.3621
 4599SOL    HW114375   4.484   3.013   6.624  1.0205 -0.6887  0.1930
 4599SOL    HW214376   4.410   2.882   6.640  0.8627 -0.5321  0.7575
 4600SOL     OW14377   4.334   1.013   8.185  0.3821 -0.0167  0.4242
 4600SOL    HW114378   4.266   1.030   8.251  1.4280  0.6728  1.3488
 4600SOL    HW214379   4.315   0.924   8.155  0.4232 -0.7238  2.3261
 4601SOL     OW14380   4.005   7.793   2.031  0.4488 -0.1515 -0.1651
 4601SOL    HW114381   3.972   7.873   1.991 -0.0545 -0.7459 -0.9676
 4601SOL    HW214382   4.052   7.748   1.961  0.9880 -0.4224  0.3582
 4602SOL     OW14383   1.235   2.139   4.156 -0.0367 -0.4165  0.5574
 4602SOL    HW114384   1.252   2.223   4.115  0.3148 -0.4032  0.7215
 4602SOL    HW214385   1.140   2.134   4.164 -0.0839 -0.2419  0.1229
 4603SOL     OW14386   9.469   1.198   5.846 -0.6042 -0.3450 -0.4869
 4603SOL    HW114387   9.478   1.104   5.833  1.0837 -0.0653 -1.8573
 4603SOL    HW214388   9.559   1.232   5.837 -1.0503  1.3065  0.7870
 4604SOL     OW14389   0.054   1.471   6.394  0.6324 -0.1811  0.0981
 4604SOL    HW114390   0.048   1.556   6.438  0.5844 -0.6285  0.9658
 4604SOL    HW214391   0.079   1.410   6.463 -0.1003 -1.0184 -0.3613
 4605SOL     OW14392   8.413   8.452   8.797 -0.6262 -0.0273 -0.3459
 4605SOL    HW114393   8.442   8.519   8.734 -2.1803  0.6219 -0.4197
 4605SOL    HW214394   8.388   8.502   8.874  2.3981 -0.8930  1.3599
 4606SOL     OW14395   4.967   5.935   5.312 -0.0939  0.6330 -0.0912
 4606SOL    HW114396   5.058   5.929   5.342 -0.7498  0.0556  1.9961
 4606SOL    HW214397   4.972   5.925   5.217  2.1231  1.9635 -0.1879
 4607SOL     OW14398   6.965   5.148   3.699  0.5338 -0.3419  0.2637
 4607SOL    HW114399   6.943   5.241   3.701 -0.5416 -0.5989  0.6943
 4607SOL    HW214400   7.033   5.138   3.766  0.8515  0.1733  0.0243
 4608SOL     OW14401   7.302   3.181   2.560 -0.0538 -0.0178  0.6149
 4608SOL    HW114402   7.210   3.172   2.538  0.2611 -1.1859 -0.3333
 4608SOL    HW214403   7.317   3.275   2.568 -1.1726  0.2037  0.1343
 4609SOL     OW14404   8.717   5.669   3.540  0.3206  0.0443 -0.1744
 4609SOL    HW114405   8.799   5.682   3.491  0.1098  0.3838 -0.4361
 4609SOL    HW214406   8.730   5.586   3.585  1.0154  0.3441  0.1955
 4610SOL     OW14407   3.574   3.586   8.008 -0.2310  0.4016 -0.0428
 4610SOL    HW114408   3.529   3.504   8.027  0.4691 -1.0103 -3.7080
 4610SOL    HW214409   3.504   3.647   7.985 -0.5581 -0.5618 -1.7139
 4611SOL     OW14410   4.616   4.853   1.666 -0.4904  0.2163 -0.3434
 4611SOL    HW114411   4.707   4.872   1.641  0.2375 -0.3514  1.6704
 4611SOL    HW214412   4.564   4.883   1.591  1.3883 -0.1325 -1.8796
 4612SOL     OW14413   1.909   1.859   4.474  0.5877 -0.3260 -0.4503
 4612SOL    HW114414   1.970   1.833   4.404  0.4379 -1.1757 -0.2777
 4612SOL    HW214415   1.848   1.919   4.431  0.1567 -1.2779 -1.1961
 4613SOL     OW14416   1.125   7.248   4.041  0.1669  0.2488  0.2037
 4613SOL    HW114417   1.204   7.194   4.042  0.9017  1.3119  0.8082
 4613SOL    HW214418   1.061   7.195   3.994  1.3404 -0.4937 -0.6159
 4614SOL     OW14419  -0.012   6.572   5.786 -0.2493  0.0132  0.5429
 4614SOL    HW114420   0.079   6.569   5.814 -0.0433 -0.3264 -0.1665
 4614SOL    HW214421  -0.041   6.660   5.810  0.4694  0.3713  0.1084
 4615SOL     OW14422   5.238   5.810   6.060  0.2851 -0.4115 -0.3738
 4615SOL    HW114423   5.169   5.775   6.003 -2.8737 -0.0156  2.8068
 4615SOL    HW214424   5.281   5.732   6.095 -0.4800 -0.8123 -0.2884
 4616SOL     OW14425   2.075   5.871   4.209 -0.3521  0.2798  0.0167
 4616SOL    HW114426   2.121   5.832   4.135  1.9622 -1.7584  2.3023
 4616SOL    HW214427   1.984   5.844   4.198  0.0505 -0.4979 -1.7172
 4617SOL     OW14428   9.391   6.106   3.833  0.0157  0.4705  0.0648
 4617SOL    HW114429   9.477   6.066   3.838 -0.1725  0.1815  1.0349
 4617SOL    HW214430   9.338   6.043   3.785  0.0652  0.1534  0.4225
 4618SOL     OW14431   3.441   3.558   3.022  0.2331  0.0769 -0.0455
 4618SOL    HW114432   3.391   3.552   2.941  1.2420 -0.2159 -0.6756
 4618SOL    HW214433   3.465   3.650   3.030 -1.0159  0.3636  0.6644
 4619SOL     OW14434   8.744   2.900   5.429 -0.2959 -0.1805 -0.2881
 4619SOL    HW114435   8.710   2.812   5.442  0.2713 -0.3810 -0.1250
 4619SOL    HW214436   8.669   2.951   5.398 -0.5362 -0.8073 -0.7480
 4620SOL     OW14437   0.921   4.771   2.675 -0.2886  0.1109 -0.2557
 4620SOL    HW114438   0.923   4.702   2.608  1.4580 -1.8410  1.6394
 4620SOL    HW214439   0.837   4.760   2.718 -0.0490 -0.8521 -0.0088
 4621SOL     OW14440   7.701   7.746   2.704  0.0706  0.0594 -0.0076
 4621SOL    HW114441   7.732   7.697   2.780  1.1079 -1.0213 -1.0833
 4621SOL    HW214442   7.773   7.742   2.642 -0.6759  1.0950 -0.9860
 4622SOL     OW14443   7.975   1.524   9.509 -0.5976  0.1142  0.0175
 4622SOL    HW114444   7.919   1.543   9.584 -0.0366  2.1606 -0.0476
 4622SOL    HW214445   8.056   1.571   9.527 -0.0191 -0.3170 -1.3477
 4623SOL     OW14446   9.156   7.251   1.409  0.4484  0.0315 -1.2650
 4623SOL    HW114447   9.147   7.330   1.357 -0.1695  0.2899 -0.7781
 4623SOL    HW214448   9.072   7.207   1.401 -0.4403  1.1018  1.1383
 4624SOL     OW14449   7.348   6.259   5.621 -0.7494  0.4699 -0.0832
 4624SOL    HW114450   7.276   6.302   5.574  0.9270  1.8167 -1.5403
 4624SOL    HW214451   7.392   6.206   5.555 -0.1996 -0.1000  0.7260
 4625SOL     OW14452   7.599   2.987   9.978  0.2756 -0.2814  0.1432
 4625SOL    HW114453   7.534   2.928   9.941  0.8799 -2.1122  1.8398
 4625SOL    HW214454   7.682   2.961   9.936  0.2530  0.7072 -0.5464
 4626SOL     OW14455   7.895   7.284   4.843 -0.2501 -0.2254 -0.0153
 4626SOL    HW114456   7.949   7.250   4.914 -1.2348 -1.6643  0.0789
 4626SOL    HW214457   7.834   7.345   4.885 -0.4075 -0.5858  0.2810
 4627SOL     OW14458   0.663   3.647   9.823  0.5388  0.5055 -0.2520
 4627SOL    HW114459   0.679   3.570   9.768  2.0962 -0.1422  1.0132
 4627SOL    HW214460   0.651   3.611   9.911 -1.6258  1.5375 -0.0537
 4628SOL     OW14461   7.460   8.443   1.365 -0.3193 -0.1638  0.2986
 4628SOL    HW114462   7.526   8.391   1.320  0.1234 -0.0020  0.7473
 4628SOL    HW214463   7.419   8.496   1.296  0.1618 -0.1188  0.0475
 4629SOL     OW14464   5.780   0.905   9.473  0.1324  0.1340 -0.0192
 4629SOL    HW114465   5.768   0.822   9.519  1.3145 -2.2961 -3.6376
 4629SOL    HW214466   5.725   0.896   9.395  0.7553  2.5619 -0.8061
 4630SOL     OW14467   0.308   0.199   3.949  0.2795 -0.6151 -0.7158
 4630SOL    HW114468   0.401   0.187   3.935  0.5368 -1.4186  1.3310
 4630SOL    HW214469   0.302   0.264   4.019 -0.6822 -0.4638 -0.9257
 4631SOL     OW14470   1.124   3.982   3.360  0.3312 -0.0338 -0.0497
 4631SOL    HW114471   1.119   3.892   3.328 -1.7276 -0.3392  0.9557
 4631SOL    HW214472   1.172   4.029   3.292 -2.0406 -1.0606 -2.6442
 4632SOL     OW14473   2.211   1.592   4.564  0.4022 -0.0881 -1.0102
 4632SOL    HW114474   2.235   1.527   4.631  0.3279  1.2998  0.4152
 4632SOL    HW214475   2.228   1.547   4.481  0.3979 -1.9148 -0.0907
 4633SOL     OW14476   8.648   0.023   6.142  1.1576  0.2248 -0.3819
 4633SOL    HW114477   8.590  -0.051   6.124  1.1994  0.2903 -0.7962
 4633SOL    HW214478   8.692   0.040   6.059  0.9028  0.9312 -0.3862
 4634SOL     OW14479   7.018   4.466   8.342 -0.1905 -0.9274  0.0109
 4634SOL    HW114480   7.080   4.539   8.351 -0.7582 -0.6611  2.8417
 4634SOL    HW214481   7.073   4.388   8.346  0.1677 -0.6769  0.0773
 4635SOL     OW14482   6.715   6.149   2.248 -0.1960  0.4243 -0.7927
 4635SOL    HW114483   6.685   6.215   2.310  0.9229  0.3844 -0.1946
 4635SOL    HW214484   6.786   6.192   2.200  0.5812 -0.3638 -0.3582
 4636SOL     OW14485   4.659   0.074   7.598 -0.3260 -0.4257  0.1424
 4636SOL    HW114486   4.743   0.080   7.644 -0.1872 -2.5900  0.3077
 4636SOL    HW214487   4.680   0.091   7.506  0.1360 -0.1616  0.2958
 4637SOL     OW14488   4.740   0.515   8.436  0.2818  0.1758 -0.1915
 4637SOL    HW114489   4.659   0.566   8.435 -0.0263 -0.2682  0.7970
 4637SOL    HW214490   4.712   0.424   8.436  0.8345 -0.1855 -4.2546
 4638SOL     OW14491   3.092   5.756   5.350 -0.1056  0.5886 -0.0992
 4638SOL    HW114492   3.179   5.782   5.318 -0.8607  1.0009 -1.9362
 4638SOL    HW214493   3.031   5.812   5.302 -1.5105 -1.1169 -0.3971
 4639SOL     OW14494   9.181   7.923   3.470  0.8506  0.1367 -0.1619
 4639SOL    HW114495   9.210   7.998   3.417  0.8891  0.4261  0.2621
 4639SOL    HW214496   9.258   7.895   3.518  0.9121 -0.3814 -0.5540
 4640SOL     OW14497   5.110   3.947   1.163  0.1096 -0.0980  0.6416
 4640SOL    HW114498   5.150   3.907   1.085  1.0998 -0.8415  1.5050
 4640SOL    HW214499   5.184   3.978   1.214 -0.6036  2.8775  0.0562
 4641SOL     OW14500   2.178   0.946   0.490  0.0499  0.2899 -0.6378
 4641SOL    HW114501   2.126   1.022   0.465  0.3350  0.7932  0.2725
 4641SOL    HW214502   2.162   0.883   0.420 -1.9798  0.3273 -0.2615
 4642SOL     OW14503   6.077   2.168   0.095 -0.5559  0.0059 -0.2707
 4642SOL    HW114504   6.119   2.083   0.080 -0.7452 -0.1482  0.0627
 4642SOL    HW214505   6.088   2.215   0.012  1.3714  0.4494  0.1891
 4643SOL     OW14506   1.726   4.097   8.236 -0.0196 -0.1761 -0.2472
 4643SOL    HW114507   1.631   4.090   8.247 -0.2821  2.0544 -0.5075
 4643SOL    HW214508   1.738   4.115   8.143  0.6077  0.0999 -0.1192
 4644SOL     OW14509   6.786   5.274   1.570  0.5291  0.0492 -0.3806
 4644SOL    HW114510   6.814   5.191   1.532 -2.7858 -1.3437 -0.1108
 4644SOL    HW214511   6.721   5.307   1.508  2.3861  2.9981 -0.9357
 4645SOL     OW14512   9.294   0.112   8.028 -0.1832  0.0548  0.1911
 4645SOL    HW114513   9.352   0.038   8.046  1.1973  0.8888 -0.6389
 4645SOL    HW214514   9.328   0.183   8.083 -0.9696  0.3204  0.3452
 4646SOL     OW14515   5.520   4.835   6.402  0.6642 -0.1001 -0.3480
 4646SOL    HW114516   5.441   4.781   6.412  0.1473  0.7890  0.6887
 4646SOL    HW214517   5.585   4.775   6.366 -0.2804 -1.0479 -0.5603
 4647SOL     OW14518   6.872   0.393   4.659 -0.0068 -0.4141 -0.0744
 4647SOL    HW114519   6.791   0.417   4.614  0.4332 -0.1005 -0.7137
 4647SOL    HW214520   6.941   0.407   4.594  0.3564 -2.9111 -0.3264
 4648SOL     OW14521   1.307   1.222   3.487 -0.3492  0.5817 -0.6427
 4648SOL    HW114522   1.278   1.272   3.411 -0.8101  0.3386 -0.6301
 4648SOL    HW214523   1.287   1.131   3.465 -2.0580  0.6603  0.4538
 4649SOL     OW14524   7.726   8.242   7.979  1.1585 -0.0812  0.2108
 4649SOL    HW114525   7.763   8.154   7.983  0.7508 -0.2258  0.8623
 4649SOL    HW214526   7.800   8.299   7.999  1.7544 -0.1737 -1.5601
 4650SOL     OW14527   4.434   7.492   5.325  0.0077 -0.0177  0.3620
 4650SOL    HW114528   4.352   7.515   5.368 -1.8438 -2.2768 -1.6802
 4650SOL    HW214529   4.408   7.462   5.238  3.1150 -0.0615 -0.6791
 4651SOL     OW14530   6.499   2.012   5.491 -0.4099 -0.0199  0.4443
 4651SOL    HW114531   6.490   1.983   5.582 -1.4286  1.9917  1.0466
 4651SOL    HW214532   6.588   2.047   5.485  0.5515 -2.3935 -0.0785
 4652SOL     OW14533   9.062   6.359   3.176 -0.1921 -0.0815 -0.6943
 4652SOL    HW114534   8.968   6.344   3.186 -0.6304  1.8778 -1.4935
 4652SOL    HW214535   9.076   6.447   3.210  1.9092 -1.3401  2.0948
 4653SOL     OW14536   1.893   7.590   3.082 -0.2305 -0.3343  0.0796
 4653SOL    HW114537   1.967   7.576   3.141 -2.1099 -2.9987  2.0277
 4653SOL    HW214538   1.898   7.516   3.020 -0.4716  0.2957 -0.7095
 4654SOL     OW14539   9.194   9.249   0.956  0.4202  0.0433 -0.0300
 4654SOL    HW114540   9.111   9.290   0.980  0.5496 -0.0564  0.5966
 4654SOL    HW214541   9.249   9.321   0.926  1.3426  0.7159  2.9203
 4655SOL     OW14542   6.759   4.881   5.283  0.4650 -0.0333 -0.2981
 4655SOL    HW114543   6.793   4.868   5.372 -1.4088  2.1162  0.8441
 4655SOL    HW214544   6.702   4.957   5.291 -0.1610 -0.0968 -3.2809
 4656SOL     OW14545   0.182   5.370   3.545  0.0700  0.3811 -0.0197
 4656SOL    HW114546   0.277   5.371   3.533  0.0451 -0.3526 -0.3277
 4656SOL    HW214547   0.152   5.292   3.497 -0.5366 -0.1357  1.1606
 4657SOL     OW14548   7.443   6.539   6.071 -0.6707  0.5578  0.3770
 4657SOL    HW114549   7.535   6.554   6.050 -0.4344 -0.7202  0.4302
 4657SOL    HW214550   7.405   6.500   5.992 -0.0311 -3.2213  1.7108
 4658SOL     OW14551   3.799   5.686   7.853 -0.4767 -0.2226  0.0381
 4658SOL    HW114552   3.725   5.745   7.865 -0.3339 -0.0148 -0.1080
 4658SOL    HW214553   3.859   5.734   7.797  0.1908 -0.0152  0.9079
 4659SOL     OW14554   5.798   7.023   6.991  0.0222 -1.0263  0.2134
 4659SOL    HW114555   5.765   6.980   7.069  1.3144 -1.6912  0.4238
 4659SOL    HW214556   5.724   7.025   6.931 -1.1810  0.0779  1.6595
 4660SOL     OW14557   7.946   3.409   6.132  0.0693  0.0285 -0.5224
 4660SOL    HW114558   7.931   3.328   6.181 -0.9528  1.0987  1.0012
 4660SOL    HW214559   8.015   3.454   6.181 -1.2573  1.3052  0.2688
 4661SOL     OW14560   3.663   9.061   6.564  0.3746  0.1797 -0.0896
 4661SOL    HW114561   3.673   9.103   6.479 -0.2851 -0.5054 -0.5213
 4661SOL    HW214562   3.748   9.069   6.606  0.8788 -0.0128 -1.0643
 4662SOL     OW14563   7.668   4.129   9.355  0.2494  0.0193 -0.1873
 4662SOL    HW114564   7.754   4.170   9.354  0.7818 -0.9075  1.9759
 4662SOL    HW214565   7.665   4.080   9.437 -1.9855 -0.7626 -0.6458
 4663SOL     OW14566   6.605   2.499   4.771 -0.2879  0.3655 -0.1357
 4663SOL    HW114567   6.617   2.472   4.862  3.8907  1.1527 -0.2716
 4663SOL    HW214568   6.592   2.594   4.776  1.7065  0.6827 -0.3643
 4664SOL     OW14569   9.393   0.519   8.700 -0.5300 -0.5771 -0.0535
 4664SOL    HW114570   9.456   0.484   8.763  0.2510  2.3427  0.9777
 4664SOL    HW214571   9.308   0.498   8.738 -0.1054 -0.9600  0.7189
 4665SOL     OW14572   9.794   4.749   2.081  0.0723  0.1479 -0.0338
 4665SOL    HW114573   9.781   4.664   2.122  0.2853  0.3578  0.4913
 4665SOL    HW214574   9.708   4.773   2.045 -0.0591 -0.1525  0.0825
 4666SOL     OW14575   4.094   3.030   2.796 -0.4160  0.1437 -0.2688
 4666SOL    HW114576   4.095   3.112   2.747 -2.0080 -0.6833 -1.7981
 4666SOL    HW214577   4.167   2.979   2.762 -1.0996 -0.1492 -1.3363
 4667SOL     OW14578   3.421   4.324   2.039  0.4654  0.2186  0.6378
 4667SOL    HW114579   3.344   4.380   2.041 -0.6842 -1.3202  0.7276
 4667SOL    HW214580   3.443   4.309   2.131  0.1719 -0.2667  0.6313
 4668SOL     OW14581   2.805   6.469   5.398  0.5411 -0.1740 -0.6521
 4668SOL    HW114582   2.810   6.411   5.322  3.0899  0.1985 -0.8697
 4668SOL    HW214583   2.809   6.557   5.360 -3.0799  0.2522 -0.3190
 4669SOL     OW14584   0.667   4.114   6.025  0.3881 -0.9825  0.4779
 4669SOL    HW114585   0.581   4.119   5.985  0.5356 -0.5553  0.2082
 4669SOL    HW214586   0.709   4.038   5.984  0.1538 -1.1782  0.5960
 4670SOL     OW14587   5.780   5.577   5.234  0.0668 -0.1458 -0.0395
 4670SOL    HW114588   5.762   5.519   5.160 -1.6513 -0.3007  0.4535
 4670SOL    HW214589   5.875   5.579   5.240  0.2417 -0.3395 -2.0729
 4671SOL     OW14590   8.182   6.479   3.756 -0.1410 -0.9317 -0.2961
 4671SOL    HW114591   8.275   6.459   3.754  0.1103  0.1244  0.0510
 4671SOL    HW214592   8.177   6.573   3.737 -1.0561 -0.7880  0.5581
 4672SOL     OW14593   2.624   5.753   2.453  0.0173 -0.4681 -0.3607
 4672SOL    HW114594   2.700   5.746   2.395  0.1050  0.4625 -0.3694
 4672SOL    HW214595   2.661   5.780   2.537 -0.3045  0.0663 -0.3855
 4673SOL     OW14596   9.985   3.253   9.705  0.1133  0.4912 -0.0082
 4673SOL    HW114597  10.001   3.348   9.705 -1.5710  0.8056 -0.3317
 4673SOL    HW214598   9.909   3.242   9.762  0.4686 -0.7147  0.2541
 4674SOL     OW14599   9.593   7.565   7.644  0.1179  0.8438  0.3759
 4674SOL    HW114600   9.610   7.574   7.550  1.2638  1.5646  0.6298
 4674SOL    HW214601   9.664   7.613   7.686  0.7903 -1.1466  1.6640
 4675SOL     OW14602   6.777   5.636   0.067  0.0807 -0.3076  0.1119
 4675SOL    HW114603   6.846   5.578   0.099  0.9102 -0.1574 -1.3060
 4675SOL    HW214604   6.715   5.577   0.024 -1.2261 -0.5514  2.2242
 4676SOL     OW14605   9.509   1.718   6.710 -0.6318  0.2928  0.1009
 4676SOL    HW114606   9.508   1.666   6.630  1.0075 -2.4250  1.7091
 4676SOL    HW214607   9.423   1.704   6.749 -0.2435 -1.2041  0.4676
 4677SOL     OW14608   8.244   9.369   7.316 -0.2015 -0.4073 -0.2827
 4677SOL    HW114609   8.191   9.289   7.322  0.5902 -1.0148 -1.0098
 4677SOL    HW214610   8.334   9.337   7.313  0.0695  0.3850 -2.3549
 4678SOL     OW14611   5.057   4.446   4.785  0.1690  0.6440  0.2139
 4678SOL    HW114612   5.063   4.530   4.741  0.6942 -0.1759 -1.3619
 4678SOL    HW214613   5.010   4.464   4.866 -0.1582  2.3508 -0.3264
 4679SOL     OW14614   0.893   6.599   9.422  0.1572  0.3041  0.0311
 4679SOL    HW114615   0.840   6.528   9.385  0.4686 -0.4311  0.9347
 4679SOL    HW214616   0.830   6.656   9.466  0.0480 -0.2337  0.5810
 4680SOL     OW14617   9.031   5.541   7.565  0.4891 -0.1815 -0.1733
 4680SOL    HW114618   9.121   5.572   7.573  0.6661 -0.4103 -1.1499
 4680SOL    HW214619   9.038   5.459   7.515 -0.2584 -0.1610 -0.3231
 4681SOL     OW14620   1.213   3.793   4.048 -0.3899  0.5858 -0.0549
 4681SOL    HW114621   1.297   3.765   4.086 -1.3786 -0.7723  1.2491
 4681SOL    HW214622   1.220   3.888   4.044  0.5364  0.6515  1.8098
 4682SOL     OW14623   6.380   3.200   5.216  0.3238 -0.1870  0.4943
 4682SOL    HW114624   6.360   3.175   5.306 -0.6867 -1.0053  0.0536
 4682SOL    HW214625   6.418   3.122   5.177 -0.4489 -0.2373 -0.1591
 4683SOL     OW14626   6.904   4.757   3.090  0.2936 -0.1766  0.3273
 4683SOL    HW114627   6.997   4.758   3.115  0.3033  2.8490  0.4663
 4683SOL    HW214628   6.858   4.792   3.166 -0.6599  0.7145 -0.6188
 4684SOL     OW14629   7.705   2.770   6.500 -0.4035 -0.0312  0.6235
 4684SOL    HW114630   7.657   2.803   6.577 -0.6837  0.9959  0.0366
 4684SOL    HW214631   7.795   2.797   6.515 -0.1158 -1.3333  1.3861
 4685SOL     OW14632   5.688   9.448   1.624 -0.1138 -0.1436 -0.0546
 4685SOL    HW114633   5.771   9.442   1.673 -0.8465  0.0908  1.2644
 4685SOL    HW214634   5.715   9.448   1.532  1.2204 -2.5212  0.2513
 4686SOL     OW14635   0.564   9.335   4.865  0.4463 -0.2416  0.9229
 4686SOL    HW114636   0.501   9.372   4.927  1.3242  0.7965  1.2123
 4686SOL    HW214637   0.603   9.261   4.912  1.1283  0.5585  1.6335
 4687SOL     OW14638   1.292   4.921   7.503 -0.0532 -0.3230 -0.0828
 4687SOL    HW114639   1.386   4.927   7.520 -0.1922  0.4451  0.4486
 4687SOL    HW214640   1.277   4.983   7.431 -0.0923 -0.7607 -0.4610
 4688SOL     OW14641   1.252   7.157   6.122  0.2525  0.0632  0.4318
 4688SOL    HW114642   1.346   7.157   6.104  0.5300  0.2400  1.7566
 4688SOL    HW214643   1.241   7.093   6.193 -0.7064 -0.3057 -0.0188
 4689SOL     OW14644   0.943   0.492   7.058 -0.6248  0.1475  0.4791
 4689SOL    HW114645   0.964   0.422   7.120 -1.7022 -1.5643 -0.9787
 4689SOL    HW214646   0.889   0.553   7.109 -1.2514 -1.0545  1.3216
 4690SOL     OW14647   0.091   4.070   8.706 -0.2337  0.0642 -0.0848
 4690SOL    HW114648   0.039   4.141   8.670 -1.1735 -0.5372  0.0671
 4690SOL    HW214649   0.098   4.090   8.800 -1.3133 -0.5264  0.1349
 4691SOL     OW14650   7.356   6.497   1.037 -0.2903  0.3657  0.0997
 4691SOL    HW114651   7.364   6.413   1.082 -0.7360 -0.8343 -1.9781
 4691SOL    HW214652   7.440   6.508   0.993 -0.6717  0.4152 -0.6223
 4692SOL     OW14653   4.049   6.079   6.178  0.8322  0.4460  0.3638
 4692SOL    HW114654   4.141   6.103   6.187  1.0053  0.4686 -1.1775
 4692SOL    HW214655   4.025   6.109   6.090 -0.5591  0.1459  0.6163
 4693SOL     OW14656   3.085   1.841   2.815 -0.0120 -0.2503  0.0337
 4693SOL    HW114657   3.044   1.895   2.748  0.4575  1.9901  1.4260
 4693SOL    HW214658   3.145   1.901   2.861 -0.8857 -1.4224  2.9303
 4694SOL     OW14659   2.306   9.436   2.767  0.7130 -0.5525  0.3201
 4694SOL    HW114660   2.211   9.420   2.767  1.0284 -2.7523  0.0440
 4694SOL    HW214661   2.320   9.496   2.694 -0.5386  0.4756  0.8841
 4695SOL     OW14662   7.991   7.692   2.184  0.1998  0.3405  0.1336
 4695SOL    HW114663   7.944   7.610   2.166  1.1859 -0.2790  0.3062
 4695SOL    HW214664   7.924   7.752   2.215 -0.5994 -0.2972 -0.3258
 4696SOL     OW14665   1.738   1.737   2.541  0.0894 -0.0768 -0.0911
 4696SOL    HW114666   1.740   1.804   2.610 -0.2472 -0.0470 -0.1064
 4696SOL    HW214667   1.647   1.707   2.540  0.1521 -0.2610 -0.3476
 4697SOL     OW14668   4.637   9.393   8.770 -0.0130  0.3966  0.3156
 4697SOL    HW114669   4.640   9.330   8.842 -0.2070  2.4800  2.2620
 4697SOL    HW214670   4.702   9.459   8.794  1.1388  0.3263 -2.3167
 4698SOL     OW14671   1.664   0.359   2.446  0.2456  0.0101 -0.2514
 4698SOL    HW114672   1.744   0.408   2.463  0.0033  0.3975 -0.2194
 4698SOL    HW214673   1.683   0.310   2.366  1.2551 -1.5307  0.8678
 4699SOL     OW14674   9.859   0.541   0.603 -0.2484 -0.0708  0.1172
 4699SOL    HW114675   9.792   0.507   0.662 -0.9946  1.9884  0.5260
 4699SOL    HW214676   9.942   0.522   0.648 -0.7339  0.1744  1.1399
 4700SOL     OW14677   6.495   8.979   7.671  0.2037 -0.6088  0.1952
 4700SOL    HW114678   6.428   8.919   7.640 -0.3917  0.8017 -1.3739
 4700SOL    HW214679   6.447   9.044   7.722  0.8408 -1.3796  1.8682
 4701SOL     OW14680   2.550   4.447   5.333  0.4285 -0.2631 -0.0429
 4701SOL    HW114681   2.570   4.540   5.327 -0.7622 -0.0263 -0.7003
 4701SOL    HW214682   2.570   4.423   5.423  2.1525  0.2736 -0.2514
 4702SOL     OW14683   8.520   4.626   8.810  0.4384  0.8326  0.2351
 4702SOL    HW114684   8.486   4.560   8.870 -1.2518  2.6047  1.3028
 4702SOL    HW214685   8.453   4.634   8.742  0.6279  1.4488  0.1132
 4703SOL     OW14686   4.820   1.113   2.480 -0.4123 -0.2914  0.2730
 4703SOL    HW114687   4.898   1.079   2.438 -1.5695 -2.0438 -0.5515
 4703SOL    HW214688   4.826   1.082   2.571  0.8319  1.3445  0.7859
 4704SOL     OW14689   7.746   3.597   7.377  0.3835 -0.0287 -0.2566
 4704SOL    HW114690   7.680   3.592   7.307 -0.7212 -1.6494  0.8353
 4704SOL    HW214691   7.830   3.595   7.331 -0.3198 -0.5570 -1.5686
 4705SOL     OW14692   8.749   1.223   1.745 -0.1005 -0.1608 -0.0419
 4705SOL    HW114693   8.776   1.133   1.764 -1.4405 -0.4055  0.8203
 4705SOL    HW214694   8.807   1.278   1.799 -1.1718 -0.6745  1.7344
 4706SOL     OW14695   2.132   0.106   2.739  0.5384 -0.4210  0.4801
 4706SOL    HW114696   2.178   0.022   2.744  1.8316  0.2561  0.3254
 4706SOL    HW214697   2.161   0.154   2.816  0.7357  0.3315 -0.0527
 4707SOL     OW14698   8.576   5.392   5.657  0.4102 -0.3748 -0.0243
 4707SOL    HW114699   8.662   5.387   5.699  1.0067  0.1709 -1.1314
 4707SOL    HW214700   8.521   5.333   5.709  1.6336 -1.3302  0.2613
 4708SOL     OW14701   7.138   7.085   5.752  0.1635  0.2065  0.0827
 4708SOL    HW114702   7.097   7.167   5.725 -0.7337 -0.5049 -0.7932
 4708SOL    HW214703   7.092   7.060   5.831  0.4744  0.5639  0.3811
 4709SOL     OW14704   1.592   6.516   2.021  0.0385  0.9326  0.6338
 4709SOL    HW114705   1.635   6.431   2.021 -0.3333  0.6717 -2.1698
 4709SOL    HW214706   1.658   6.576   2.058  0.9576 -0.2563  0.9763
 4710SOL     OW14707   5.602   4.686   7.875 -0.1759 -0.3850 -0.7425
 4710SOL    HW114708   5.621   4.672   7.783 -0.3750 -0.2042 -0.8129
 4710SOL    HW214709   5.526   4.630   7.892 -2.5070  2.2834 -1.6198
 4711SOL     OW14710   1.348   6.348   2.097 -0.2490  0.2532 -0.3435
 4711SOL    HW114711   1.419   6.336   2.033  0.5689 -1.6160  0.8280
 4711SOL    HW214712   1.374   6.426   2.146 -0.4567  1.2117 -1.6846
 4712SOL     OW14713   0.657   3.929   7.360  0.3396 -0.3629 -0.7734
 4712SOL    HW114714   0.672   3.916   7.453 -0.8258 -0.9557 -0.6445
 4712SOL    HW214715   0.600   4.005   7.354 -1.0060 -1.3255 -0.8486
 4713SOL     OW14716   7.120   4.145   5.913  0.0992 -0.2309  0.4069
 4713SOL    HW114717   7.133   4.239   5.927  1.3114 -0.3772  0.3843
 4713SOL    HW214718   7.205   4.106   5.935 -0.3190 -1.2928  0.1773
 4714SOL     OW14719   2.870   6.482   4.554 -0.2473 -0.3885  0.0315
 4714SOL    HW114720   2.779   6.478   4.525  0.3382 -3.7916 -1.8708
 4714SOL    HW214721   2.894   6.574   4.544 -3.3804  0.6051  0.5039
 4715SOL     OW14722   7.550   1.575   4.222 -0.3591  0.2513 -0.2364
 4715SOL    HW114723   7.550   1.518   4.145 -1.7374 -0.5085  0.2739
 4715SOL    HW214724   7.619   1.541   4.277 -1.5602 -1.3842  0.3332
 4716SOL     OW14725   8.249   3.699   0.184  0.3000 -0.4127  0.5761
 4716SOL    HW114726   8.157   3.709   0.160  0.0117  1.2575  2.0817
 4716SOL    HW214727   8.246   3.674   0.277  1.3422 -0.1214  0.6998
 4717SOL     OW14728   7.042   6.736   6.354  0.3745 -0.6556 -0.3771
 4717SOL    HW114729   7.084   6.792   6.420  1.3162 -0.2259 -1.3237
 4717SOL    HW214730   7.071   6.771   6.270  0.2483 -2.0089 -1.0100
 4718SOL     OW14731   9.717   9.359   0.341  0.1376 -0.3166 -0.2696
 4718SOL    HW114732   9.662   9.435   0.356 -1.4527 -1.4846  0.0678
 4718SOL    HW214733   9.714   9.346   0.246 -0.3437 -0.5084 -0.2275
 4719SOL     OW14734   5.119   7.366   1.639  0.1513  0.9472  0.6045
 4719SOL    HW114735   5.147   7.281   1.606  0.9849  1.4145  0.0818
 4719SOL    HW214736   5.181   7.388   1.708  1.3040  2.1032 -0.7324
 4720SOL     OW14737   6.129   6.299   0.659  0.3676 -0.1199  0.5961
 4720SOL    HW114738   6.081   6.361   0.714 -0.0067 -0.2702  0.4429
 4720SOL    HW214739   6.116   6.330   0.570  1.0816  0.1948  0.6026
 4721SOL     OW14740   0.628   6.791   3.632 -0.1745 -0.3241  0.3432
 4721SOL    HW114741   0.542   6.801   3.672  0.3060 -0.2979  1.4100
 4721SOL    HW214742   0.622   6.838   3.549 -0.7743  0.8355  1.0214
 4722SOL     OW14743   8.381   7.744   3.263  0.4186 -0.0664  0.2502
 4722SOL    HW114744   8.368   7.830   3.223  1.1573  0.0785  0.3093
 4722SOL    HW214745   8.355   7.682   3.195 -2.3534  0.1874  0.9765
 4723SOL     OW14746   0.561   0.440   3.906 -0.7265 -0.4124  0.9043
 4723SOL    HW114747   0.506   0.408   3.978  0.0257 -0.4365  1.4838
 4723SOL    HW214748   0.649   0.440   3.942 -0.4071  0.0883  0.1419
 4724SOL     OW14749   5.595   4.461   8.151 -0.7061  0.3534 -0.3772
 4724SOL    HW114750   5.549   4.465   8.067  0.8904  0.3454 -1.3020
 4724SOL    HW214751   5.679   4.504   8.134 -0.5123  0.7079  1.3432
 4725SOL     OW14752   8.995   4.118   5.335 -0.0489  0.0161  0.0948
 4725SOL    HW114753   8.992   4.171   5.256 -1.3118 -0.5481 -0.2637
 4725SOL    HW214754   8.988   4.181   5.407  0.4644  0.4812 -0.2641
 4726SOL     OW14755   0.255   4.115   6.421 -0.2954  0.0472  0.1010
 4726SOL    HW114756   0.200   4.064   6.480 -0.8572 -0.5404 -0.8984
 4726SOL    HW214757   0.234   4.206   6.441 -3.6509 -0.0909 -1.9412
 4727SOL     OW14758   9.266   5.314   8.117 -0.6518 -0.1599 -0.1010
 4727SOL    HW114759   9.198   5.322   8.051  0.3851 -0.5591 -1.2602
 4727SOL    HW214760   9.325   5.247   8.083  2.3248  2.6266 -1.0229
 4728SOL     OW14761   9.053   1.201   9.553 -0.1872  0.1212  0.3984
 4728SOL    HW114762   9.084   1.191   9.643  2.6207 -0.4360 -0.5171
 4728SOL    HW214763   8.962   1.171   9.555  0.3885 -1.7441  2.6789
 4729SOL     OW14764   4.005   3.565   6.926 -0.3554 -0.2379 -0.1810
 4729SOL    HW114765   3.969   3.530   7.007 -0.8904  0.3524 -0.1569
 4729SOL    HW214766   3.975   3.656   6.923 -0.1732 -0.1914 -0.9365
 4730SOL     OW14767   7.743   2.352   9.915 -0.4912  0.5519 -0.1361
 4730SOL    HW114768   7.666   2.333   9.969 -0.2249  1.4242  0.5809
 4730SOL    HW214769   7.817   2.341   9.974 -0.1293  0.6678 -0.5618
 4731SOL     OW14770   3.007   2.806   8.060 -0.1876  0.2199  0.0120
 4731SOL    HW114771   2.957   2.736   8.016 -0.5035  0.2292  0.3537
 4731SOL    HW214772   2.998   2.881   8.002 -0.7231  0.2712  0.1576
 4732SOL     OW14773   6.998   8.311   8.355  0.6311 -0.2012  0.0278
 4732SOL    HW114774   7.070   8.260   8.318  0.3611 -0.7971  0.3090
 4732SOL    HW214775   6.969   8.367   8.283  1.0867 -0.2706 -0.2159
 4733SOL     OW14776   4.370   9.874   9.427 -0.3166 -1.1022 -0.0317
 4733SOL    HW114777   4.431   9.843   9.360  0.2941 -1.7143  0.7700
 4733SOL    HW214778   4.284   9.870   9.386  0.3453  2.4825 -2.1825
 4734SOL     OW14779   2.285   7.974   4.854  0.6259 -0.2605  0.2571
 4734SOL    HW114780   2.284   7.939   4.765 -0.3701  1.5626 -0.5098
 4734SOL    HW214781   2.197   8.011   4.866  1.8002  2.7693  0.5651
 4735SOL     OW14782   6.590   5.656   1.181  0.2433 -0.0534  0.4527
 4735SOL    HW114783   6.625   5.682   1.096  0.7451  0.3671  0.7797
 4735SOL    HW214784   6.546   5.734   1.214 -0.3010 -0.3365  0.4044
 4736SOL     OW14785   8.090   9.898   2.142  0.4092 -0.0557  0.0542
 4736SOL    HW114786   8.049   9.845   2.210  1.5167 -0.5243  0.3744
 4736SOL    HW214787   8.084   9.844   2.063 -0.4874  0.3071 -0.1368
 4737SOL     OW14788   7.182   4.588   5.555  0.7632  0.6676 -0.4285
 4737SOL    HW114789   7.208   4.634   5.634 -0.0181  0.2002  0.1159
 4737SOL    HW214790   7.159   4.500   5.584  1.6531  0.1044 -1.3670
 4738SOL     OW14791   2.341   8.185   7.380 -0.2238 -0.0369 -0.2852
 4738SOL    HW114792   2.354   8.215   7.290 -0.1801 -1.0942 -0.6468
 4738SOL    HW214793   2.421   8.212   7.427  1.3679 -2.4354 -1.3911
 4739SOL     OW14794   0.091   7.249   8.362  0.2408  0.2112 -0.5951
 4739SOL    HW114795   0.142   7.321   8.400  0.1488 -0.8941  1.8066
 4739SOL    HW214796   0.152   7.204   8.304  1.1968  0.5225  0.1442
 4740SOL     OW14797   6.037   5.882   2.847  0.4129 -0.6877 -0.8497
 4740SOL    HW114798   6.032   5.787   2.855 -0.9641 -0.6100 -0.6381
 4740SOL    HW214799   5.979   5.903   2.774  2.0648 -0.1410 -2.0664
 4741SOL     OW14800   7.224   3.968   3.381  0.2508  0.1299 -0.4789
 4741SOL    HW114801   7.269   4.045   3.346  1.4264 -0.4842 -0.3835
 4741SOL    HW214802   7.280   3.894   3.356  0.5642 -0.4411  1.6881
 4742SOL     OW14803   6.837   0.783   3.130  0.0875 -0.3705  0.2966
 4742SOL    HW114804   6.744   0.772   3.150 -0.6082 -0.0718 -2.3964
 4742SOL    HW214805   6.839   0.853   3.064  2.1305 -0.9407 -0.3004
 4743SOL     OW14806   8.997   4.994   7.437  0.2242  0.0426 -0.3044
 4743SOL    HW114807   9.007   4.956   7.524  1.1194 -1.0375 -0.8382
 4743SOL    HW214808   8.999   4.918   7.378 -1.5762  0.6326 -1.1979
 4744SOL     OW14809   8.710   7.746   9.002 -0.4715 -0.0524  0.5196
 4744SOL    HW114810   8.762   7.726   8.924 -1.3334 -0.9065  0.1434
 4744SOL    HW214811   8.770   7.727   9.075  0.5018  1.2151  0.0956
 4745SOL     OW14812   9.755   8.682   1.108  0.0900 -0.5205 -0.3268
 4745SOL    HW114813   9.801   8.756   1.148 -0.2325 -0.0676 -0.7739
 4745SOL    HW214814   9.778   8.688   1.015  0.7711 -1.5120 -0.2360
 4746SOL     OW14815   4.752   1.333   1.026 -0.3260 -0.3925 -0.2833
 4746SOL    HW114816   4.664   1.323   0.991 -1.6395 -2.1473  3.0723
 4746SOL    HW214817   4.775   1.425   1.008 -2.2344 -0.2586 -2.3846
 4747SOL     OW14818   6.303   5.251   1.167 -0.1102  0.0164 -0.4724
 4747SOL    HW114819   6.298   5.344   1.190 -0.5344  0.3952 -1.9249
 4747SOL    HW214820   6.322   5.206   1.249 -2.3614  1.1533  0.7632
 4748SOL     OW14821   7.602   8.296   1.164  0.3124 -0.3974 -0.8162
 4748SOL    HW114822   7.658   8.354   1.112 -1.0146  1.0164 -0.7338
 4748SOL    HW214823   7.559   8.240   1.099 -0.2962  0.4276 -1.1389
 4749SOL     OW14824   9.516   3.425   2.094  0.5675  0.1042 -0.4801
 4749SOL    HW114825   9.603   3.447   2.126  0.2633 -0.3417  0.6885
 4749SOL    HW214826   9.478   3.369   2.162 -0.0993 -0.8853 -1.6278
 4750SOL     OW14827   9.333   1.662   5.467  0.1581 -0.7034 -0.4100
 4750SOL    HW114828   9.346   1.567   5.476  2.8680 -0.2051  2.6905
 4750SOL    HW214829   9.404   1.690   5.408  1.0102 -0.3500  0.7488
 4751SOL     OW14830   1.538   8.871   7.618 -0.2560  0.0135 -0.9064
 4751SOL    HW114831   1.588   8.819   7.680 -0.2442  0.8556 -0.1782
 4751SOL    HW214832   1.583   8.956   7.616 -1.1977  0.5272 -0.8229
 4752SOL     OW14833   0.705   7.024   0.488  0.1299 -0.5581 -0.0161
 4752SOL    HW114834   0.765   7.099   0.487 -1.3258  0.6771 -1.2003
 4752SOL    HW214835   0.633   7.051   0.546  0.6641 -2.0218  1.4061
 4753SOL     OW14836   6.367   4.059   6.936  0.0318 -0.6143  0.4591
 4753SOL    HW114837   6.347   4.136   6.989 -1.6042 -0.7370  0.0763
 4753SOL    HW214838   6.458   4.039   6.956  0.5078  1.4142  0.5618
 4754SOL     OW14839   0.125   5.954   6.102  0.1988 -0.1120 -0.4901
 4754SOL    HW114840   0.144   6.026   6.041  0.4467  2.7668  2.6975
 4754SOL    HW214841   0.210   5.911   6.116  0.6431  0.8148 -0.2952
 4755SOL     OW14842   7.814   3.722   9.748 -0.0739 -0.6760 -0.2565
 4755SOL    HW114843   7.844   3.813   9.749 -0.3115 -0.5549 -1.6857
 4755SOL    HW214844   7.739   3.721   9.808 -0.3068  0.1670 -0.5073
 4756SOL     OW14845   9.103   4.115   9.297  0.3457  0.0610  0.1248
 4756SOL    HW114846   9.138   4.203   9.316  1.0151 -0.4600  1.4616
 4756SOL    HW214847   9.175   4.070   9.253  0.6124 -0.3149  0.9133
 4757SOL     OW14848   4.172   5.381   8.633  0.1154 -0.2629 -0.2718
 4757SOL    HW114849   4.099   5.409   8.688 -0.0525  2.1930 -1.6130
 4757SOL    HW214850   4.130   5.337   8.559  0.2435 -1.6941  0.4485
 4758SOL     OW14851   2.550   0.101   9.834  0.6863 -0.5238 -0.0292
 4758SOL    HW114852   2.643   0.096   9.811  1.3172 -0.2281  2.1989
 4758SOL    HW214853   2.511   0.025   9.792  2.2832 -1.6285  0.3694
 4759SOL     OW14854   3.201   4.132   6.753  0.3437 -0.3501  0.2247
 4759SOL    HW114855   3.261   4.196   6.791  1.7815 -1.8998  0.6638
 4759SOL    HW214856   3.198   4.061   6.817 -0.7021 -1.0331 -0.5467
 4760SOL     OW14857   7.467   9.387   3.846 -0.0635  0.3121 -0.2895
 4760SOL    HW114858   7.529   9.461   3.847 -0.9300  1.1212 -2.1021
 4760SOL    HW214859   7.487   9.340   3.765 -0.3123 -0.7771  0.2651
 4761SOL     OW14860   4.280   8.503   0.938 -0.1873 -0.8138 -0.2727
 4761SOL    HW114861   4.251   8.530   1.025  1.7137 -0.1388  0.2206
 4761SOL    HW214862   4.311   8.584   0.897 -0.1637 -1.2792 -1.2120
 4762SOL     OW14863   2.940   3.496   8.853  0.1499  0.4622 -0.5069
 4762SOL    HW114864   2.948   3.409   8.894  0.4814 -0.5304 -2.5653
 4762SOL    HW214865   3.023   3.508   8.805  0.5489  2.4033  0.5554
 4763SOL     OW14866   2.325   5.855   3.061  0.2758 -0.3493  0.1578
 4763SOL    HW114867   2.377   5.822   3.134  1.1856  0.1186 -0.2549
 4763SOL    HW214868   2.374   5.931   3.029  0.4715 -1.1553 -1.5850
 4764SOL     OW14869   6.318   2.611   5.442 -0.7107  0.3555 -0.0872
 4764SOL    HW114870   6.271   2.681   5.486 -0.3991  1.0818 -0.8830
 4764SOL    HW214871   6.302   2.626   5.349  0.2164 -0.0195 -0.3200
 4765SOL     OW14872   1.392   6.847   6.719 -0.5208  0.5768  0.7628
 4765SOL    HW114873   1.427   6.808   6.800 -0.9694  0.8586  1.0970
 4765SOL    HW214874   1.337   6.919   6.749 -0.6022  0.7552  0.1945
 4766SOL     OW14875   5.781   1.313   9.518 -0.1071 -0.1335  0.7003
 4766SOL    HW114876   5.695   1.274   9.530 -0.1652 -0.0432  0.5745
 4766SOL    HW214877   5.833   1.280   9.592 -0.4334  0.3377  1.1482
 4767SOL     OW14878   3.359   0.753   8.601 -0.0333 -0.0857 -0.1693
 4767SOL    HW114879   3.399   0.725   8.518  1.9364  0.8277  0.3917
 4767SOL    HW214880   3.359   0.674   8.655 -3.1883 -1.2207 -1.5907
 4768SOL     OW14881   5.312   6.631   2.552 -0.4851  0.4856 -0.7361
 4768SOL    HW114882   5.238   6.577   2.580  0.3446 -0.8473 -1.0077
 4768SOL    HW214883   5.272   6.710   2.517 -1.8951 -0.8347 -2.3118
 4769SOL     OW14884   3.589   8.696   7.460 -0.3307  0.7066  0.3903
 4769SOL    HW114885   3.580   8.605   7.489  0.8760  1.1626  2.4038
 4769SOL    HW214886   3.676   8.699   7.420 -1.4634  0.3967 -2.2741
 4770SOL     OW14887   4.947   4.972   4.960 -0.3640  0.2258  0.1021
 4770SOL    HW114888   4.909   4.891   4.927 -1.3688  0.7218 -0.0067
 4770SOL    HW214889   4.907   5.041   4.907 -0.1038  0.8522  0.6994
 4771SOL     OW14890   7.428   5.406   1.264  0.2400 -0.5381 -0.4635
 4771SOL    HW114891   7.432   5.313   1.285  1.9299 -0.4991 -0.4566
 4771SOL    HW214892   7.446   5.450   1.347  0.6590 -0.2395 -0.7074
 4772SOL     OW14893   6.015   9.147   6.801 -0.2240  0.2608  0.3692
 4772SOL    HW114894   6.086   9.083   6.793  0.8465  1.4440  0.1551
 4772SOL    HW214895   5.983   9.136   6.890 -0.4509 -0.9396  0.1709
 4773SOL     OW14896   4.657   8.734   8.797  0.6305 -0.7307 -0.0485
 4773SOL    HW114897   4.676   8.825   8.822  0.8335 -0.9161  0.5055
 4773SOL    HW214898   4.562   8.732   8.784  0.8564  0.0261 -2.0873
 4774SOL     OW14899   3.187   9.455   6.801  0.3450 -0.3908  0.1763
 4774SOL    HW114900   3.276   9.445   6.767  0.9078 -0.1561  1.5406
 4774SOL    HW214901   3.163   9.545   6.778  0.3381 -0.5561 -0.4708
 4775SOL     OW14902   3.674   4.519   2.914  0.3556 -0.0642  0.3041
 4775SOL    HW114903   3.585   4.490   2.934 -0.0277  1.8083  1.6049
 4775SOL    HW214904   3.694   4.480   2.828 -1.7736 -0.3586 -0.0997
 4776SOL     OW14905   5.935   5.776   3.859 -0.1496 -0.3537  0.7346
 4776SOL    HW114906   5.930   5.697   3.913 -0.7295 -2.2492 -1.8723
 4776SOL    HW214907   5.947   5.743   3.770 -3.5551  2.2956 -0.9671
 4777SOL     OW14908   5.939   2.634   3.685 -0.6799 -0.1315  0.0867
 4777SOL    HW114909   5.961   2.724   3.661  0.0624 -0.5284 -0.7635
 4777SOL    HW214910   6.019   2.599   3.723  1.0272 -2.1410 -4.6104
 4778SOL     OW14911   6.021   3.609   2.403 -0.4954  0.0095 -0.3972
 4778SOL    HW114912   5.993   3.571   2.486  0.5405 -1.0551 -0.5125
 4778SOL    HW214913   6.020   3.537   2.340 -0.6438  0.6560 -1.1625
 4779SOL     OW14914   9.873   2.090   7.853 -0.0221  0.1386  0.5038
 4779SOL    HW114915   9.809   2.079   7.783 -0.5261  2.5345  0.4886
 4779SOL    HW214916   9.953   2.118   7.809  0.4066 -0.7122  0.7142
 4780SOL     OW14917   4.636   1.644   9.707  0.6695 -0.1204 -0.3397
 4780SOL    HW114918   4.554   1.631   9.754  0.6833 -1.1690 -0.5710
 4780SOL    HW214919   4.617   1.615   9.618  1.3752 -0.6702 -0.3161
 4781SOL     OW14920   2.710   3.924   8.996 -0.0254 -0.8034  0.2581
 4781SOL    HW114921   2.755   3.847   9.031 -0.2523 -1.0674 -0.0283
 4781SOL    HW214922   2.682   3.973   9.073 -0.7790 -1.5271  0.4602
 4782SOL     OW14923   5.434   4.972   9.658 -0.3300 -0.0406  0.2107
 4782SOL    HW114924   5.460   4.914   9.587  1.8618  2.1593 -0.9619
 4782SOL    HW214925   5.350   4.938   9.688 -1.1360 -1.3942 -3.1217
 4783SOL     OW14926   4.105   1.611   0.897  0.1595 -0.7379  0.4231
 4783SOL    HW114927   4.049   1.686   0.916  2.0245  0.2098  2.6580
 4783SOL    HW214928   4.191   1.637   0.928  1.4145 -2.9471 -0.9443
 4784SOL     OW14929   0.833   9.321   6.499  0.0499  0.1989  0.3454
 4784SOL    HW114930   0.905   9.330   6.437 -0.0301 -1.0645  0.0360
 4784SOL    HW214931   0.757   9.357   6.453  0.1653  0.0521  0.0371
 4785SOL     OW14932   1.424   2.205   3.788 -0.3712  0.1728 -0.3972
 4785SOL    HW114933   1.401   2.296   3.769 -0.9532 -0.2073 -1.6114
 4785SOL    HW214934   1.340   2.159   3.793 -0.0451 -0.4800 -0.7578
 4786SOL     OW14935   9.809   8.607   8.780 -0.9229 -0.3019 -0.4462
 4786SOL    HW114936   9.891   8.644   8.749 -0.6676  0.1189  0.6629
 4786SOL    HW214937   9.809   8.517   8.748 -0.1491 -0.2248 -0.6758
 4787SOL     OW14938   3.739   5.147   5.950  0.1826 -0.2157 -0.3177
 4787SOL    HW114939   3.718   5.203   5.875  1.7813 -0.2623 -0.8331
 4787SOL    HW214940   3.686   5.182   6.022 -2.2190 -0.8317 -1.6787
 4788SOL     OW14941   0.507   7.974   7.838  0.4829 -0.0388 -0.0716
 4788SOL    HW114942   0.469   7.890   7.810 -0.5017  0.6303 -0.8055
 4788SOL    HW214943   0.533   7.959   7.929 -2.7103 -0.2161  0.9236
 4789SOL     OW14944   5.023   4.942   5.231 -0.5335  0.6922 -0.4091
 4789SOL    HW114945   4.991   4.947   5.140 -0.8894  2.4233 -0.2198
 4789SOL    HW214946   5.099   4.999   5.233  0.1346 -0.1872  0.1545
 4790SOL     OW14947   1.590   4.130   8.808  0.4695  0.1822  0.8497
 4790SOL    HW114948   1.576   4.099   8.897  0.3833  1.1997  1.1970
 4790SOL    HW214949   1.677   4.171   8.811  1.2841 -1.3917  0.0095
 4791SOL     OW14950   5.198   4.979   0.360 -0.2143  0.0492 -0.0417
 4791SOL    HW114951   5.102   4.980   0.355 -0.2531 -0.6962  0.4781
 4791SOL    HW214952   5.217   4.934   0.441  0.5703  2.4074  1.1768
 4792SOL     OW14953   1.581   8.541   6.967 -0.5827  0.2122  0.4041
 4792SOL    HW114954   1.648   8.510   7.028  0.4243  0.0132 -0.7634
 4792SOL    HW214955   1.630   8.567   6.889 -1.6545  2.1767  0.3129
 4793SOL     OW14956   7.551   3.326   8.965  0.0547 -0.0827 -0.0367
 4793SOL    HW114957   7.511   3.254   9.013 -1.3312 -0.7832 -2.0555
 4793SOL    HW214958   7.478   3.384   8.944  0.7452  0.6281 -0.5453
 4794SOL     OW14959   0.548   0.358   1.083  0.0133  0.1930 -0.0923
 4794SOL    HW114960   0.634   0.319   1.067 -0.4748 -1.4925  1.0849
 4794SOL    HW214961   0.566   0.436   1.134  0.8330 -0.4093  0.5611
 4795SOL     OW14962   0.205   9.816   9.054 -0.0216 -0.1452 -0.3449
 4795SOL    HW114963   0.294   9.839   9.080  0.2753 -0.0137 -1.4118
 4795SOL    HW214964   0.186   9.736   9.103  1.1436 -0.8344 -0.9445
 4796SOL     OW14965   4.597   3.313   3.124 -0.2844  0.1669 -0.2681
 4796SOL    HW114966   4.572   3.265   3.045  0.4523 -0.7993  0.0607
 4796SOL    HW214967   4.546   3.394   3.121 -3.0909 -1.4769  0.1609
 4797SOL     OW14968   5.780   8.854   7.001  0.1883  0.0080  0.5195
 4797SOL    HW114969   5.699   8.895   7.033 -1.0200 -1.4592 -0.5005
 4797SOL    HW214970   5.784   8.770   7.047  0.9270 -0.1088  0.2496
 4798SOL     OW14971   1.509   5.846   3.371  0.2944  0.1392  0.4730
 4798SOL    HW114972   1.442   5.893   3.322 -0.1119  0.0484  0.9323
 4798SOL    HW214973   1.463   5.772   3.410  1.0141 -0.9049 -0.5997
 4799SOL     OW14974   8.541   8.575   7.032  0.1762  0.1765  0.1565
 4799SOL    HW114975   8.622   8.621   7.051  1.2660 -1.6582  0.1290
 4799SOL    HW214976   8.560   8.483   7.050 -1.6525 -0.3990 -0.6136
 4800SOL     OW14977   8.869   2.067   6.445 -0.3251 -0.1710  0.2030
 4800SOL    HW114978   8.802   2.007   6.478  0.0706 -0.5824  0.2588
 4800SOL    HW214979   8.853   2.149   6.493  0.1441 -0.7077  1.3043
 4801SOL     OW14980   0.606   5.603   0.722 -0.1331  0.3010  0.4652
 4801SOL    HW114981   0.689   5.570   0.758 -1.1005 -0.7368  1.8750
 4801SOL    HW214982   0.551   5.616   0.799 -1.6762 -0.1435 -0.5347
 4802SOL     OW14983   0.960   0.059   3.363 -0.2851  0.5666  0.3933
 4802SOL    HW114984   0.975   0.006   3.442  2.6745  2.0429  0.9585
 4802SOL    HW214985   0.989   0.003   3.291  1.7632  0.9085  0.8853
 4803SOL     OW14986   0.558   1.757   1.539  0.1632 -0.5891 -0.6631
 4803SOL    HW114987   0.622   1.694   1.505 -0.4300 -2.0803  0.8515
 4803SOL    HW214988   0.515   1.711   1.611 -1.3353  1.0465 -0.4491
 4804SOL     OW14989   9.096   3.349   8.699 -0.1123  0.2571 -0.2577
 4804SOL    HW114990   9.078   3.430   8.747  0.0225  0.4025 -0.4500
 4804SOL    HW214991   9.186   3.361   8.666 -0.0657 -0.0006 -0.2230
 4805SOL     OW14992   5.342   0.322   6.868  0.5416  0.1452  0.2759
 4805SOL    HW114993   5.386   0.400   6.900  0.1031  0.9329 -0.9843
 4805SOL    HW214994   5.410   0.276   6.817  0.1120  1.0970 -1.2306
 4806SOL     OW14995   0.777   0.254   3.314 -0.6344  0.5183  0.1831
 4806SOL    HW114996   0.686   0.230   3.298 -0.1264  0.1372 -2.5918
 4806SOL    HW214997   0.822   0.171   3.327 -0.1387  0.3672 -2.0600
 4807SOL     OW14998   5.841   7.869   8.937  0.5800 -0.1189 -0.0111
 4807SOL    HW114999   5.866   7.951   8.979 -0.2382 -0.0497  0.3479
 4807SOL    HW215000   5.826   7.808   9.009  0.9909 -0.5381 -0.2682
 4808SOL     OW15001   9.204   9.283   6.724  0.8662 -0.1144 -0.2455
 4808SOL    HW115002   9.292   9.248   6.740  0.5396 -0.8593 -0.0400
 4808SOL    HW215003   9.192   9.349   6.792  1.4305  0.3054 -0.5409
 4809SOL     OW15004   4.486   2.191   0.718 -0.5031  0.7491  0.2879
 4809SOL    HW115005   4.442   2.275   0.711 -0.8497  0.5361 -0.1657
 4809SOL    HW215006   4.424   2.128   0.681 -0.0189  0.3787  0.0866
 4810SOL     OW15007   3.134   6.146   3.329  0.2325 -0.5096 -0.0196
 4810SOL    HW115008   3.171   6.235   3.325  1.2828 -0.9462 -0.4960
 4810SOL    HW215009   3.173   6.108   3.407  0.7939 -0.9619 -0.5064
 4811SOL     OW15010   6.492   8.966   4.280  0.5209  0.6957  0.1223
 4811SOL    HW115011   6.446   8.974   4.197  1.2874  1.0465 -0.2796
 4811SOL    HW215012   6.583   8.987   4.259  0.4159  2.6340  1.3658
 4812SOL     OW15013   9.101   9.095   1.395 -0.2046 -0.6129  0.3868
 4812SOL    HW115014   9.179   9.099   1.449 -0.3296  0.5058  0.5078
 4812SOL    HW215015   9.127   9.135   1.311 -0.4904 -0.7236  0.2431
 4813SOL     OW15016   8.470   1.045   7.143  0.2447 -0.5974 -0.5123
 4813SOL    HW115017   8.554   1.077   7.110 -0.1006 -1.7326 -2.6660
 4813SOL    HW215018   8.490   0.962   7.186  0.3144 -0.5651 -0.4835
 4814SOL     OW15019   6.230   7.189   6.114  0.1562  0.5593  0.0346
 4814SOL    HW115020   6.192   7.178   6.201  0.3915  1.5996  0.2865
 4814SOL    HW215021   6.156   7.208   6.057  0.0308  0.1420  0.0608
 4815SOL     OW15022   4.659   2.463   0.165  0.2840 -0.2662  0.2109
 4815SOL    HW115023   4.615   2.459   0.249  0.8553 -1.2062  0.4853
 4815SOL    HW215024   4.746   2.498   0.185  0.4136 -0.4725  0.0109
 4816SOL     OW15025   6.569   4.021   5.770 -0.2818 -0.1341 -0.5756
 4816SOL    HW115026   6.620   4.079   5.713 -1.6100  2.6559  0.8164
 4816SOL    HW215027   6.633   3.959   5.805  1.1584  0.1424 -2.5457
 4817SOL     OW15028   3.700   4.506   8.496  0.1665 -0.2753  0.0441
 4817SOL    HW115029   3.684   4.417   8.528  2.4944 -0.6636  0.3057
 4817SOL    HW215030   3.685   4.500   8.402  1.7767 -1.3632 -0.1739
 4818SOL     OW15031   8.489   1.186   2.499 -0.0882  0.0281 -0.3892
 4818SOL    HW115032   8.415   1.202   2.558 -0.6310  0.0291 -1.0597
 4818SOL    HW215033   8.499   1.091   2.498 -0.4286 -0.0080 -0.7087
 4819SOL     OW15034   8.077   8.021   5.546 -0.1954 -0.4269 -0.5873
 4819SOL    HW115035   8.083   7.934   5.506  2.0160 -0.7347  0.2755
 4819SOL    HW215036   8.026   8.007   5.626  1.3166 -1.2777  0.2814
 4820SOL     OW15037   8.438   5.848   6.892  0.3354  0.2713  0.7106
 4820SOL    HW115038   8.424   5.858   6.798 -0.8871 -1.2728  0.6945
 4820SOL    HW215039   8.369   5.902   6.932  1.6021  1.9237  0.7847
 4821SOL     OW15040   1.626   6.307   9.757 -0.0364  0.2666  0.3970
 4821SOL    HW115041   1.541   6.304   9.801  0.5776 -1.0125  1.5756
 4821SOL    HW215042   1.604   6.319   9.665 -1.5402 -0.4782  0.6114
 4822SOL     OW15043   4.206   6.850   5.119  0.2210 -0.1272  0.5788
 4822SOL    HW115044   4.131   6.892   5.077 -0.2782 -0.3114  1.2787
 4822SOL    HW215045   4.168   6.782   5.174  0.8734  0.1358  1.3637
 4823SOL     OW15046  -0.002   0.770   5.854  0.2851  0.1818 -0.0866
 4823SOL    HW115047   0.035   0.683   5.839 -1.5492 -0.6360 -0.1262
 4823SOL    HW215048   0.009   0.785   5.947 -0.5010 -0.6784  0.1686
 4824SOL     OW15049   6.746   3.514   3.077  0.0411  0.3049  0.3616
 4824SOL    HW115050   6.745   3.418   3.079 -0.9194  0.3119  0.5308
 4824SOL    HW215051   6.730   3.537   2.985 -2.3407  0.2962  0.7106
 4825SOL     OW15052   9.635   3.163   2.004 -0.3461 -0.0564  0.0854
 4825SOL    HW115053   9.700   3.212   1.954  0.0225 -2.4130 -1.9818
 4825SOL    HW215054   9.603   3.224   2.070  1.9931  2.0168 -0.5785
 4826SOL     OW15055   4.382   6.777   4.026 -0.2961  0.1064 -0.2783
 4826SOL    HW115056   4.441   6.797   4.099  0.2133  1.3022 -0.9807
 4826SOL    HW215057   4.437   6.784   3.948 -0.4627 -2.6160 -0.7466
 4827SOL     OW15058   1.691   8.695   0.326  0.0972 -0.2233 -0.6217
 4827SOL    HW115059   1.685   8.790   0.335 -1.1380 -0.0614 -2.4333
 4827SOL    HW215060   1.754   8.668   0.392 -0.8436  1.6465  1.1565
 4828SOL     OW15061   2.062   3.092   0.787 -0.1113 -0.1963  0.3279
 4828SOL    HW115062   2.068   3.000   0.762 -0.5656 -0.2837  0.5242
 4828SOL    HW215063   2.141   3.108   0.838  0.7391 -0.0594 -0.9767
 4829SOL     OW15064   8.075   6.385   0.423 -0.1240 -0.4310  0.6254
 4829SOL    HW115065   8.052   6.430   0.504 -0.8953  0.2411  0.0548
 4829SOL    HW215066   8.026   6.303   0.426 -1.2848  0.2270  0.2076
 4830SOL     OW15067   3.828   0.074   4.876  0.2593 -0.1430 -0.2211
 4830SOL    HW115068   3.917   0.089   4.845 -0.2581  1.3731 -1.1076
 4830SOL    HW215069   3.837   0.009   4.946  2.0149 -0.1892 -0.4472
 4831SOL     OW15070   0.495   4.313   5.593 -0.3519 -0.3934 -0.3204
 4831SOL    HW115071   0.442   4.239   5.564  0.3809 -0.3123 -1.9765
 4831SOL    HW215072   0.571   4.273   5.635 -0.2436 -0.5704 -0.6828
 4832SOL     OW15073   4.210   8.229   0.925  0.7794 -0.3475 -0.3510
 4832SOL    HW115074   4.238   8.320   0.910 -0.2888 -0.1027 -0.9403
 4832SOL    HW215075   4.240   8.210   1.014 -0.1836  1.0671  0.3110
 4833SOL     OW15076   7.412   7.864   5.027 -0.0723 -0.3126  0.6261
 4833SOL    HW115077   7.329   7.827   5.059 -0.8492  0.6573 -0.1913
 4833SOL    HW215078   7.401   7.870   4.933  1.2127 -0.7864  0.4245
 4834SOL     OW15079   5.909   0.019   9.429  0.2746 -0.0873 -0.3586
 4834SOL    HW115080   5.865   0.049   9.509  1.1513 -1.2595  0.6164
 4834SOL    HW215081   5.840   0.019   9.362 -0.3280  1.5475  0.2131
 4835SOL     OW15082   3.615   7.936   6.759  0.6023  0.0511 -0.0527
 4835SOL    HW115083   3.562   7.985   6.696 -0.9531 -1.2404  0.1774
 4835SOL    HW215084   3.683   7.895   6.706 -0.3676 -0.5828 -0.8506
 4836SOL     OW15085   3.568   7.709   0.334 -0.2277  0.1553  0.2641
 4836SOL    HW115086   3.539   7.800   0.325  0.5475  0.6185  1.9577
 4836SOL    HW215087   3.574   7.695   0.428  2.1026 -0.8148  0.0569
 4837SOL     OW15088   2.113   8.695   9.787 -0.0942  0.3648  0.3059
 4837SOL    HW115089   2.160   8.646   9.720  1.2048 -0.1026  1.5025
 4837SOL    HW215090   2.133   8.786   9.769  1.6484  0.1590  1.0170
 4838SOL     OW15091   0.568   7.115   7.780  0.2201  0.7133 -0.5834
 4838SOL    HW115092   0.605   7.184   7.726 -1.9422  0.6535 -2.2415
 4838SOL    HW215093   0.561   7.039   7.722 -1.2075  0.3289  0.0500
 4839SOL     OW15094   0.848   9.227   4.177  0.4219 -0.3742 -0.1671
 4839SOL    HW115095   0.819   9.202   4.264  4.2117 -1.8830  0.8799
 4839SOL    HW215096   0.830   9.150   4.122  0.9385 -0.6767  0.0824
 4840SOL     OW15097   5.123   0.836   1.643 -0.3692 -0.0006 -0.9659
 4840SOL    HW115098   5.043   0.853   1.692  1.1145 -0.0195  1.6491
 4840SOL    HW215099   5.135   0.914   1.589 -1.4034  0.6291 -0.3207
 4841SOL     OW15100   3.642   5.786   8.297  0.1942  0.2111  0.1289
 4841SOL    HW115101   3.553   5.820   8.287  0.0607 -0.5989 -2.2102
 4841SOL    HW215102   3.694   5.839   8.236  1.0910 -0.0590  0.6483
 4842SOL     OW15103   8.384   0.375   8.437  0.7790 -0.3247  0.1009
 4842SOL    HW115104   8.365   0.453   8.489  0.3179 -0.9673  0.9230
 4842SOL    HW215105   8.479   0.366   8.442  0.6476 -1.1576  2.0448
 4843SOL     OW15106   8.486   2.036   9.317 -0.1148 -0.1009 -0.0202
 4843SOL    HW115107   8.525   2.038   9.405 -0.7921  1.6640  0.2688
 4843SOL    HW215108   8.456   2.125   9.302 -3.0448 -1.0834 -0.6839
 4844SOL     OW15109   5.083   8.004   8.578  0.0496  0.2564 -0.1226
 4844SOL    HW115110   5.164   8.017   8.627  0.3958  0.2782 -0.6951
 4844SOL    HW215111   5.014   8.026   8.640  0.4916  0.5599  0.2684
 4845SOL     OW15112   0.027   2.635   9.273 -0.2465 -0.1599  0.0284
 4845SOL    HW115113  -0.060   2.596   9.267 -0.1597 -0.1409 -1.8788
 4845SOL    HW215114   0.087   2.561   9.261  0.0014 -0.0708  0.6736
 4846SOL     OW15115   6.845   7.966   9.342 -0.0524 -0.1759 -0.3784
 4846SOL    HW115116   6.899   8.035   9.381  1.7704 -1.4629 -0.5646
 4846SOL    HW215117   6.774   7.954   9.406  1.5899 -0.6178  1.4523
 4847SOL     OW15118   1.396   3.510   7.404 -0.4917  0.2001  0.5191
 4847SOL    HW115119   1.475   3.480   7.359 -0.2684  0.3066  0.8337
 4847SOL    HW215120   1.423   3.522   7.495 -1.1849 -0.9765  0.8951
 4848SOL     OW15121   9.667   8.387   0.985  0.2334  0.3663 -0.1593
 4848SOL    HW115122   9.760   8.391   0.965  0.2938  0.4061  0.1316
 4848SOL    HW215123   9.624   8.390   0.899  0.4718  1.1861 -0.2568
 4849SOL     OW15124   3.633   6.631   6.023 -0.4555  0.2702  0.0553
 4849SOL    HW115125   3.634   6.547   5.977  4.0686  0.9029 -1.4956
 4849SOL    HW215126   3.626   6.696   5.954  0.6064  1.1939  0.7873
 4850SOL     OW15127   6.421   4.120   4.441  0.0528 -0.8592  0.5291
 4850SOL    HW115128   6.503   4.084   4.409 -0.5443 -2.0258  0.2628
 4850SOL    HW215129   6.364   4.124   4.364 -0.0879  0.0992  0.6768
 4851SOL     OW15130   6.638   9.620   2.351  0.2919  0.0332  0.1045
 4851SOL    HW115131   6.547   9.627   2.380 -0.1682  0.7943 -1.4417
 4851SOL    HW215132   6.669   9.710   2.346  0.2767 -0.0315 -1.8726
 4852SOL     OW15133   3.873   8.803   2.222 -0.0268 -0.1134 -0.3579
 4852SOL    HW115134   3.876   8.730   2.161 -1.1007 -1.6068  1.2800
 4852SOL    HW215135   3.782   8.805   2.253  0.1026  1.6201 -0.0139
 4853SOL     OW15136   1.197   4.071   8.287 -0.3731  0.7624  0.3574
 4853SOL    HW115137   1.222   4.102   8.201 -0.3546  1.4974  0.6264
 4853SOL    HW215138   1.133   4.135   8.319  0.3035  1.0011  1.2604
 4854SOL     OW15139   9.460   8.055   9.573 -0.3211  0.6639 -0.7053
 4854SOL    HW115140   9.417   8.001   9.639  2.1956  0.0565  0.5342
 4854SOL    HW215141   9.411   8.138   9.574 -1.2148  0.1589  0.8976
 4855SOL     OW15142   1.737   4.386   8.317  0.4472  0.3234 -0.4749
 4855SOL    HW115143   1.753   4.480   8.317  1.8811  0.1262  0.7865
 4855SOL    HW215144   1.819   4.347   8.286  1.9697 -0.6422  3.9542
 4856SOL     OW15145   5.197   8.007   3.533  0.5345 -0.6796  0.7678
 4856SOL    HW115146   5.256   8.004   3.608  0.9459 -0.0945  0.4742
 4856SOL    HW215147   5.171   8.099   3.526  0.1746 -0.8018  0.4430
 4857SOL     OW15148   1.070   0.889   3.915 -0.1659 -0.3461  0.4163
 4857SOL    HW115149   1.100   0.825   3.851 -0.9734 -0.2563 -0.0759
 4857SOL    HW215150   1.142   0.898   3.976  0.7521 -0.2050 -0.6559
 4858SOL     OW15151   0.751   6.306   5.684  0.5392  0.3193 -0.2117
 4858SOL    HW115152   0.834   6.284   5.641  0.8898  0.8487  0.1792
 4858SOL    HW215153   0.697   6.228   5.674  1.6556 -0.6325  0.9215
 4859SOL     OW15154   8.836   5.122   8.510  0.2368 -0.1927  0.1166
 4859SOL    HW115155   8.853   5.029   8.520  0.4871 -0.0199  1.3970
 4859SOL    HW215156   8.898   5.165   8.570  0.2438  0.8051 -0.5722
 4860SOL     OW15157   2.635   3.509   6.284  0.0231 -0.3583 -0.3045
 4860SOL    HW115158   2.577   3.433   6.294  0.6402 -1.0796 -1.8896
 4860SOL    HW215159   2.652   3.514   6.190  2.0939  0.1653  0.0532
 4861SOL     OW15160   2.935   6.969   6.934  0.4561  0.8074 -0.0411
 4861SOL    HW115161   2.940   6.874   6.941  1.7842  0.9694  2.7381
 4861SOL    HW215162   3.019   6.994   6.895  0.6867  0.8982  0.5066
 4862SOL     OW15163   3.204   0.989   0.385  0.3708 -0.0346  0.0901
 4862SOL    HW115164   3.250   1.070   0.408  0.8542  0.3499 -2.0588
 4862SOL    HW215165   3.126   1.018   0.337  0.1563 -0.8335 -0.0557
 4863SOL     OW15166   4.043   8.376   1.917 -0.4184  0.0884 -0.0734
 4863SOL    HW115167   3.984   8.317   1.963 -0.8360  0.9252  0.4649
 4863SOL    HW215168   4.089   8.424   1.986  1.5925 -1.1796 -0.4364
 4864SOL     OW15169   5.622   4.541   5.912  0.4724  0.2460 -0.0524
 4864SOL    HW115170   5.591   4.478   5.977 -1.4264  0.8040 -0.3600
 4864SOL    HW215171   5.564   4.528   5.836  1.9184  0.3826 -1.2367
 4865SOL     OW15172   1.353   4.364   5.397  0.7967 -0.1831 -0.2619
 4865SOL    HW115173   1.350   4.321   5.312  1.5686 -0.2106 -0.2792
 4865SOL    HW215174   1.440   4.343   5.432  0.8765  0.6693  0.0850
 4866SOL     OW15175   5.951   0.569   7.734  0.7732  0.2506  0.4237
 4866SOL    HW115176   5.923   0.480   7.711 -0.1367  0.9850 -1.5369
 4866SOL    HW215177   5.924   0.580   7.826 -0.4610 -0.9815  0.2424
 4867SOL     OW15178   4.736   1.151   0.091 -0.6473 -0.6132  1.1427
 4867SOL    HW115179   4.647   1.143   0.126 -0.5872  2.8972  2.5781
 4867SOL    HW215180   4.780   1.209   0.154  0.5117  3.4786 -2.8982
 4868SOL     OW15181   1.076   8.651   0.617  0.2626  0.3635  0.4272
 4868SOL    HW115182   0.997   8.657   0.564 -0.0438  2.4348  1.0338
 4868SOL    HW215183   1.085   8.558   0.635  0.3677 -0.4654 -3.1559
 4869SOL     OW15184   3.088   0.172   9.323  0.2022  0.5340  0.0123
 4869SOL    HW115185   3.142   0.197   9.248  1.1148 -0.7358  0.2164
 4869SOL    HW215186   3.001   0.208   9.303  0.1596 -0.6008 -2.1357
 4870SOL     OW15187   1.429   5.538   8.846  0.2563 -0.0262 -0.3511
 4870SOL    HW115188   1.448   5.624   8.882  0.3464 -0.4563  0.6548
 4870SOL    HW215189   1.380   5.556   8.765 -0.1221  0.9579  0.0812
 4871SOL     OW15190   9.423   4.957   4.399 -0.1659  0.2107 -0.5434
 4871SOL    HW115191   9.490   4.892   4.418 -0.3704  0.4637  1.2816
 4871SOL    HW215192   9.471   5.040   4.393 -0.1240  0.1587 -0.9249
 4872SOL     OW15193   3.324   6.150   4.855 -0.0486 -0.2691  0.1346
 4872SOL    HW115194   3.338   6.185   4.767  1.7266  0.9219  0.8446
 4872SOL    HW215195   3.315   6.056   4.842 -1.5061  0.0387 -1.4707
 4873SOL     OW15196   0.878   7.357   8.892  0.0441 -0.4024 -0.3045
 4873SOL    HW115197   0.915   7.286   8.839  0.2250 -0.8905  0.4578
 4873SOL    HW215198   0.891   7.328   8.982 -1.5118 -0.2254 -0.0049
 4874SOL     OW15199   6.044   4.526   7.449  0.7813 -0.4950 -0.0844
 4874SOL    HW115200   6.137   4.513   7.468  0.8229  0.5724  0.5238
 4874SOL    HW215201   5.998   4.467   7.509  1.0350 -0.0675  0.5414
 4875SOL     OW15202   6.649   6.680   5.584 -0.2065  0.4596  0.5008
 4875SOL    HW115203   6.737   6.653   5.559 -0.6702 -0.4858 -0.1597
 4875SOL    HW215204   6.598   6.599   5.585 -0.7494  0.7643  2.3328
 4876SOL     OW15205   5.380   3.108   8.531 -0.4224  0.3493  0.0217
 4876SOL    HW115206   5.472   3.118   8.506 -0.7831  1.2725 -0.9776
 4876SOL    HW215207   5.351   3.029   8.485 -0.4674  0.7738 -0.6907
 4877SOL     OW15208   4.671   8.150   5.618 -0.5260  0.1458  0.2193
 4877SOL    HW115209   4.656   8.060   5.591 -0.8277  0.1501  0.3668
 4877SOL    HW215210   4.672   8.146   5.714 -2.9021  0.6561  0.3083
 4878SOL     OW15211   9.424   4.542   0.647 -0.5596 -0.5665  0.1540
 4878SOL    HW115212   9.373   4.597   0.706 -0.8492  0.3842 -0.9312
 4878SOL    HW215213   9.430   4.594   0.566  0.7612 -1.3439 -0.2737
 4879SOL     OW15214   4.799   5.273   5.913  0.3227  0.5348 -0.4483
 4879SOL    HW115215   4.806   5.353   5.862  1.1676  1.1260  0.5503
 4879SOL    HW215216   4.836   5.204   5.856  2.2382  1.3536 -0.2861
 4880SOL     OW15217   1.035   1.202   9.789 -0.4739  0.1320 -0.2155
 4880SOL    HW115218   1.041   1.203   9.694 -1.2467 -0.3904 -0.2800
 4880SOL    HW215219   1.064   1.289   9.816 -0.2477  0.2811 -0.9275
 4881SOL     OW15220   2.270   5.418   4.236  0.5633  0.2392 -0.4368
 4881SOL    HW115221   2.353   5.459   4.213  1.8418 -1.6574  0.4876
 4881SOL    HW215222   2.273   5.332   4.192  0.6325 -1.2121  2.1983
 4882SOL     OW15223   0.053   4.398   3.898  0.4803  0.6168 -0.9208
 4882SOL    HW115224   0.018   4.485   3.917  0.0341  0.3687 -0.5710
 4882SOL    HW215225   0.097   4.372   3.979 -1.1787 -0.3283 -0.2763
 4883SOL     OW15226   3.335   4.447   3.016  0.3853 -0.2154 -0.7407
 4883SOL    HW115227   3.255   4.406   2.981 -0.0489 -0.4230  0.4562
 4883SOL    HW215228   3.389   4.374   3.044  0.5268 -0.0379 -0.5492
 4884SOL     OW15229   5.575   0.754   4.062  0.2418 -0.0441 -0.5982
 4884SOL    HW115230   5.562   0.671   4.017 -0.9321 -0.2825  0.1361
 4884SOL    HW215231   5.486   0.785   4.081  0.6836  0.8256  0.1190
 4885SOL     OW15232   6.888   5.707   2.842  0.2632 -0.2981 -0.0607
 4885SOL    HW115233   6.919   5.752   2.921 -2.3281  2.2996 -0.3817
 4885SOL    HW215234   6.807   5.664   2.868  0.6976 -1.6012 -0.7445
 4886SOL     OW15235   1.742   0.372   4.459 -0.1261 -0.4679 -0.0413
 4886SOL    HW115236   1.670   0.422   4.497 -0.0262  1.5671 -2.3293
 4886SOL    HW215237   1.702   0.290   4.431 -0.7338 -0.9008  1.9027
 4887SOL     OW15238   6.921   2.622   6.028  0.0857  0.5749  0.5679
 4887SOL    HW115239   7.000   2.575   6.053  1.1324  1.0352 -1.6118
 4887SOL    HW215240   6.854   2.555   6.023  0.8515 -0.1943  0.3566
 4888SOL     OW15241   4.703   6.456   8.183 -0.6472  0.1871 -0.2420
 4888SOL    HW115242   4.632   6.445   8.246 -1.0352  3.3854  0.0400
 4888SOL    HW215243   4.669   6.519   8.119  0.3073 -1.7387 -2.8166
 4889SOL     OW15244   0.168   2.460   5.237  0.9951  0.1240  0.3452
 4889SOL    HW115245   0.076   2.458   5.260  0.7088  3.6016 -0.0104
 4889SOL    HW215246   0.213   2.420   5.312 -0.6674 -0.0926  1.2686
 4890SOL     OW15247   3.920   5.651   5.802  0.0567 -0.0478  0.1238
 4890SOL    HW115248   3.986   5.656   5.733 -0.4376  0.1014 -0.3443
 4890SOL    HW215249   3.858   5.585   5.772 -0.9371  1.0230 -0.2806
 4891SOL     OW15250   5.561   9.312   3.111 -0.3939  0.2179 -0.2681
 4891SOL    HW115251   5.628   9.261   3.156 -0.2729  0.7984  0.2180
 4891SOL    HW215252   5.544   9.263   3.031  2.2165  1.1349 -1.5396
 4892SOL     OW15253   3.013   9.120   0.845  0.2544 -0.0495 -0.0394
 4892SOL    HW115254   2.950   9.189   0.824  0.5131 -0.2449 -1.5867
 4892SOL    HW215255   2.967   9.063   0.907 -0.5612  0.5957 -0.0379
 4893SOL     OW15256   1.488   0.224   7.856  0.4790  0.6694 -0.1004
 4893SOL    HW115257   1.542   0.213   7.934  1.5910 -1.1190 -1.0672
 4893SOL    HW215258   1.533   0.175   7.788 -0.8174  1.6226 -1.7292
 4894SOL     OW15259   9.527   0.928   9.305  0.2366 -0.0596 -0.1795
 4894SOL    HW115260   9.516   0.913   9.399 -0.6635  1.7957  0.0633
 4894SOL    HW215261   9.613   0.970   9.298 -0.1478  0.7916 -0.0164
 4895SOL     OW15262   9.343   1.929   4.209 -0.0066  0.1432 -1.1442
 4895SOL    HW115263   9.315   1.886   4.128 -1.5321 -0.2042 -0.4709
 4895SOL    HW215264   9.433   1.900   4.222 -0.8379 -2.6528 -0.8826
 4896SOL     OW15265   4.657   9.650   8.170  0.0695  0.0900  0.1223
 4896SOL    HW115266   4.582   9.613   8.123  0.9228 -1.5585 -0.0348
 4896SOL    HW215267   4.620   9.684   8.252 -1.0949  0.9593 -0.7317
 4897SOL     OW15268   8.613   9.090   8.001 -0.4590 -0.1960  0.0197
 4897SOL    HW115269   8.647   9.001   7.994  0.3263  0.0814  0.1899
 4897SOL    HW215270   8.577   9.110   7.914  0.3213 -0.3017 -0.3285
 4898SOL     OW15271   1.779   8.098   1.038  0.3145 -0.4270 -0.5661
 4898SOL    HW115272   1.745   8.129   0.954  0.0760 -0.7831 -0.6062
 4898SOL    HW215273   1.871   8.124   1.038  0.3971 -0.7051 -1.0786
 4899SOL     OW15274   4.400   1.890   2.106 -0.5320 -0.0491  0.7134
 4899SOL    HW115275   4.459   1.862   2.036 -0.1366 -1.0003  1.3982
 4899SOL    HW215276   4.453   1.950   2.160 -0.8992  0.8404  0.0977
 4900SOL     OW15277   6.490   6.493   0.628 -0.2073  0.0654 -0.1589
 4900SOL    HW115278   6.583   6.510   0.618 -0.0150 -0.6051  0.4415
 4900SOL    HW215279   6.484   6.400   0.653 -1.0311  0.0935 -0.1986
 4901SOL     OW15280   2.030   4.806   4.327  0.0150  0.1582 -0.5829
 4901SOL    HW115281   2.063   4.724   4.291  0.7495  1.0657 -2.1091
 4901SOL    HW215282   1.952   4.782   4.377  0.1105 -1.4339 -1.1691
 4902SOL     OW15283   7.578   8.104   7.358  0.3317 -0.6194 -0.4277
 4902SOL    HW115284   7.532   8.187   7.344 -0.4984 -1.0448 -0.3070
 4902SOL    HW215285   7.668   8.121   7.331  0.5627  0.7783  1.0576
 4903SOL     OW15286   6.920   8.467   9.742 -0.6901 -0.8278 -0.6678
 4903SOL    HW115287   7.007   8.432   9.761 -0.7877 -0.2227  1.0947
 4903SOL    HW215288   6.860   8.396   9.766 -0.7494 -0.6843 -0.3956
 4904SOL     OW15289   5.941   0.697   8.696 -0.4355 -0.0376  0.8192
 4904SOL    HW115290   5.847   0.717   8.699 -0.4240 -0.0857  2.7212
 4904SOL    HW215291   5.945   0.602   8.685 -0.5749  0.0710 -0.2890
 4905SOL     OW15292   2.601   9.945   5.525  0.5356 -0.5556 -0.3285
 4905SOL    HW115293   2.594   9.890   5.604 -0.5697  1.0750  0.7713
 4905SOL    HW215294   2.689   9.927   5.492  1.6547 -0.1646  2.1747
 4906SOL     OW15295   9.397   2.551   7.305 -0.0265  0.3420  0.5749
 4906SOL    HW115296   9.334   2.585   7.241  0.3833  1.1851  0.6001
 4906SOL    HW215297   9.393   2.456   7.295 -0.4149  0.4376 -0.2780
 4907SOL     OW15298   4.559   3.940   3.948 -0.2392  0.2369  0.1731
 4907SOL    HW115299   4.561   3.851   3.983 -1.8216  1.0680  2.6364
 4907SOL    HW215300   4.611   3.991   4.009  2.6151  0.7527 -2.4364
 4908SOL     OW15301   9.939   7.519   2.173  0.3523 -0.1184 -0.2855
 4908SOL    HW115302  10.024   7.561   2.159 -0.4453  1.0406 -1.9423
 4908SOL    HW215303   9.876   7.591   2.169 -0.9871 -1.3185 -2.2315
 4909SOL     OW15304   0.288   3.244   9.010  0.2616  0.5648  0.5355
 4909SOL    HW115305   0.237   3.325   9.018 -0.3400  0.2235  0.2324
 4909SOL    HW215306   0.244   3.182   9.067  0.3947  0.2926  0.3468
 4910SOL     OW15307   0.408   1.383   8.734 -0.1532 -0.0851  0.1203
 4910SOL    HW115308   0.468   1.364   8.806 -2.2970 -0.8670  1.7985
 4910SOL    HW215309   0.386   1.297   8.698 -1.0366  0.0890  0.2154
 4911SOL     OW15310   4.074   7.309   2.071  0.1722 -0.1080  0.1015
 4911SOL    HW115311   4.043   7.265   2.151  0.5723 -0.3551  0.1236
 4911SOL    HW215312   4.104   7.394   2.102 -0.1994  0.0193  0.1247
 4912SOL     OW15313   9.797   7.369   1.329  0.3503  1.2423  0.3546
 4912SOL    HW115314   9.852   7.443   1.356  1.5550  0.1080  1.1147
 4912SOL    HW215315   9.842   7.292   1.362 -1.3075  0.1941  0.3022
 4913SOL     OW15316   4.788   5.930   3.064 -0.7176  0.3316 -0.3496
 4913SOL    HW115317   4.715   5.982   3.097 -2.2935  0.4685 -3.6699
 4913SOL    HW215318   4.748   5.857   3.019  1.3008 -0.6884 -0.6245
 4914SOL     OW15319   3.987   2.429   1.141  0.2097 -0.0352 -0.8165
 4914SOL    HW115320   3.904   2.382   1.154  0.4786  0.1787  2.6694
 4914SOL    HW215321   3.960   2.519   1.123 -0.2526 -0.4117 -2.2123
 4915SOL     OW15322   4.206   8.813   5.542  0.6465  0.1498 -0.4710
 4915SOL    HW115323   4.287   8.845   5.581  2.2507 -0.8450 -2.7615
 4915SOL    HW215324   4.234   8.743   5.482 -2.0882 -1.4131 -0.0931
 4916SOL     OW15325   2.367   4.887   7.549  0.1028  0.1188  0.4603
 4916SOL    HW115326   2.379   4.814   7.489 -0.2643 -0.8262  1.5127
 4916SOL    HW215327   2.357   4.963   7.492 -0.3389 -0.7618 -0.6691
 4917SOL     OW15328   5.308   4.520   1.937 -0.4676  0.6471 -0.6605
 4917SOL    HW115329   5.342   4.574   2.008 -0.3829  0.0771 -0.2605
 4917SOL    HW215330   5.219   4.551   1.922 -0.6364  0.4790 -0.0054
 4918SOL     OW15331   8.317   5.014   8.079 -0.0783 -0.8464 -0.3596
 4918SOL    HW115332   8.281   4.986   7.995  0.4210 -0.5142 -0.6907
 4918SOL    HW215333   8.334   5.107   8.068 -1.3422 -0.4696  0.5896
 4919SOL     OW15334   2.599   1.656   3.950  0.7407 -0.2518  0.2536
 4919SOL    HW115335   2.586   1.611   3.867 -0.4838  0.0929  0.2473
 4919SOL    HW215336   2.541   1.612   4.011  0.6416  0.3582  0.6089
 4920SOL     OW15337   9.111   2.344   7.143 -0.4846 -0.2130 -0.5005
 4920SOL    HW115338   9.034   2.341   7.200 -0.9244  0.9415 -0.9940
 4920SOL    HW215339   9.108   2.263   7.094  1.1366 -2.3595  2.6051
 4921SOL     OW15340   7.600   5.969   2.507 -0.2224  0.7568 -0.0880
 4921SOL    HW115341   7.676   5.932   2.461  0.0027  0.2301  0.6844
 4921SOL    HW215342   7.525   5.924   2.470  0.0996 -1.1625  1.4028
 4922SOL     OW15343   2.771   8.970   8.944  0.4131 -0.0169 -0.2812
 4922SOL    HW115344   2.714   9.027   8.996 -1.7964 -2.7331  0.5221
 4922SOL    HW215345   2.752   8.993   8.853 -0.6471  0.3767  0.0220
 4923SOL     OW15346   0.756   7.963   8.939  0.4725 -0.4732 -0.4055
 4923SOL    HW115347   0.710   8.044   8.919  2.4726  0.8392  0.0158
 4923SOL    HW215348   0.769   7.921   8.853  0.6269  0.3503 -0.7943
 4924SOL     OW15349   3.997   1.441   8.500 -0.1513 -0.1924 -0.4757
 4924SOL    HW115350   3.950   1.474   8.576 -0.4443 -1.3755 -0.1133
 4924SOL    HW215351   3.932   1.441   8.429 -0.0656  0.2831 -0.5530
 4925SOL     OW15352   2.650   9.113   7.620  0.2968  0.7704  0.0744
 4925SOL    HW115353   2.711   9.183   7.642  1.3323 -0.2779  0.6311
 4925SOL    HW215354   2.674   9.041   7.678 -0.6758 -0.0925 -0.5609
 4926SOL     OW15355   6.987   0.588   7.441 -0.2448 -0.0109  0.0363
 4926SOL    HW115356   6.909   0.627   7.402 -0.9153 -0.3478  0.9959
 4926SOL    HW215357   6.957   0.554   7.526  1.1052  0.4895  0.7479
 4927SOL     OW15358   3.854   3.654   3.049  0.5315  0.3700 -0.0564
 4927SOL    HW115359   3.841   3.599   3.127  2.4584  0.5601  0.4423
 4927SOL    HW215360   3.805   3.610   2.980  0.3167 -0.8255  0.8303
 4928SOL     OW15361   0.165   0.462   3.817  0.0478 -0.4768 -0.3219
 4928SOL    HW115362   0.077   0.488   3.789  0.5257 -1.3803 -2.9787
 4928SOL    HW215363   0.162   0.366   3.823  0.0215 -0.3929  2.9896
 4929SOL     OW15364   4.596   9.645   1.037 -0.1991  0.2834 -0.8194
 4929SOL    HW115365   4.661   9.637   1.106 -1.3812 -0.5817  0.2282
 4929SOL    HW215366   4.571   9.738   1.039 -0.2905  0.2475 -0.0196
 4930SOL     OW15367   9.418   8.791   0.519  0.1864 -0.8137  0.2156
 4930SOL    HW115368   9.489   8.845   0.554 -1.6402  1.8674  0.1222
 4930SOL    HW215369   9.397   8.832   0.434 -0.8683 -2.1042 -0.1750
 4931SOL     OW15370   4.466   3.064   5.775 -0.6880  0.2323  0.4860
 4931SOL    HW115371   4.557   3.042   5.755 -0.7310  0.5792 -0.1055
 4931SOL    HW215372   4.471   3.113   5.858 -0.2655  0.8299  0.1112
 4932SOL     OW15373   8.275   0.596   3.630 -0.3142 -0.5699 -0.3528
 4932SOL    HW115374   8.293   0.678   3.585  1.7621 -1.2239 -0.8580
 4932SOL    HW215375   8.197   0.561   3.588 -1.5560  1.3500  0.2336
 4933SOL     OW15376   2.244   6.291   0.797  0.5588  0.3581 -0.1060
 4933SOL    HW115377   2.156   6.281   0.760 -0.4540 -1.8900  2.5820
 4933SOL    HW215378   2.241   6.373   0.845 -0.1314  0.2597  0.0333
 4934SOL     OW15379   6.710   6.875   9.812 -0.1738  0.4591  0.6547
 4934SOL    HW115380   6.681   6.852   9.900 -1.7206 -0.4425 -0.0557
 4934SOL    HW215381   6.806   6.868   9.816 -0.2143  0.5215  2.2678
 4935SOL     OW15382   0.883   7.556   6.106 -0.7156  0.0171 -0.1588
 4935SOL    HW115383   0.968   7.568   6.149 -0.7784 -0.2849  0.0484
 4935SOL    HW215384   0.846   7.644   6.101 -1.6922 -0.1773  2.4148
 4936SOL     OW15385   2.756   4.323   9.681 -0.2024  0.4903 -0.3241
 4936SOL    HW115386   2.774   4.344   9.773 -3.2598  0.1295  0.4852
 4936SOL    HW215387   2.702   4.395   9.650 -1.7013 -0.8016 -0.8638
 4937SOL     OW15388   6.999   2.062   8.696  0.5963  0.2437 -0.5306
 4937SOL    HW115389   7.011   2.117   8.773 -1.6392 -0.1744  0.1812
 4937SOL    HW215390   6.985   2.123   8.624 -0.2994  0.6412 -0.0321
 4938SOL     OW15391   7.966   9.549   6.238 -0.4476  0.3167  0.5030
 4938SOL    HW115392   7.883   9.507   6.215  0.2492 -1.4055  0.9405
 4938SOL    HW215393   8.032   9.481   6.224  0.6819  1.0920  1.7863
 4939SOL     OW15394   1.150   0.445   2.125  0.5114 -0.5300  0.4802
 4939SOL    HW115395   1.095   0.418   2.052 -0.5827  1.4598  0.4944
 4939SOL    HW215396   1.165   0.539   2.111 -0.2413  0.0853  3.0728
 4940SOL     OW15397   9.630   6.562   8.987 -0.6942  0.1154 -0.4083
 4940SOL    HW115398   9.539   6.545   8.965 -0.1647 -0.2464 -2.5431
 4940SOL    HW215399   9.679   6.495   8.938  0.7560  0.7098  0.1741
 4941SOL     OW15400   0.307   6.561   2.223 -0.2574 -0.4798 -0.7111
 4941SOL    HW115401   0.257   6.609   2.157  1.1978  0.4159 -1.1863
 4941SOL    HW215402   0.266   6.474   2.224 -1.3079 -0.0291 -1.6499
 4942SOL     OW15403   1.741   8.433   1.518  0.4890  0.0704  0.2909
 4942SOL    HW115404   1.769   8.430   1.609 -1.1356  0.1821  0.8234
 4942SOL    HW215405   1.818   8.466   1.470  0.8073  1.7728  1.8545
 4943SOL     OW15406   5.249   1.660   5.468  0.1424 -0.4480  0.2152
 4943SOL    HW115407   5.284   1.739   5.425  1.4687 -1.3499 -0.4278
 4943SOL    HW215408   5.206   1.693   5.547 -0.3863  1.0332 -0.6546
 4944SOL     OW15409   1.894   7.747   9.540  0.2438 -0.0359  0.2591
 4944SOL    HW115410   1.948   7.741   9.461 -1.0438  0.3434 -0.6819
 4944SOL    HW215411   1.855   7.834   9.536 -1.8314 -0.9152 -0.0523
 4945SOL     OW15412   2.697   4.884   6.065  0.0079 -0.0994 -0.6884
 4945SOL    HW115413   2.739   4.898   6.150 -0.7944  1.3367 -0.4901
 4945SOL    HW215414   2.762   4.837   6.013  0.6338 -0.7200  0.6202
 4946SOL     OW15415   5.906   3.324   9.197 -0.2348  0.8508  0.4991
 4946SOL    HW115416   5.989   3.278   9.187 -0.3786  0.0613  2.5910
 4946SOL    HW215417   5.918   3.406   9.148  1.8617  0.8688  0.9567
 4947SOL     OW15418   0.426   5.967   2.589  0.2337 -0.5874  0.0573
 4947SOL    HW115419   0.455   6.014   2.511  0.6955  0.0210  0.5927
 4947SOL    HW215420   0.465   6.014   2.662  0.0046 -1.3001  0.6505
 4948SOL     OW15421   1.054   4.578   0.758  0.3612 -0.1039  0.0275
 4948SOL    HW115422   1.090   4.492   0.741 -2.7947 -1.7350  0.7925
 4948SOL    HW215423   1.041   4.580   0.853 -1.4439  0.3702 -0.1990
 4949SOL     OW15424   0.264   4.009   1.452  0.3129 -0.4628  0.2393
 4949SOL    HW115425   0.269   4.002   1.547 -0.5550 -1.0824  0.2539
 4949SOL    HW215426   0.271   4.102   1.434 -3.2438  0.1550  1.2176
 4950SOL     OW15427   5.447   0.842   3.737 -0.5178 -0.1287  0.0870
 4950SOL    HW115428   5.428   0.764   3.788 -0.6211  0.3411  0.7764
 4950SOL    HW215429   5.509   0.892   3.791 -0.5477  0.3213 -0.2852
 4951SOL     OW15430   8.225   9.421   3.315 -0.2270  1.0958  0.1361
 4951SOL    HW115431   8.132   9.406   3.303 -0.8592  2.5480  2.5628
 4951SOL    HW215432   8.240   9.508   3.276 -0.5169  2.0636  2.0767
 4952SOL     OW15433   0.128   5.295   8.453  0.3915  0.3714  0.0656
 4952SOL    HW115434   0.202   5.258   8.404  0.4034  0.0702  0.3094
 4952SOL    HW215435   0.069   5.221   8.466  0.1001  0.5866 -0.0267
 4953SOL     OW15436   3.465   2.617   9.205 -0.2189  0.4769  0.5198
 4953SOL    HW115437   3.458   2.600   9.299 -2.3062  1.7846  0.6744
 4953SOL    HW215438   3.505   2.704   9.200  0.2390  0.2464  0.1855
 4954SOL     OW15439   3.549   2.736   6.314 -0.2831  0.0615 -0.0195
 4954SOL    HW115440   3.635   2.720   6.275  0.0571  0.3461  0.6001
 4954SOL    HW215441   3.518   2.650   6.340  0.8108  0.1654  1.7867
 4955SOL     OW15442   8.909  -0.017   4.419 -0.0552  0.1728  0.5785
 4955SOL    HW115443   9.002  -0.007   4.441  0.3404 -1.0174 -0.3874
 4955SOL    HW215444   8.865   0.051   4.469  1.4405  1.3593  0.3747
 4956SOL     OW15445   9.861   8.300   0.327  0.3864  0.2509  0.4750
 4956SOL    HW115446   9.844   8.372   0.387  1.5159  0.0903  1.0178
 4956SOL    HW215447   9.916   8.338   0.258  0.3623  0.0853  0.3610
 4957SOL     OW15448   5.630   3.060   0.204 -0.0274 -0.0585  0.0076
 4957SOL    HW115449   5.661   3.139   0.160 -1.6387  0.4880 -0.2109
 4957SOL    HW215450   5.655   3.073   0.296 -0.2217  0.6696 -0.0405
 4958SOL     OW15451   8.120   3.371   0.442  0.4486 -0.0941  0.4779
 4958SOL    HW115452   8.048   3.379   0.505 -0.8874  2.2634 -1.1784
 4958SOL    HW215453   8.099   3.292   0.392  0.7436 -1.1691  1.9854
 4959SOL     OW15454   4.976   8.511   5.294 -0.1023 -0.1597 -0.3674
 4959SOL    HW115455   4.992   8.517   5.388 -1.0733  1.0880 -0.2620
 4959SOL    HW215456   5.041   8.448   5.263  0.3561 -0.4500  1.1021
 4960SOL     OW15457   1.964   0.938   5.956 -0.0172  0.1820  0.1702
 4960SOL    HW115458   2.045   0.952   5.908 -0.0897  0.4840  0.1381
 4960SOL    HW215459   1.991   0.929   6.048 -0.0434  1.3032  0.2973
 4961SOL     OW15460   6.060   2.933   1.179  0.4278  0.0723  0.4705
 4961SOL    HW115461   6.122   2.936   1.252  0.3325 -1.5735  0.6489
 4961SOL    HW215462   6.068   2.844   1.144  0.7197  0.9219 -1.7663
 4962SOL     OW15463   2.782   6.038   4.947  0.4546  0.2206  0.4192
 4962SOL    HW115464   2.749   6.088   5.022  0.6021  0.0467  0.6044
 4962SOL    HW215465   2.867   6.079   4.927  0.8924 -0.3692  1.0022
 4963SOL     OW15466   6.499   1.528   5.842  0.2171  0.0883 -0.3460
 4963SOL    HW115467   6.515   1.434   5.851  0.6782  0.1925 -0.0156
 4963SOL    HW215468   6.491   1.542   5.747 -0.3058 -0.3500 -0.3694
 4964SOL     OW15469   4.880   0.220   9.469  0.3917 -0.6053  0.1137
 4964SOL    HW115470   4.785   0.212   9.471  0.3584 -1.0273 -1.5086
 4964SOL    HW215471   4.898   0.268   9.388  1.6139 -1.5166 -0.1842
 4965SOL     OW15472   4.367   9.028   6.297  0.0251  0.1612 -0.0293
 4965SOL    HW115473   4.417   9.053   6.219  1.1283  0.3651  0.7189
 4965SOL    HW215474   4.354   9.110   6.344 -0.2404 -0.0278  0.2291
 4966SOL     OW15475   6.938   7.943   3.934 -0.1233  0.1243  0.1567
 4966SOL    HW115476   7.008   7.926   3.872 -0.4139 -0.2811 -0.0600
 4966SOL    HW215477   6.982   7.983   4.009  0.7091 -2.2058  0.9968
 4967SOL     OW15478   8.376   7.273   3.707  0.3624 -0.2732  0.0832
 4967SOL    HW115479   8.348   7.195   3.660 -0.9595  0.6748 -0.7666
 4967SOL    HW215480   8.308   7.338   3.690  1.6709  1.2396  0.3287
 4968SOL     OW15481   7.925   2.821   5.724 -0.0048  0.3692  0.0784
 4968SOL    HW115482   7.965   2.863   5.647 -0.9054 -0.0433 -0.6289
 4968SOL    HW215483   7.977   2.741   5.736 -0.6166 -0.1965 -0.8764
 4969SOL     OW15484   5.484   6.733   8.415  0.0733 -0.0822  0.3744
 4969SOL    HW115485   5.452   6.781   8.491 -0.4275 -0.6943  0.5645
 4969SOL    HW215486   5.501   6.800   8.349  1.5536  0.5732  1.3715
 4970SOL     OW15487   5.723   4.611   0.106  0.1223 -0.0846  0.1786
 4970SOL    HW115488   5.738   4.612   0.012 -0.8816 -0.4059  0.0090
 4970SOL    HW215489   5.631   4.591   0.116 -0.0266  0.9716  1.2132
 4971SOL     OW15490   6.708   9.779   2.671 -0.3038 -0.0776  0.2780
 4971SOL    HW115491   6.665   9.705   2.714  0.4468 -1.3479 -1.0593
 4971SOL    HW215492   6.786   9.741   2.631  0.3961  1.5636  0.0083
 4972SOL     OW15493   5.734   6.570   0.243  0.0461  0.3614 -0.8811
 4972SOL    HW115494   5.660   6.554   0.185 -0.4380 -1.0660  0.0935
 4972SOL    HW215495   5.695   6.607   0.322  0.4725  0.4119 -0.6923
 4973SOL     OW15496   5.228   1.813   1.865  0.4315  0.0297 -0.2895
 4973SOL    HW115497   5.169   1.844   1.796  0.7609 -2.5934 -1.8471
 4973SOL    HW215498   5.290   1.756   1.821  1.7625 -0.3796  1.9456
 4974SOL     OW15499   9.372   6.247   6.373 -0.2011 -0.4024 -0.1799
 4974SOL    HW115500   9.361   6.153   6.357  1.0774 -0.6345  0.1776
 4974SOL    HW215501   9.376   6.286   6.286  0.4325 -0.8321 -0.3499
 4975SOL     OW15502   3.387   0.648   8.349 -0.0581  0.4146  0.0726
 4975SOL    HW115503   3.385   0.588   8.275  0.9532  1.8087 -1.1389
 4975SOL    HW215504   3.295   0.669   8.365 -0.2881  0.1553 -0.8471
 4976SOL     OW15505   8.408   2.595   7.920 -0.1169 -0.2073  0.0840
 4976SOL    HW115506   8.497   2.573   7.947  0.4986 -1.1211 -2.4590
 4976SOL    HW215507   8.416   2.682   7.882 -0.3620 -0.1917  0.0682
 4977SOL     OW15508   8.551   7.598   1.535 -0.5265 -0.4008 -0.4028
 4977SOL    HW115509   8.617   7.602   1.604  0.2391  1.8861 -1.1703
 4977SOL    HW215510   8.467   7.599   1.582 -0.0178  0.0995  0.5335
 4978SOL     OW15511   5.861   0.610   6.519  0.1681  0.5738 -0.1956
 4978SOL    HW115512   5.800   0.536   6.517  1.1117 -0.2794  0.9611
 4978SOL    HW215513   5.870   0.631   6.612  2.3292  0.0590 -0.2387
 4979SOL     OW15514   1.250   8.018   7.859  0.3655  0.9720  0.0505
 4979SOL    HW115515   1.196   8.010   7.780  0.9587  0.6214 -0.3263
 4979SOL    HW215516   1.197   8.070   7.919  0.6196  2.7614 -1.2090
 4980SOL     OW15517   2.542   0.646   3.429 -0.0109  0.3575 -0.1658
 4980SOL    HW115518   2.579   0.659   3.516 -2.8215 -0.9597  1.3413
 4980SOL    HW215519   2.547   0.733   3.388  0.2872  1.3004  1.7602
 4981SOL     OW15520   4.509   5.762   3.279  0.4171 -0.5386  0.1711
 4981SOL    HW115521   4.585   5.799   3.324  0.5138 -2.1635  1.4622
 4981SOL    HW215522   4.447   5.742   3.349 -1.6541  1.6035 -0.9403
 4982SOL     OW15523   4.078   6.051   3.510 -0.0854 -0.2446 -0.8647
 4982SOL    HW115524   4.002   6.096   3.472 -0.8686 -0.6803  0.1474
 4982SOL    HW215525   4.056   5.958   3.504  0.0939 -0.3501 -0.0257
 4983SOL     OW15526   6.765   3.289   3.728  0.3185  0.1974  0.4994
 4983SOL    HW115527   6.758   3.385   3.725  1.8905  0.4338  2.4816
 4983SOL    HW215528   6.859   3.272   3.728  0.0682 -1.3193  1.1713
 4984SOL     OW15529   4.297   9.966   0.806  0.0161 -0.0975 -0.0418
 4984SOL    HW115530   4.364   9.992   0.743 -1.1115  1.4473 -0.6842
 4984SOL    HW215531   4.344   9.954   0.888  0.8727  2.7117 -0.0322
 4985SOL     OW15532   4.657   0.563   1.589 -0.1598 -0.8936 -0.6920
 4985SOL    HW115533   4.643   0.478   1.548  0.5837 -1.1147 -0.4954
 4985SOL    HW215534   4.692   0.542   1.676 -2.1327 -0.4492  0.2624
 4986SOL     OW15535   2.185   1.265   3.130 -0.3418 -0.4613  0.1015
 4986SOL    HW115536   2.194   1.180   3.087 -2.3712 -0.8923  0.4376
 4986SOL    HW215537   2.091   1.277   3.140 -0.0830  1.6816  0.3843
 4987SOL     OW15538   8.211   5.436   5.907 -0.2273  0.7129 -0.2959
 4987SOL    HW115539   8.131   5.476   5.940  0.4255  1.4440  0.4495
 4987SOL    HW215540   8.268   5.429   5.984  0.4007  0.1521 -0.8004
 4988SOL     OW15541   7.995   8.521   8.405 -0.4000  0.2862  0.2275
 4988SOL    HW115542   8.060   8.456   8.434 -0.8266 -0.4797 -0.5048
 4988SOL    HW215543   8.034   8.560   8.327  0.2334  1.5390  1.1302
 4989SOL     OW15544   0.304   4.408   4.385 -0.7289  0.0896  0.0278
 4989SOL    HW115545   0.307   4.327   4.435 -0.3489  1.0613  1.6332
 4989SOL    HW215546   0.389   4.412   4.342  0.9228  1.5164  3.1241
 4990SOL     OW15547   3.448   0.693   6.828  0.2257 -0.3150  0.4222
 4990SOL    HW115548   3.370   0.687   6.884  0.2435 -1.1031  0.3787
 4990SOL    HW215549   3.510   0.633   6.869  0.6709  0.0129  0.2302
 4991SOL     OW15550   5.887   8.512   6.859 -0.1837  0.2525  0.0531
 4991SOL    HW115551   5.978   8.495   6.885  0.2586  0.0933 -1.5072
 4991SOL    HW215552   5.835   8.479   6.932  1.0247  0.8798  1.2315
 4992SOL     OW15553   3.454   5.674   4.392  0.0887 -0.0431  0.0021
 4992SOL    HW115554   3.397   5.744   4.362 -0.7278  0.5535  2.7154
 4992SOL    HW215555   3.516   5.716   4.451 -0.1743 -1.5252  1.4044
 4993SOL     OW15556   4.209   3.799   1.371  0.4969  0.0247  0.0713
 4993SOL    HW115557   4.172   3.763   1.291 -2.1474  0.2544  1.1094
 4993SOL    HW215558   4.267   3.729   1.404  1.0336 -0.3578 -1.5854
 4994SOL     OW15559   0.473   3.824   8.089  0.1821  0.4827  0.1120
 4994SOL    HW115560   0.544   3.762   8.070  0.9699  2.1548 -3.1667
 4994SOL    HW215561   0.506   3.876   8.162 -0.7399 -3.0410  3.4025
 4995SOL     OW15562   1.259   5.637   9.807 -0.2617  0.2010 -0.5846
 4995SOL    HW115563   1.218   5.603   9.728 -1.5147  2.3333 -0.9255
 4995SOL    HW215564   1.199   5.704   9.839  0.8688  0.3505  1.4309
 4996SOL     OW15565   7.812   9.931   3.751  0.2614 -0.0972  0.4914
 4996SOL    HW115566   7.790   9.873   3.678 -0.8958  1.9654 -0.9296
 4996SOL    HW215567   7.826   9.873   3.826 -3.2572 -2.0816 -0.2018
 4997SOL     OW15568   5.027   7.195   3.127  0.4756  0.1760 -0.3524
 4997SOL    HW115569   4.958   7.155   3.076  1.2663 -1.4371 -0.2214
 4997SOL    HW215570   4.982   7.238   3.200 -0.3976 -0.6989 -0.3652
 4998SOL     OW15571   1.454   7.791   3.719 -0.1885 -0.9570  0.0632
 4998SOL    HW115572   1.401   7.721   3.681 -0.7184 -0.6493  0.2252
 4998SOL    HW215573   1.410   7.813   3.801 -0.7823  0.4556 -0.6092
 4999SOL     OW15574   2.963   0.634   3.775 -0.4987 -0.3071 -0.1714
 4999SOL    HW115575   2.942   0.551   3.818  1.1216 -1.2381 -1.0764
 4999SOL    HW215576   2.915   0.632   3.693  0.5424 -0.9683 -0.7821
 5000SOL     OW15577   9.810   6.911   2.121  0.0583 -0.2955 -0.2091
 5000SOL    HW115578   9.841   6.903   2.211  1.5064 -1.0015 -0.7523
 5000SOL    HW215579   9.889   6.927   2.069 -0.5431 -1.4557 -1.5529
 5001SOL     OW15580   0.773   2.751   5.898  0.0187 -0.2930 -0.1866
 5001SOL    HW115581   0.749   2.684   5.962 -0.1325  0.7033  0.8270
 5001SOL    HW215582   0.861   2.777   5.922  0.1046 -0.1780 -0.6226
 5002SOL     OW15583   7.054   3.679   2.343  0.0242  0.9853  0.0111
 5002SOL    HW115584   6.960   3.685   2.364  0.4431  1.8546  1.8980
 5002SOL    HW215585   7.098   3.694   2.427  1.8753  1.2407 -0.9526
 5003SOL     OW15586   3.158   0.842   9.298  0.2821  0.1994 -0.6836
 5003SOL    HW115587   3.107   0.897   9.358  1.6317 -1.1538  1.8675
 5003SOL    HW215588   3.216   0.903   9.253 -0.4593  1.2054 -0.3226
 5004SOL     OW15589   7.681   6.269   0.525 -0.5627 -0.1999  0.1127
 5004SOL    HW115590   7.605   6.216   0.548  0.4135 -1.8153 -0.2801
 5004SOL    HW215591   7.738   6.210   0.476  1.2160  0.8020  0.8855
 5005SOL     OW15592   9.349   4.520   8.718 -0.3101 -0.9916 -0.0301
 5005SOL    HW115593   9.311   4.602   8.687 -0.9884 -0.8214  1.2151
 5005SOL    HW215594   9.419   4.548   8.777  0.0308 -1.3181 -0.2762
 5006SOL     OW15595   3.522   3.987   9.504 -0.3183 -0.2809  0.2005
 5006SOL    HW115596   3.572   4.061   9.539 -1.7706  1.3656 -1.0361
 5006SOL    HW215597   3.501   4.012   9.414 -0.4301 -2.4436 -0.4280
 5007SOL     OW15598   9.540   7.504   9.141  0.0313 -0.2029  0.4473
 5007SOL    HW115599   9.615   7.559   9.120 -0.3204  0.1603  0.1440
 5007SOL    HW215600   9.565   7.416   9.114 -0.8721  0.4107 -2.7215
 5008SOL     OW15601   2.796   1.693   4.254  0.8796  0.2957 -0.3911
 5008SOL    HW115602   2.794   1.597   4.262  3.3017  0.0732 -1.5747
 5008SOL    HW215603   2.805   1.709   4.160 -1.1985  1.8102 -0.4036
 5009SOL     OW15604   6.081   2.812   8.950 -0.4960  0.0451  0.2066
 5009SOL    HW115605   6.014   2.810   9.018 -0.1771 -1.8994  0.5440
 5009SOL    HW215606   6.060   2.737   8.894  1.1190 -0.3452  0.0721
 5010SOL     OW15607   7.485   8.812   5.854 -0.2417  0.0329  0.5269
 5010SOL    HW115608   7.452   8.805   5.943 -2.4150 -2.3762 -0.3332
 5010SOL    HW215609   7.481   8.906   5.834 -1.2659  0.4339  2.4204
 5011SOL     OW15610   7.535   6.947   0.194  0.0397 -0.4310 -0.2768
 5011SOL    HW115611   7.561   6.882   0.260  1.5969 -0.8009 -1.1980
 5011SOL    HW215612   7.584   7.026   0.217  0.8675 -0.6687 -1.1679
 5012SOL     OW15613   0.075   2.908   7.846  0.4057 -0.2400 -0.5697
 5012SOL    HW115614   0.006   2.889   7.782 -0.0657  2.1983 -0.8955
 5012SOL    HW215615   0.036   2.973   7.904  1.5571 -0.8503  0.9394
 5013SOL     OW15616   2.306   4.253   9.146  0.6708  0.4086 -0.1390
 5013SOL    HW115617   2.237   4.292   9.092  0.6787  3.3773  1.7661
 5013SOL    HW215618   2.331   4.174   9.099 -1.8345  0.8766 -2.5254
 5014SOL     OW15619   3.074   3.817   8.477 -1.0791 -0.0499 -0.1467
 5014SOL    HW115620   3.153   3.841   8.429 -0.4333  0.4943  1.1621
 5014SOL    HW215621   3.037   3.743   8.427  0.5861 -0.7364 -0.4233
 5015SOL     OW15622   1.114   1.222   1.138  0.5069  0.0291 -0.4092
 5015SOL    HW115623   1.087   1.131   1.149 -0.0885 -0.0103 -2.0434
 5015SOL    HW215624   1.035   1.273   1.157  0.6181  0.1683 -0.3178
 5016SOL     OW15625   8.826   6.189   6.960  0.3858 -0.4307  0.2955
 5016SOL    HW115626   8.891   6.258   6.970  1.1980 -0.9749 -0.9600
 5016SOL    HW215627   8.742   6.235   6.959  0.6811  0.2451  2.3371
 5017SOL     OW15628   5.966   3.567   9.056  0.1812 -0.5401 -0.1990
 5017SOL    HW115629   5.873   3.581   9.039  0.7821  2.8697 -1.4923
 5017SOL    HW215630   6.002   3.536   8.973  0.7003  1.8106 -0.9441
 5018SOL     OW15631   6.072   5.184   8.223  0.2085  0.1271 -0.3695
 5018SOL    HW115632   6.123   5.185   8.143  1.7583  1.0931  0.5674
 5018SOL    HW215633   5.997   5.240   8.205  1.4940  1.8576 -0.6122
 5019SOL     OW15634   7.772   3.787   1.235 -0.1829  0.7321  0.4368
 5019SOL    HW115635   7.769   3.691   1.235  1.1287  0.6539 -0.7614
 5019SOL    HW215636   7.790   3.810   1.144  0.4844  2.0568  0.8823
 5020SOL     OW15637   4.896   6.952   9.015 -0.3714  0.5826 -0.0580
 5020SOL    HW115638   4.991   6.953   9.018 -0.3393  2.2349 -0.6924
 5020SOL    HW215639   4.869   6.953   9.107  0.2097  0.5926  0.1166
 5021SOL     OW15640   3.711   1.695   4.660  0.2452 -0.2942  0.1142
 5021SOL    HW115641   3.660   1.770   4.630  1.3506  0.4431  0.0384
 5021SOL    HW215642   3.723   1.710   4.754  1.4277  0.2412 -0.0981
 5022SOL     OW15643   4.253   4.593   1.020 -0.1296 -0.2680 -0.5238
 5022SOL    HW115644   4.195   4.566   1.092  0.3491  0.6828  0.2455
 5022SOL    HW215645   4.195   4.608   0.946 -0.5595 -1.9816 -0.5716
 5023SOL     OW15646   3.553   0.889   9.231  0.0823  0.3115 -0.2288
 5023SOL    HW115647   3.566   0.895   9.136  0.8662 -1.5634 -0.2655
 5023SOL    HW215648   3.479   0.948   9.248 -0.5635  0.1126 -2.1104
 5024SOL     OW15649   8.475   7.050   5.615 -0.5129 -0.4604 -0.1852
 5024SOL    HW115650   8.412   7.098   5.669 -1.0051 -1.6796  0.3527
 5024SOL    HW215651   8.542   7.115   5.593 -0.8122  0.3046  1.0764
 5025SOL     OW15652   1.327   0.098   9.401 -0.4074  0.4737  0.7075
 5025SOL    HW115653   1.378   0.149   9.464  1.6195 -0.5572  0.0076
 5025SOL    HW215654   1.267   0.047   9.455 -0.6568  1.6452  1.5870
 5026SOL     OW15655   5.739   9.489   9.834 -0.0287 -0.3199  0.1864
 5026SOL    HW115656   5.757   9.396   9.844 -1.7802 -0.8593 -1.0624
 5026SOL    HW215657   5.671   9.508   9.898 -0.4441 -0.1806 -0.2844
 5027SOL     OW15658   8.969   2.227   4.991  0.0217 -0.2473 -0.5037
 5027SOL    HW115659   8.927   2.232   5.077 -1.6625  0.7827 -1.3224
 5027SOL    HW215660   8.992   2.134   4.981  1.1890 -0.2377  1.4266
 5028SOL     OW15661   7.707   5.040   6.585  0.5073  0.1413 -0.3665
 5028SOL    HW115662   7.767   5.114   6.582  1.8789 -0.9174  0.1994
 5028SOL    HW215663   7.654   5.056   6.664 -1.0872  1.8516 -1.6632
 5029SOL     OW15664   6.420   1.820   6.954 -0.3316 -0.7903 -0.3695
 5029SOL    HW115665   6.498   1.782   6.914 -0.6435 -1.1589 -0.6287
 5029SOL    HW215666   6.348   1.797   6.895 -0.7330 -1.0042  0.1929
 5030SOL     OW15667   2.006   1.975   0.178 -0.2397 -0.1535  0.4776
 5030SOL    HW115668   1.924   2.024   0.170  1.2527  2.5813  0.7296
 5030SOL    HW215669   2.021   1.938   0.091 -1.9081 -1.0706  0.5392
 5031SOL     OW15670   1.426   4.047   0.782  0.2205 -0.3557  0.5377
 5031SOL    HW115671   1.450   4.108   0.713 -0.9587  0.8070  1.1194
 5031SOL    HW215672   1.507   4.035   0.833  1.0840 -1.1897 -0.9758
 5032SOL     OW15673   5.679   8.656   9.946 -0.4399 -0.6592  0.2065
 5032SOL    HW115674   5.609   8.719   9.962 -0.8027 -1.6471  3.2270
 5032SOL    HW215675   5.760   8.704   9.961 -0.4775  0.0820 -1.7200
 5033SOL     OW15676   1.010   3.061   6.683 -0.1944  0.7984  0.4567
 5033SOL    HW115677   0.930   3.111   6.667 -0.0759  0.7561 -0.2913
 5033SOL    HW215678   1.014   2.998   6.611  0.6333  0.9554  0.3543
 5034SOL     OW15679   4.798   5.974   6.629  0.1510 -0.3910 -0.4790
 5034SOL    HW115680   4.811   6.010   6.716  1.1937 -2.0797  0.1144
 5034SOL    HW215681   4.708   5.941   6.629  0.0803 -0.2010 -0.1278
 5035SOL     OW15682   8.710   1.582   8.726  0.0304 -0.0611 -0.3167
 5035SOL    HW115683   8.804   1.594   8.740  0.1562 -0.6339 -0.6153
 5035SOL    HW215684   8.699   1.588   8.631 -0.0959 -0.8531 -0.3582
 5036SOL     OW15685   5.203   0.740   7.156  0.4306 -0.4866  0.8400
 5036SOL    HW115686   5.183   0.796   7.081 -0.5558  0.2952  1.6579
 5036SOL    HW215687   5.260   0.794   7.211 -1.9941  0.4879  2.5317
 5037SOL     OW15688   1.179   8.399   1.411  0.4614  0.2240 -0.0294
 5037SOL    HW115689   1.181   8.476   1.467  1.6409  0.1325  0.0805
 5037SOL    HW215690   1.222   8.331   1.462 -1.9131 -1.0038  0.5201
 5038SOL     OW15691   5.365   6.184   8.158 -0.2644  0.2845  0.5005
 5038SOL    HW115692   5.371   6.097   8.197  0.8069 -0.1530 -0.5995
 5038SOL    HW215693   5.277   6.214   8.180 -0.7174 -1.1532  0.7328
 5039SOL     OW15694   4.647   2.198   0.070 -0.3650  0.2188  0.3497
 5039SOL    HW115695   4.553   2.186   0.056 -0.4432 -0.6679  1.4370
 5039SOL    HW215696   4.657   2.292   0.090 -0.9695  0.3742 -0.0656
 5040SOL     OW15697   0.854   2.820   2.800  0.5070 -0.2561 -0.0917
 5040SOL    HW115698   0.866   2.737   2.754 -1.8425 -0.1611 -1.0005
 5040SOL    HW215699   0.828   2.794   2.889  2.1810 -0.4420  0.3772
 5041SOL     OW15700   7.426   4.454   0.405 -0.4309 -0.6643  0.5299
 5041SOL    HW115701   7.356   4.456   0.470  0.5453 -1.4598  1.6598
 5041SOL    HW215702   7.411   4.531   0.351 -1.0716  0.2292  1.9318
 5042SOL     OW15703   9.924   1.992   6.673  0.3764 -0.0031  0.1783
 5042SOL    HW115704   9.898   2.078   6.705 -1.9357 -1.1111  1.5602
 5042SOL    HW215705   9.849   1.962   6.622  1.4078 -0.9627 -0.8438
 5043SOL     OW15706   4.471   4.620   1.459  0.1545  0.6351  0.2918
 5043SOL    HW115707   4.500   4.706   1.490 -1.0081  1.4557 -0.7670
 5043SOL    HW215708   4.539   4.560   1.488  1.0022  1.9087  1.0689
 5044SOL     OW15709   6.955   9.371   4.567  0.0751 -0.1829  0.2105
 5044SOL    HW115710   7.025   9.429   4.537  0.5082 -0.4944  0.5939
 5044SOL    HW215711   6.902   9.425   4.626 -0.5472  0.3134 -0.7846
 5045SOL     OW15712   0.161   3.662   2.783  0.1208  0.0733 -0.3876
 5045SOL    HW115713   0.065   3.663   2.787  0.1522 -0.0123  0.9728
 5045SOL    HW215714   0.188   3.627   2.868  1.3709  0.3400 -0.6545
 5046SOL     OW15715   7.042   7.513   1.469  0.6512 -0.4172  0.4409
 5046SOL    HW115716   7.132   7.510   1.438  0.4845  3.5413 -1.0674
 5046SOL    HW215717   7.044   7.574   1.543 -0.7861 -0.2622  0.3880
 5047SOL     OW15718   2.247   9.097   8.073 -0.2303 -0.0817 -0.6733
 5047SOL    HW115719   2.311   9.128   8.008 -0.2514  0.1399 -0.5890
 5047SOL    HW215720   2.297   9.040   8.131  0.0817  0.7397 -0.1166
 5048SOL     OW15721   0.502   3.346   6.093 -0.2528 -0.5036 -0.2640
 5048SOL    HW115722   0.546   3.304   6.019 -1.4509 -1.5400 -0.4122
 5048SOL    HW215723   0.493   3.438   6.066  0.5116 -0.5867 -0.8330
 5049SOL     OW15724   7.307   9.456   3.175 -0.7485  0.1416 -0.3217
 5049SOL    HW115725   7.212   9.467   3.171 -0.6228  3.0932  1.3966
 5049SOL    HW215726   7.323   9.408   3.256 -0.7656  1.0394  0.2307
 5050SOL     OW15727   1.996   6.336   1.106 -0.0303  0.1383  0.0465
 5050SOL    HW115728   1.960   6.325   1.018 -0.4130 -0.6762  0.2947
 5050SOL    HW215729   2.071   6.395   1.094  0.4220 -0.6033 -0.9636
 5051SOL     OW15730   1.448   9.255   8.806 -0.0285 -0.5464  0.1462
 5051SOL    HW115731   1.464   9.163   8.829 -1.2523 -1.0134 -0.7446
 5051SOL    HW215732   1.433   9.254   8.712  2.4551  0.9653 -0.3781
 5052SOL     OW15733   5.539   1.437   9.316 -0.1994  0.2612  0.0438
 5052SOL    HW115734   5.565   1.512   9.263 -1.1138  0.6197  0.0826
 5052SOL    HW215735   5.536   1.363   9.255 -0.8858  0.5960 -0.3304
 5053SOL     OW15736   5.709   1.872   5.882 -0.1075  0.5686  0.2614
 5053SOL    HW115737   5.653   1.948   5.867 -1.0384  0.2368  1.8105
 5053SOL    HW215738   5.650   1.806   5.917  0.5386 -1.1464 -1.6706
 5054SOL     OW15739   9.190   7.529   7.312  0.9934 -0.3107  0.1960
 5054SOL    HW115740   9.144   7.553   7.231  0.0033 -1.5125  0.3806
 5054SOL    HW215741   9.248   7.604   7.329  0.3883  0.4666 -0.9964
 5055SOL     OW15742   3.836   1.806   8.991 -0.6466  0.0160 -0.3810
 5055SOL    HW115743   3.869   1.815   8.902 -0.4937 -0.4052 -0.3685
 5055SOL    HW215744   3.890   1.867   9.042 -2.6464  2.4808 -1.0234
 5056SOL     OW15745   8.635   7.846   7.122 -0.2150  0.1812 -0.5813
 5056SOL    HW115746   8.722   7.826   7.157 -1.2832 -0.8279  1.7522
 5056SOL    HW215747   8.593   7.761   7.113 -1.5208  0.7435 -0.0374
 5057SOL     OW15748   3.440   1.982   5.728  0.0268 -0.0074 -0.6315
 5057SOL    HW115749   3.383   1.998   5.653 -1.3663  1.3106  0.6192
 5057SOL    HW215750   3.392   1.919   5.781  0.5365 -0.1765 -0.3625
 5058SOL     OW15751   5.245   6.822   2.171  0.0273 -0.3470 -0.5840
 5058SOL    HW115752   5.280   6.905   2.138  0.4455 -0.1927  0.2174
 5058SOL    HW215753   5.209   6.779   2.094 -0.8293  0.8879 -0.9119
 5059SOL     OW15754   2.710   0.914   8.776 -0.3536  0.7556 -0.3468
 5059SOL    HW115755   2.655   0.943   8.849 -0.9191  0.9297 -0.8390
 5059SOL    HW215756   2.793   0.891   8.817 -0.7065  0.7355  0.3720
 5060SOL     OW15757   1.542   2.535   5.665  0.2909  0.2331 -0.1496
 5060SOL    HW115758   1.535   2.542   5.569  0.1588  2.5262 -0.0289
 5060SOL    HW215759   1.621   2.583   5.687 -0.3324  0.7928  0.9770
 5061SOL     OW15760   3.343   8.801   5.336 -0.3072 -0.2226 -0.0603
 5061SOL    HW115761   3.419   8.771   5.286  1.5169 -0.0568  2.4193
 5061SOL    HW215762   3.328   8.732   5.400 -1.7375  0.1470  0.0315
 5062SOL     OW15763   9.948   0.712   1.617 -0.3217 -0.0473 -0.2166
 5062SOL    HW115764   9.944   0.617   1.630  1.3326 -0.0851  0.2364
 5062SOL    HW215765  10.022   0.740   1.669 -0.5554  1.4615 -0.6505
 5063SOL     OW15766   2.493   8.550   2.566  0.2228  0.7303 -0.3082
 5063SOL    HW115767   2.562   8.614   2.550  0.3760  0.1612 -2.0404
 5063SOL    HW215768   2.511   8.517   2.654  2.0008  0.7881 -0.6118
 5064SOL     OW15769   4.044   0.520   8.216 -0.3005  0.3851 -0.1245
 5064SOL    HW115770   4.012   0.468   8.141  1.7248  1.3675 -1.7745
 5064SOL    HW215771   3.986   0.596   8.219 -0.4104  0.3304 -0.7003
 5065SOL     OW15772   6.600   5.351   1.386  0.3151  0.0965 -0.3058
 5065SOL    HW115773   6.504   5.350   1.393  0.1274  0.4354 -2.2554
 5065SOL    HW215774   6.617   5.327   1.295  2.0536  1.1107 -0.2720
 5066SOL     OW15775   9.064   5.702   8.621 -0.4729  0.0984 -0.2048
 5066SOL    HW115776   9.141   5.744   8.583  0.4188  0.2044  1.6095
 5066SOL    HW215777   9.011   5.775   8.655 -0.3157 -0.0928  0.4506
 5067SOL     OW15778   8.380   4.730   5.765  0.4065  0.2393 -0.5092
 5067SOL    HW115779   8.285   4.737   5.768  0.4534  3.1078 -2.2510
 5067SOL    HW215780   8.398   4.671   5.692  0.0848 -2.8362  1.6805
 5068SOL     OW15781   4.057   7.103   5.521  0.5651  0.2741 -0.3942
 5068SOL    HW115782   3.989   7.168   5.539  1.8643  1.2778  1.2676
 5068SOL    HW215783   4.108   7.099   5.602  2.6976 -0.1644 -1.6718
 5069SOL     OW15784   9.159   7.857   5.327  0.4666  0.2068 -0.2041
 5069SOL    HW115785   9.073   7.839   5.364  1.3820 -1.3727  1.3625
 5069SOL    HW215786   9.180   7.946   5.356  0.5465 -0.4577  2.0150
 5070SOL     OW15787   4.729   6.339   9.690  0.2347  0.1894 -0.8345
 5070SOL    HW115788   4.799   6.400   9.664  1.7097 -1.7345 -1.6186
 5070SOL    HW215789   4.773   6.274   9.744 -0.9731 -1.0260 -1.2716
 5071SOL     OW15790   8.804   0.694   5.229 -0.7465 -0.2764 -0.0041
 5071SOL    HW115791   8.743   0.745   5.281  1.0625  0.3684  1.6064
 5071SOL    HW215792   8.860   0.759   5.186  0.1573 -0.8355  0.2780
 5072SOL     OW15793   0.896   9.416   4.386  0.5642 -0.2178  0.4329
 5072SOL    HW115794   0.809   9.400   4.422  0.1384  0.5779 -0.1818
 5072SOL    HW215795   0.934   9.329   4.375 -0.3799 -0.6190  0.1906
 5073SOL     OW15796   5.030   8.569   8.914 -0.3917 -0.1391  0.2096
 5073SOL    HW115797   5.110   8.570   8.862 -0.5054  0.8114  0.0435
 5073SOL    HW215798   5.050   8.510   8.987  0.2909 -0.2776 -0.0810
 5074SOL     OW15799   6.887   9.512   1.330 -0.2980  0.0244  0.0139
 5074SOL    HW115800   6.954   9.559   1.380 -1.0377 -0.1555  1.2082
 5074SOL    HW215801   6.852   9.448   1.391 -3.5195  1.9262  0.4109
 5075SOL     OW15802   9.005   7.200   2.259 -0.3135  0.1377 -0.0990
 5075SOL    HW115803   9.062   7.249   2.200 -0.7453  0.4457 -0.2551
 5075SOL    HW215804   8.972   7.264   2.321  1.0491 -0.3653  1.2218
 5076SOL     OW15805   1.404   4.459   1.702  0.8957  0.2274 -0.2713
 5076SOL    HW115806   1.374   4.486   1.616  0.4704 -0.9189 -0.4953
 5076SOL    HW215807   1.356   4.516   1.763 -1.2835 -1.0925 -0.6516
 5077SOL     OW15808   1.890   9.508   1.107 -0.6140  0.6628 -0.1394
 5077SOL    HW115809   1.885   9.452   1.184 -0.1752  1.0897  0.2073
 5077SOL    HW215810   1.801   9.537   1.092 -1.1623 -1.3402 -1.2567
 5078SOL     OW15811   2.792   6.042   2.064  0.1842 -0.7700  0.1590
 5078SOL    HW115812   2.833   6.005   1.985 -0.2714 -1.0630  0.0560
 5078SOL    HW215813   2.862   6.042   2.129  0.7469  0.0829 -0.4336
 5079SOL     OW15814   3.580   9.903   2.524  0.2461 -0.0771  0.3574
 5079SOL    HW115815   3.549   9.843   2.455  0.1971  0.2632  0.0804
 5079SOL    HW215816   3.659   9.861   2.558  0.2556 -0.2652  0.1127
 5080SOL     OW15817   7.435   0.471   2.418 -0.6809  0.1416 -0.0752
 5080SOL    HW115818   7.348   0.455   2.453 -0.2940 -1.3483  0.2710
 5080SOL    HW215819   7.419   0.519   2.336 -1.8926 -1.0703 -0.5858
 5081SOL     OW15820   6.538   5.043   1.206  0.5042  0.3093  0.3380
 5081SOL    HW115821   6.621   5.091   1.201 -0.4173  2.0317  0.7725
 5081SOL    HW215822   6.471   5.111   1.196 -0.8640 -1.0122  0.2632
 5082SOL     OW15823   8.723   8.104   6.163  0.4415 -0.1675  0.2030
 5082SOL    HW115824   8.686   8.101   6.075  0.2973 -0.8210  0.2876
 5082SOL    HW215825   8.655   8.146   6.216  0.8550  1.0079 -0.1501
 5083SOL     OW15826   4.457   9.554   7.007 -0.7916 -0.3378  0.1410
 5083SOL    HW115827   4.531   9.587   6.955 -2.2766  1.5648 -0.9006
 5083SOL    HW215828   4.456   9.610   7.085 -1.8183  0.4485 -0.4216
 5084SOL     OW15829   6.863   7.733   1.134 -0.3689  0.6544  0.3213
 5084SOL    HW115830   6.900   7.704   1.050 -1.8307  0.3911 -0.2596
 5084SOL    HW215831   6.816   7.814   1.112  0.2185  1.2296  1.1324
 5085SOL     OW15832   6.701   1.393   0.249 -0.1396 -0.1140  0.0239
 5085SOL    HW115833   6.755   1.469   0.268 -0.3262  0.0466 -0.0854
 5085SOL    HW215834   6.719   1.373   0.158  1.5480 -1.5164  0.6194
 5086SOL     OW15835   8.957   1.780   6.959  0.1837  0.0046  0.5663
 5086SOL    HW115836   8.938   1.854   7.015  0.6396 -0.3366  1.1916
 5086SOL    HW215837   8.874   1.733   6.951 -0.4138  1.2424 -0.8617
 5087SOL     OW15838   9.924   1.098   0.869 -0.5865  0.0270 -0.6399
 5087SOL    HW115839   9.857   1.093   0.937  0.8426 -2.9209  0.6994
 5087SOL    HW215840   9.884   1.055   0.793 -0.8507 -0.0860 -0.4396
 5088SOL     OW15841   2.126   1.749   4.330 -0.2126 -0.1308 -0.0396
 5088SOL    HW115842   2.176   1.670   4.311  0.7396  0.2267  0.8682
 5088SOL    HW215843   2.193   1.817   4.343 -0.9467  0.4566  0.7878
 5089SOL     OW15844   4.905   2.224   9.232 -0.2232  0.2776 -0.3678
 5089SOL    HW115845   4.827   2.239   9.285 -0.7286 -0.7031 -0.7897
 5089SOL    HW215846   4.924   2.131   9.244  1.1283  0.5879  0.0311
 5090SOL     OW15847   6.511   9.719   7.897  0.0255 -0.0993 -0.4216
 5090SOL    HW115848   6.493   9.674   7.980  1.7444  0.8020  0.5014
 5090SOL    HW215849   6.596   9.686   7.870 -0.6811 -0.6479 -2.0654
 5091SOL     OW15850   7.323   1.596   9.866 -1.1868  0.0452  0.3300
 5091SOL    HW115851   7.272   1.518   9.845 -0.2496 -0.7793  0.9769
 5091SOL    HW215852   7.400   1.590   9.809 -1.3940  0.8178 -0.0380
 5092SOL     OW15853   3.775   6.900   3.060  0.0752  0.2476  0.3401
 5092SOL    HW115854   3.852   6.918   3.113  0.7352  0.5637 -0.6975
 5092SOL    HW215855   3.810   6.860   2.980 -0.8157  0.5984 -0.2360
 5093SOL     OW15856   9.656   6.339   7.580  0.5061  0.1334 -0.8302
 5093SOL    HW115857   9.630   6.273   7.516  2.5649 -1.8439  0.2500
 5093SOL    HW215858   9.582   6.343   7.641  0.0868 -0.6869 -1.2693
 5094SOL     OW15859   9.267   6.792   2.739 -0.3679 -0.1194  0.5135
 5094SOL    HW115860   9.246   6.792   2.832  0.1252 -1.6082  0.6584
 5094SOL    HW215861   9.258   6.700   2.712  0.9535  0.0232 -0.5445
 5095SOL     OW15862   3.040   2.641   4.433 -0.1902  0.5555 -0.1426
 5095SOL    HW115863   2.944   2.648   4.438 -0.1604  1.7170 -0.7329
 5095SOL    HW215864   3.069   2.731   4.417  1.1307  0.5282  1.7660
 5096SOL     OW15865   8.165   2.668   8.496 -0.7038  0.3840  0.5813
 5096SOL    HW115866   8.236   2.726   8.469  1.0049 -1.6712  0.4449
 5096SOL    HW215867   8.106   2.666   8.420  0.1989  0.4681 -0.1408
 5097SOL     OW15868   5.093   5.176   3.124 -0.0970  0.2648  0.0605
 5097SOL    HW115869   5.077   5.112   3.193 -0.4672 -0.1132 -0.3672
 5097SOL    HW215870   5.086   5.261   3.168 -0.2322  0.0257  0.5074
 5098SOL     OW15871   0.508   5.546   8.727 -0.1944 -0.0716  0.1725
 5098SOL    HW115872   0.447   5.580   8.661  0.9151 -1.3000 -1.5210
 5098SOL    HW215873   0.580   5.509   8.678  1.1521 -0.1798  2.1149
 5099SOL     OW15874   9.820   6.643   8.749  0.1090  0.4363  0.1457
 5099SOL    HW115875   9.910   6.637   8.781 -0.2252 -0.1395  1.0370
 5099SOL    HW215876   9.777   6.704   8.809 -0.5506 -0.7345  0.9335
 5100SOL     OW15877   4.523   1.530   9.013  0.0482  0.2062 -0.1098
 5100SOL    HW115878   4.574   1.469   8.958 -0.1427  0.9322 -1.1159
 5100SOL    HW215879   4.503   1.603   8.955  1.2979  1.8299  1.3949
 5101SOL     OW15880   8.433   5.138   0.225 -0.3186 -0.1682  0.7049
 5101SOL    HW115881   8.352   5.163   0.182 -0.4209  0.1124  1.0502
 5101SOL    HW215882   8.449   5.208   0.289  0.0534 -0.3538  0.8201
 5102SOL     OW15883   2.861   9.785   5.536 -0.3216  0.1355 -0.0337
 5102SOL    HW115884   2.921   9.726   5.491 -0.9481 -0.4089 -0.1772
 5102SOL    HW215885   2.791   9.727   5.568 -1.1459  0.8563 -0.5071
 5103SOL     OW15886   1.519   4.343   2.957  0.7536 -0.3823  0.2219
 5103SOL    HW115887   1.597   4.322   3.009  0.7885  0.5580  0.5756
 5103SOL    HW215888   1.477   4.258   2.942  1.8789 -0.9130 -0.0461
 5104SOL     OW15889   3.970   5.290   5.847 -0.8378  0.4632  0.8240
 5104SOL    HW115890   3.897   5.315   5.903 -1.7219 -1.4486  0.5720
 5104SOL    HW215891   3.931   5.267   5.763  0.3553  2.0703 -0.2440
 5105SOL     OW15892   7.349   8.859   6.106 -0.0139  0.4020  0.5021
 5105SOL    HW115893   7.367   8.897   6.192 -0.8674  1.6856  0.1562
 5105SOL    HW215894   7.289   8.922   6.065  0.7916  0.1004 -1.2384
 5106SOL     OW15895   5.751   4.001   0.087  0.1212 -0.5866 -0.5423
 5106SOL    HW115896   5.798   4.084   0.091 -1.6050  0.4084  1.1220
 5106SOL    HW215897   5.811   3.937   0.125  0.6214  0.3726  0.3378
 5107SOL     OW15898   3.137   6.308   9.826 -0.0608 -0.0237  0.1721
 5107SOL    HW115899   3.159   6.263   9.745 -2.9079 -0.9962 -0.1739
 5107SOL    HW215900   3.165   6.398   9.812 -0.7935 -0.0872 -2.0564
 5108SOL     OW15901   4.682   4.122   5.798 -0.0559 -0.4707 -0.3044
 5108SOL    HW115902   4.752   4.176   5.761 -1.3620  0.6693 -1.2264
 5108SOL    HW215903   4.669   4.157   5.886  0.6464 -0.8120 -0.0603
 5109SOL     OW15904   4.459   8.955   4.417  0.0413 -0.1368  0.1809
 5109SOL    HW115905   4.376   8.927   4.379 -1.5786  1.3288  2.3980
 5109SOL    HW215906   4.471   9.044   4.386  0.8659 -0.3589 -0.1815
 5110SOL     OW15907   7.276   8.786   7.306 -0.1255 -0.6582  0.5823
 5110SOL    HW115908   7.357   8.752   7.343  0.3754 -1.8792 -1.4889
 5110SOL    HW215909   7.213   8.715   7.317 -1.1973  0.5228  2.7925
 5111SOL     OW15910   3.186   7.656   1.506  0.1016  0.0147  0.7755
 5111SOL    HW115911   3.179   7.710   1.586  0.3368  0.4750  0.4897
 5111SOL    HW215912   3.167   7.717   1.435  0.4818 -0.2616  0.4377
 5112SOL     OW15913   6.232   4.910   3.875  0.4940  0.1801 -0.2963
 5112SOL    HW115914   6.178   4.860   3.813 -0.4456 -1.2565  1.5621
 5112SOL    HW215915   6.319   4.872   3.867  0.2010 -0.5226 -0.2111
 5113SOL     OW15916   1.626   5.615   6.451 -0.0530 -0.0811  0.1130
 5113SOL    HW115917   1.686   5.610   6.377  0.5743  2.1603  0.3691
 5113SOL    HW215918   1.542   5.588   6.416 -0.0195  1.9800 -1.7932
 5114SOL     OW15919   7.000   8.426   6.516  0.1792 -0.2287 -0.0075
 5114SOL    HW115920   7.093   8.433   6.540  0.1100 -0.3498  0.3025
 5114SOL    HW215921   6.987   8.494   6.450  0.4291 -0.0382  0.1373
 5115SOL     OW15922   3.856   2.707   9.905 -0.3690  0.2586  0.1727
 5115SOL    HW115923   3.882   2.726   9.815  2.2329 -1.0997  0.5334
 5115SOL    HW215924   3.797   2.633   9.898  0.1976 -0.1462 -0.4167
 5116SOL     OW15925   2.423   7.136   0.194 -0.1611 -0.7087  0.2341
 5116SOL    HW115926   2.405   7.076   0.122 -0.0829 -1.2442  0.6547
 5116SOL    HW215927   2.384   7.094   0.271 -0.5236  0.0070  0.4535
 5117SOL     OW15928   4.161   0.415   6.305 -0.1464  0.8727 -0.3559
 5117SOL    HW115929   4.070   0.386   6.300  0.6254 -2.6148  2.2875
 5117SOL    HW215930   4.206   0.365   6.237  0.1395  0.9135 -0.1984
 5118SOL     OW15931   9.199   2.274   0.765 -0.3070 -0.5452 -0.3561
 5118SOL    HW115932   9.282   2.246   0.727 -0.3488 -0.3192 -0.6132
 5118SOL    HW215933   9.136   2.205   0.740  0.0784 -1.4273  0.9757
 5119SOL     OW15934   3.282   7.480   9.108  0.0846  0.0574 -0.3164
 5119SOL    HW115935   3.314   7.524   9.030  0.6121  0.5020  0.1408
 5119SOL    HW215936   3.298   7.542   9.179  0.3877 -0.6740  0.2640
 5120SOL     OW15937   1.856   0.134   0.847 -0.3863 -0.1316 -0.3482
 5120SOL    HW115938   1.912   0.064   0.881 -0.2065  0.5847  0.8570
 5120SOL    HW215939   1.847   0.113   0.754 -0.3093 -1.7398 -0.0267
 5121SOL     OW15940   5.522   1.735   4.168 -0.2092  0.5437 -0.1469
 5121SOL    HW115941   5.559   1.668   4.227 -0.9632  1.7048  1.7450
 5121SOL    HW215942   5.476   1.685   4.101  1.0251 -0.8477 -0.0283
 5122SOL     OW15943   4.242   2.685   7.812  0.2345  0.0232  0.2922
 5122SOL    HW115944   4.306   2.750   7.784 -1.2898  0.8281 -1.5878
 5122SOL    HW215945   4.292   2.605   7.823  1.9722  1.2054  1.5189
 5123SOL     OW15946   6.848   9.733   1.648  0.1721  0.0136  0.3574
 5123SOL    HW115947   6.918   9.708   1.588  1.4068  1.3478  1.1678
 5123SOL    HW215948   6.842   9.661   1.710  0.9367 -0.0635  0.3466
 5124SOL     OW15949   5.706   8.140   6.234 -0.4489 -0.0154  0.1679
 5124SOL    HW115950   5.666   8.063   6.275 -2.0472  0.6204 -0.1250
 5124SOL    HW215951   5.697   8.125   6.140  1.3145 -0.5019  0.0478
 5125SOL     OW15952   1.133   1.440   2.207  0.1034  0.3012 -0.2378
 5125SOL    HW115953   1.038   1.429   2.204  0.0967 -0.5832  1.6843
 5125SOL    HW215954   1.159   1.451   2.116 -1.6191 -1.4344 -1.0113
 5126SOL     OW15955   5.452   3.365   6.374 -0.3434 -0.6090 -0.3076
 5126SOL    HW115956   5.499   3.282   6.383 -1.7254 -1.4383 -0.3779
 5126SOL    HW215957   5.443   3.377   6.279 -0.4171 -0.5425 -0.2918
 5127SOL     OW15958   9.459   7.992   3.162 -0.3553 -0.1426  0.0579
 5127SOL    HW115959   9.447   7.974   3.068 -0.5144 -0.7488  0.1866
 5127SOL    HW215960   9.542   7.949   3.183  0.1743  0.8339 -0.0158
 5128SOL     OW15961   5.464   1.080   0.551  0.0972  0.4964  0.7135
 5128SOL    HW115962   5.407   1.148   0.515 -1.1519 -0.4015  0.9428
 5128SOL    HW215963   5.465   1.012   0.483  1.5953  0.8502  0.3445
 5129SOL     OW15964   2.567   1.372   5.633 -0.8731 -0.1288  0.0520
 5129SOL    HW115965   2.559   1.302   5.568  1.0579 -0.0963 -0.2534
 5129SOL    HW215966   2.530   1.449   5.591 -0.1864 -0.2504 -0.7770
 5130SOL     OW15967   7.536   5.845   5.608 -0.4094  0.4708 -0.0677
 5130SOL    HW115968   7.626   5.822   5.633 -0.6696  0.2728  0.6932
 5130SOL    HW215969   7.527   5.812   5.519 -0.3982 -1.3583  0.5800
 5131SOL     OW15970   3.144   8.281   2.560 -1.0084  0.1416  0.3027
 5131SOL    HW115971   3.194   8.342   2.614  1.2850 -1.8471  0.5899
 5131SOL    HW215972   3.106   8.336   2.491  1.3377  1.8955  0.2629
 5132SOL     OW15973   4.368   8.268   2.960  0.7732 -0.2594 -0.5692
 5132SOL    HW115974   4.384   8.305   3.047 -1.2359 -2.9349  1.1178
 5132SOL    HW215975   4.278   8.293   2.939  1.4500  0.9245 -2.2612
 5133SOL     OW15976   1.801   9.104   2.658  0.8049 -0.6492 -0.2011
 5133SOL    HW115977   1.884   9.125   2.616  0.9134  0.4205  0.5211
 5133SOL    HW215978   1.825   9.058   2.738  0.6901 -0.5175 -0.0915
 5134SOL     OW15979   4.167   9.108   5.810 -0.3383  0.2035  0.4424
 5134SOL    HW115980   4.205   9.089   5.725 -1.5537  0.5535 -0.2045
 5134SOL    HW215981   4.097   9.044   5.821 -1.7314  1.5912  0.0929
 5135SOL     OW15982   1.461   0.443   4.446  0.5913 -0.3921  0.2572
 5135SOL    HW115983   1.408   0.455   4.368  0.3926  1.0469  0.5926
 5135SOL    HW215984   1.440   0.354   4.476 -1.2625 -0.0394  0.1105
 5136SOL     OW15985   0.217   1.995   9.612 -0.0529 -0.2152 -0.4417
 5136SOL    HW115986   0.247   1.937   9.683 -1.7534 -1.7270 -0.8889
 5136SOL    HW215987   0.187   2.074   9.657 -0.5370 -0.9113  0.4942
 5137SOL     OW15988   3.369   2.774   0.396 -1.0103  0.3002  0.0754
 5137SOL    HW115989   3.434   2.836   0.362 -0.1009 -0.3273  0.6228
 5137SOL    HW215990   3.343   2.811   0.481  0.1526 -0.4594  0.7894
 5138SOL     OW15991   5.946   0.302   4.765  0.4788 -0.3026 -0.1459
 5138SOL    HW115992   5.889   0.378   4.781 -0.4911 -1.0630  0.1247
 5138SOL    HW215993   5.949   0.295   4.670  2.0831  1.1527 -0.2610
 5139SOL     OW15994   2.410   9.344   1.810 -0.1657 -0.3000 -0.4740
 5139SOL    HW115995   2.421   9.384   1.896  0.5175  1.2478 -1.2335
 5139SOL    HW215996   2.499   9.318   1.783 -0.3280 -0.4997 -0.8316
 5140SOL     OW15997   6.067   9.028   1.173  0.3783  0.0623 -0.2567
 5140SOL    HW115998   6.149   8.981   1.190  1.4276  1.7144 -0.5159
 5140SOL    HW215999   6.004   8.989   1.234  1.0144 -2.0300 -0.8405
 5141SOL     OW16000   5.020   5.943   5.037 -0.2150  0.2728  0.0779
 5141SOL    HW116001   5.112   5.918   5.039 -0.4157 -0.5843 -0.8278
 5141SOL    HW216002   4.988   5.912   4.952 -1.0175  1.7539 -0.1927
 5142SOL     OW16003   5.424   2.877   7.417  0.8095  0.5879 -0.1488
 5142SOL    HW116004   5.457   2.903   7.331  0.4479  0.3171 -0.3757
 5142SOL    HW216005   5.502   2.874   7.473  1.1421  0.1538 -0.6244
 5143SOL     OW16006   4.065   5.950   5.634 -0.3545 -0.2442  0.3510
 5143SOL    HW116007   4.000   5.980   5.570  0.1007  3.1209  1.2365
 5143SOL    HW216008   4.149   5.967   5.593 -0.0540 -0.6481  0.7928
 5144SOL     OW16009   8.355   6.113   9.100 -0.4816  0.6224  0.2364
 5144SOL    HW116010   8.439   6.157   9.116 -0.1295  0.2900 -0.6724
 5144SOL    HW216011   8.309   6.171   9.040 -1.8316  1.8989  2.3530
 5145SOL     OW16012   2.470   7.132   6.497  0.1743 -0.3029 -0.2299
 5145SOL    HW116013   2.448   7.068   6.429 -0.0253 -0.2002 -0.2620
 5145SOL    HW216014   2.551   7.098   6.536 -1.4642 -2.2436  1.7881
 5146SOL     OW16015   0.609   8.780   9.819 -0.7623 -0.0780 -0.7462
 5146SOL    HW116016   0.603   8.759   9.726  2.2183 -0.6539 -0.9330
 5146SOL    HW216017   0.689   8.833   9.826  0.3935 -1.9170  1.6901
 5147SOL     OW16018   5.775   0.628   9.283  0.3517  0.0514  0.5920
 5147SOL    HW116019   5.832   0.665   9.216  0.3637  1.0649  1.1453
 5147SOL    HW216020   5.834   0.577   9.339  0.4343 -0.2867  0.2087
 5148SOL     OW16021   9.513   7.547   6.266  0.0584 -0.2486 -0.0676
 5148SOL    HW116022   9.469   7.474   6.309 -2.5001  1.5063  0.5378
 5148SOL    HW216023   9.524   7.518   6.175 -0.3493 -1.5920  0.2839
 5149SOL     OW16024   6.932   1.628   8.052 -0.2327 -0.1809 -0.0060
 5149SOL    HW116025   6.866   1.662   7.992 -1.6008 -2.1653  0.2952
 5149SOL    HW216026   6.956   1.543   8.016 -1.0493 -1.4111  2.1579
 5150SOL     OW16027   9.453   2.602   0.892 -0.2265  0.6176  0.9528
 5150SOL    HW116028   9.368   2.592   0.850  0.5046 -1.1662 -0.2211
 5150SOL    HW216029   9.497   2.671   0.842 -0.5634  0.7589  0.8510
 5151SOL     OW16030   7.476   1.730   0.556 -0.1168 -0.3781  0.0423
 5151SOL    HW116031   7.515   1.678   0.626  0.9858  1.2917  0.7327
 5151SOL    HW216032   7.522   1.702   0.477  1.4265  0.3867  0.6041
 5152SOL     OW16033   3.789   2.905   1.333 -0.1166 -0.0974  0.2495
 5152SOL    HW116034   3.743   2.980   1.370 -0.7045 -0.4150  0.1652
 5152SOL    HW216035   3.835   2.940   1.257  0.7569  0.4724  1.0208
 5153SOL     OW16036   3.561   1.501   6.646  0.0014 -0.5176 -0.1697
 5153SOL    HW116037   3.550   1.472   6.555  0.9415 -1.6060  0.0374
 5153SOL    HW216038   3.531   1.427   6.699  1.6164 -0.8252  0.3782
 5154SOL     OW16039   0.542   5.618   4.757 -0.0137 -0.5172 -0.2417
 5154SOL    HW116040   0.609   5.575   4.705  0.5442 -0.9328  0.7859
 5154SOL    HW216041   0.508   5.687   4.700  0.5222 -0.9981 -1.1655
 5155SOL     OW16042   2.044   1.182   6.843  0.8063  0.1598  0.0483
 5155SOL    HW116043   2.108   1.135   6.895  0.1915 -0.6589  0.0901
 5155SOL    HW216044   2.001   1.241   6.905  1.0357  0.2109  0.1617
 5156SOL     OW16045   0.024   6.438   2.693  0.7307 -0.0535 -0.1623
 5156SOL    HW116046   0.084   6.512   2.694 -0.3040  0.8236 -0.2664
 5156SOL    HW216047   0.011   6.416   2.785 -0.1415  0.9209 -0.0293
 5157SOL     OW16048   2.127   1.695   5.914  0.1242  0.2383 -0.0565
 5157SOL    HW116049   2.220   1.715   5.920  0.4706 -0.1456 -2.8552
 5157SOL    HW216050   2.089   1.771   5.870 -0.8299  0.1898  0.6454
 5158SOL     OW16051   4.299   4.850   7.391 -0.2659  0.6133  0.4947
 5158SOL    HW116052   4.338   4.767   7.363  0.2768  1.0408 -0.0335
 5158SOL    HW216053   4.360   4.885   7.455  0.2705  1.3049 -0.3679
 5159SOL     OW16054   0.237   9.425   7.721  0.2279 -0.8723 -0.0583
 5159SOL    HW116055   0.265   9.425   7.629  1.7419 -1.1804  0.3593
 5159SOL    HW216056   0.225   9.332   7.742  0.3546 -0.8361  0.1770
 5160SOL     OW16057   9.829   9.353   8.550 -0.2644 -0.2519  0.5543
 5160SOL    HW116058   9.891   9.353   8.477 -0.7925 -0.7351  0.0984
 5160SOL    HW216059   9.836   9.265   8.587  0.4021  0.1548  1.4465
 5161SOL     OW16060   6.760   1.912   4.398 -0.1897  0.3567 -0.1480
 5161SOL    HW116061   6.838   1.959   4.428 -0.2047  0.9187 -0.9397
 5161SOL    HW216062   6.791   1.825   4.375 -0.0300  0.1870  0.7096
 5162SOL     OW16063   4.070   9.376   3.846 -0.1544  0.1653 -0.5723
 5162SOL    HW116064   4.004   9.432   3.804 -3.4938 -0.8519  2.7249
 5162SOL    HW216065   4.072   9.297   3.794  1.5674  1.6401 -2.9441
 5163SOL     OW16066   2.495   5.001   2.228 -0.4226 -0.4249  0.8458
 5163SOL    HW116067   2.522   4.921   2.274 -0.5025 -0.1318  1.4081
 5163SOL    HW216068   2.402   4.987   2.209  0.1504 -1.6203 -1.4754
 5164SOL     OW16069   9.665   2.644   8.645 -0.2522 -0.0312  0.0732
 5164SOL    HW116070   9.573   2.641   8.671 -0.3096 -0.4239 -0.1547
 5164SOL    HW216071   9.669   2.707   8.574 -0.7874 -1.7128 -1.5389
 5165SOL     OW16072   7.780   0.096   4.599 -0.3708 -0.3769 -0.4087
 5165SOL    HW116073   7.871   0.123   4.584 -0.5923 -0.5693 -2.2096
 5165SOL    HW216074   7.729   0.149   4.538 -1.4117 -0.8417  0.0366
 5166SOL     OW16075   1.740   4.693   0.253  0.0797 -0.5307 -0.2601
 5166SOL    HW116076   1.708   4.668   0.167  1.5895  0.4109 -1.1289
 5166SOL    HW216077   1.795   4.619   0.281 -1.0117 -1.1698  0.2603
 5167SOL     OW16078   4.086   6.332   6.381  0.5845 -0.5034  0.9101
 5167SOL    HW116079   4.087   6.304   6.289  3.6401  1.9180 -0.0205
 5167SOL    HW216080   4.078   6.251   6.431 -1.9454 -1.8613 -1.4143
 5168SOL     OW16081   4.636   8.568   4.839  0.1329  0.1129 -0.4726
 5168SOL    HW116082   4.697   8.613   4.781 -0.2761  1.5753  0.1874
 5168SOL    HW216083   4.625   8.481   4.800  3.0632 -0.4258 -0.2820
 5169SOL     OW16084   0.610   1.294   8.010  0.2457  0.2241  0.2409
 5169SOL    HW116085   0.685   1.345   8.041 -0.0077  0.6138  0.2243
 5169SOL    HW216086   0.539   1.317   8.070  0.4699 -1.1179  1.0344
 5170SOL     OW16087   3.229   6.465   2.207 -0.3647 -0.3400 -0.5827
 5170SOL    HW116088   3.270   6.380   2.188 -0.6192 -0.5962  0.0031
 5170SOL    HW216089   3.298   6.516   2.248 -0.1640 -0.2000 -1.0783
 5171SOL     OW16090   7.267   6.900   5.591  0.2569 -0.3254  0.0436
 5171SOL    HW116091   7.294   6.834   5.654  0.3248  0.2490  0.6262
 5171SOL    HW216092   7.224   6.968   5.643  0.0885  0.0386 -0.5549
 5172SOL     OW16093   4.098   2.531   3.563  0.1160  0.3296  0.1966
 5172SOL    HW116094   4.108   2.489   3.649  0.4427 -1.0074 -0.4609
 5172SOL    HW216095   4.187   2.555   3.538  0.3399 -1.2056 -0.6539
 5173SOL     OW16096   3.178   6.249   1.824 -0.3699 -0.1937 -0.2070
 5173SOL    HW116097   3.247   6.190   1.855 -0.3789 -0.1563 -0.1139
 5173SOL    HW216098   3.204   6.335   1.856  0.2634  0.0563 -1.3611
 5174SOL     OW16099   6.170   8.905   7.452  0.1080  0.0275 -0.1452
 5174SOL    HW116100   6.186   8.816   7.484 -0.7992 -0.1646 -0.1856
 5174SOL    HW216101   6.222   8.911   7.371 -1.2802 -1.1577 -1.1871
 5175SOL     OW16102   9.282   1.304   8.029 -0.0654 -0.3189 -0.0730
 5175SOL    HW116103   9.357   1.253   8.061 -0.3490 -0.1215  0.9101
 5175SOL    HW216104   9.241   1.247   7.963 -0.2295 -1.2694  0.8310
 5176SOL     OW16105   7.166   8.814   9.478 -0.6125  0.2198  0.8980
 5176SOL    HW116106   7.129   8.726   9.477  1.2511 -0.5893 -0.0572
 5176SOL    HW216107   7.114   8.862   9.413 -0.1478 -0.8316 -0.2835
 5177SOL     OW16108   5.327   2.093   6.948  0.1315  0.1763  0.0300
 5177SOL    HW116109   5.265   2.051   7.008  0.4797  0.0972  0.3412
 5177SOL    HW216110   5.332   2.032   6.873 -0.8583  0.6328 -0.4245
 5178SOL     OW16111   7.283   3.482   2.549 -0.3082  0.0425  0.3221
 5178SOL    HW116112   7.198   3.473   2.593 -1.2414  0.8285 -1.2285
 5178SOL    HW216113   7.306   3.574   2.561 -0.6043  0.2818 -0.8455
 5179SOL     OW16114   4.097   0.522   0.642  0.5088 -0.4305  0.6464
 5179SOL    HW116115   4.025   0.462   0.622  0.9845 -0.5130 -0.9457
 5179SOL    HW216116   4.158   0.470   0.694 -0.5758 -0.3422  2.0769
 5180SOL     OW16117   4.886   3.445   6.762  0.0312 -0.2920  0.5622
 5180SOL    HW116118   4.868   3.538   6.748 -0.0264 -0.2767  0.7243
 5180SOL    HW216119   4.813   3.400   6.720  0.5418 -0.3037 -0.3269
 5181SOL     OW16120   2.537   5.840   6.359  0.1523  0.1308 -0.3218
 5181SOL    HW116121   2.443   5.834   6.374  0.0446  0.5413 -0.8229
 5181SOL    HW216122   2.560   5.928   6.389  0.5800 -0.3496  0.8449
 5182SOL     OW16123   1.280   7.180   6.429 -0.1475  0.1534  0.1242
 5182SOL    HW116124   1.319   7.097   6.404 -0.9846 -0.9018  2.0862
 5182SOL    HW216125   1.217   7.157   6.498  0.8301  2.5686  1.9771
 5183SOL     OW16126   4.357   9.495   6.473 -0.2043  0.0367  0.7797
 5183SOL    HW116127   4.349   9.475   6.566  0.4294  0.3793  0.9201
 5183SOL    HW216128   4.452   9.498   6.457 -0.3029 -0.6500 -0.0185
 5184SOL     OW16129   8.825   8.789   6.038  0.6459  0.3338  0.4444
 5184SOL    HW116130   8.780   8.752   6.114  0.1208 -0.1352 -0.0899
 5184SOL    HW216131   8.798   8.734   5.965 -0.6570  2.1017 -0.4853
 5185SOL     OW16132   8.429   2.108   0.924  0.0682 -0.6056 -0.2544
 5185SOL    HW116133   8.373   2.066   0.860  1.0975 -0.9703 -0.9394
 5185SOL    HW216134   8.369   2.137   0.994 -1.2056  0.6329 -1.7778
 5186SOL     OW16135   3.453   4.788   2.869 -0.5623 -0.0237  0.3524
 5186SOL    HW116136   3.441   4.719   2.934 -2.2396 -1.5082 -1.4113
 5186SOL    HW216137   3.545   4.779   2.842 -0.7165 -1.5818  0.2106
 5187SOL     OW16138   9.515   2.211   8.043  0.1884  0.1916  0.3190
 5187SOL    HW116139   9.464   2.169   8.113  0.9906 -0.3650  0.5783
 5187SOL    HW216140   9.480   2.173   7.962 -2.3014  2.4635  0.1913
 5188SOL     OW16141   2.061   3.582   7.974  0.1426  0.3437 -0.5771
 5188SOL    HW116142   2.020   3.572   8.060  3.1650  0.9669  1.0833
 5188SOL    HW216143   2.131   3.518   7.974  0.8280  1.0491 -2.1929
 5189SOL     OW16144   0.771   8.441   9.933  0.3034  0.3131  0.3741
 5189SOL    HW116145   0.695   8.494   9.956  1.0031  1.4067  0.2049
 5189SOL    HW216146   0.815   8.425  10.017  0.6534  0.8897  0.3070
 5190SOL     OW16147   7.265   6.905   9.761 -0.1399  0.1617 -0.0554
 5190SOL    HW116148   7.287   6.814   9.745 -0.3083  0.4426 -2.0909
 5190SOL    HW216149   7.344   6.954   9.738 -0.5154  0.6278 -0.3746
 5191SOL     OW16150   1.685   0.415   8.294 -1.0149  0.0943 -0.1564
 5191SOL    HW116151   1.612   0.460   8.337  0.4119  0.6872  1.7982
 5191SOL    HW216152   1.761   0.434   8.349  0.5949 -0.7209 -1.9509
 5192SOL     OW16153   5.224   4.024   5.724  0.3448  0.8715 -0.3589
 5192SOL    HW116154   5.132   4.029   5.698  0.2384  2.0125  0.1559
 5192SOL    HW216155   5.270   3.997   5.645 -0.3869  0.6891 -0.7295
 5193SOL     OW16156   7.001   3.343   6.065  0.0938 -0.2932  0.5440
 5193SOL    HW116157   6.943   3.297   6.125 -0.3668  0.3001  0.5578
 5193SOL    HW216158   7.061   3.275   6.033 -0.4492 -0.8573  0.7111
 5194SOL     OW16159   0.812   7.976   2.126  0.5550  0.3322 -0.2855
 5194SOL    HW116160   0.848   7.913   2.188  0.4604 -0.1924 -0.7482
 5194SOL    HW216161   0.820   7.932   2.041 -0.3285  0.5828 -0.5086
 5195SOL     OW16162   0.350   8.757   7.308 -0.2842  0.1613 -0.2400
 5195SOL    HW116163   0.445   8.759   7.324 -0.1036  0.7367 -1.3233
 5195SOL    HW216164   0.325   8.666   7.325  0.8132 -0.4860 -1.8942
 5196SOL     OW16165   7.705   6.488   5.958 -0.3847 -0.5021  0.4034
 5196SOL    HW116166   7.754   6.509   6.037 -0.0851  0.5534 -0.0512
 5196SOL    HW216167   7.721   6.394   5.945  0.9872 -0.3270  0.6318
 5197SOL     OW16168   4.050   4.256   9.355  0.8435  0.0600  0.0954
 5197SOL    HW116169   4.065   4.321   9.424 -0.7539 -0.0141  0.5617
 5197SOL    HW216170   4.096   4.178   9.386 -0.6811 -0.2976  1.6452
 5198SOL     OW16171   9.015   2.124   6.824 -0.1618  0.0891 -0.3142
 5198SOL    HW116172   9.044   2.216   6.825 -1.7306  0.6153  0.3948
 5198SOL    HW216173   9.096   2.073   6.818  0.7852  1.4946  0.0216
 5199SOL     OW16174   7.132   2.864   8.091 -0.1868 -0.0430 -0.7714
 5199SOL    HW116175   7.224   2.887   8.089 -0.3802  0.7666 -0.3780
 5199SOL    HW216176   7.103   2.884   8.180 -0.3910 -1.7390 -0.4106
 5200SOL     OW16177   6.688   0.014   5.702 -0.2143  0.1070  0.8098
 5200SOL    HW116178   6.708   0.102   5.733 -0.3854  0.5916 -0.3648
 5200SOL    HW216179   6.709  -0.044   5.775  1.3030  0.9855  1.1014
 5201SOL     OW16180   8.072   1.210   6.494 -0.2229 -0.2962  0.1394
 5201SOL    HW116181   8.054   1.282   6.434  1.5376 -0.6644 -0.8794
 5201SOL    HW216182   7.993   1.156   6.490 -0.9611  0.7768 -0.2343
 5202SOL     OW16183   1.963   1.253   2.057 -0.4362  0.0637  0.4201
 5202SOL    HW116184   1.970   1.287   2.146  0.5273  0.5826  0.1545
 5202SOL    HW216185   2.010   1.170   2.060 -1.6820 -0.6654  0.7443
 5203SOL     OW16186   4.895   7.784   9.108 -0.4740  0.0535  0.0717
 5203SOL    HW116187   4.859   7.813   9.024 -2.2273  1.2751  1.1841
 5203SOL    HW216188   4.828   7.727   9.145  0.3147 -0.5337  0.6189
 5204SOL     OW16189   5.563   3.940   4.308 -0.4615 -0.1345 -0.2685
 5204SOL    HW116190   5.618   3.988   4.370 -0.3886  0.1080 -0.5129
 5204SOL    HW216191   5.626   3.895   4.251 -0.5349 -1.5434  0.7212
 5205SOL     OW16192   6.300   4.149   0.696  0.5130 -0.2781 -0.5187
 5205SOL    HW116193   6.354   4.140   0.617  1.7832 -0.7147  0.3526
 5205SOL    HW216194   6.326   4.233   0.733 -0.9352  0.4846 -1.1407
 5206SOL     OW16195   4.894   0.859   1.765  0.1519  0.1464 -0.1292
 5206SOL    HW116196   4.822   0.901   1.812  0.7288 -0.9337  1.8974
 5206SOL    HW216197   4.882   0.765   1.783 -0.8860 -0.6890 -4.1389
 5207SOL     OW16198   5.772   5.011   7.367 -0.5234  0.2997  0.2347
 5207SOL    HW116199   5.790   5.068   7.442  1.4783  0.4371 -0.3035
 5207SOL    HW216200   5.782   4.922   7.401 -1.4581  0.3056  0.5493
 5208SOL     OW16201   2.682   3.870   2.288  0.0070  0.1055  0.1365
 5208SOL    HW116202   2.670   3.963   2.271 -0.4601 -0.0336 -0.3074
 5208SOL    HW216203   2.598   3.841   2.324 -0.7256 -0.6591 -2.0211
 5209SOL     OW16204   9.294   6.386   6.146  0.4328 -0.0589  0.0196
 5209SOL    HW116205   9.221   6.448   6.142  0.4332 -0.0924 -0.4817
 5209SOL    HW216206   9.261   6.307   6.103  0.4838 -0.3584  0.5184
 5210SOL     OW16207   0.023   7.116   7.394  0.0859  0.9877  0.4453
 5210SOL    HW116208   0.065   7.033   7.369 -0.2690  0.4643  1.5375
 5210SOL    HW216209   0.028   7.170   7.315  0.5773  0.0286 -0.1976
 5211SOL     OW16210   2.186   9.251   4.663 -0.9167  0.7620  0.4035
 5211SOL    HW116211   2.128   9.227   4.736 -0.4339 -0.3319  0.4430
 5211SOL    HW216212   2.271   9.213   4.686 -0.4674  1.3989 -0.1851
 5212SOL     OW16213   8.552   0.906   3.695 -0.2028  0.0322 -0.2414
 5212SOL    HW116214   8.517   0.872   3.612  1.1389  0.9089 -1.1998
 5212SOL    HW216215   8.608   0.979   3.670  0.6343  0.0084  1.4057
 5213SOL     OW16216   5.187   7.971   1.730 -0.2936 -0.6111 -0.6602
 5213SOL    HW116217   5.280   7.981   1.747 -0.0472  0.7042 -2.5509
 5213SOL    HW216218   5.151   8.059   1.734 -1.5880 -1.1296  0.4223
 5214SOL     OW16219   2.792   7.634   9.050 -0.1867 -0.6283 -0.2372
 5214SOL    HW116220   2.885   7.632   9.072  0.1705 -0.9495 -1.6566
 5214SOL    HW216221   2.771   7.545   9.023 -1.2415 -0.8661  1.2309
 5215SOL     OW16222   5.866   5.147   7.107 -0.3453 -0.5501 -0.2154
 5215SOL    HW116223   5.829   5.114   7.026 -0.2557  0.3851 -0.6428
 5215SOL    HW216224   5.790   5.167   7.162 -0.4654  0.7156 -0.8314
 5216SOL     OW16225   5.304   7.400   3.969 -0.0085 -0.4944  0.0971
 5216SOL    HW116226   5.242   7.461   4.008 -1.5532 -0.3577 -2.3510
 5216SOL    HW216227   5.387   7.447   3.969 -0.7368  0.8365  0.0275
 5217SOL     OW16228   7.910   3.318   5.882  0.5769  0.4171  0.2464
 5217SOL    HW116229   7.926   3.354   5.969  2.9249 -1.1036  0.5369
 5217SOL    HW216230   7.887   3.227   5.898  1.3146  0.0432 -0.7108
 5218SOL     OW16231   6.473   3.430   1.763  0.2901 -0.2936 -0.1288
 5218SOL    HW116232   6.459   3.506   1.819  1.4120  1.0621 -1.6013
 5218SOL    HW216233   6.558   3.446   1.721 -0.4488 -1.2633 -2.1438
 5219SOL     OW16234   0.410   9.497   8.448  0.0245  0.0504  0.3469
 5219SOL    HW116235   0.489   9.456   8.484 -0.5276 -1.0490  0.3752
 5219SOL    HW216236   0.395   9.574   8.502  0.6848 -0.1188  0.7811
 5220SOL     OW16237   6.840   5.593   9.619 -0.0247 -0.0219  0.2476
 5220SOL    HW116238   6.884   5.641   9.548 -1.0636 -0.8348 -0.9951
 5220SOL    HW216239   6.881   5.507   9.619 -0.6362 -0.3179  0.0261
 5221SOL     OW16240   4.675   5.660   1.311 -0.3713  0.1420 -0.1822
 5221SOL    HW116241   4.703   5.571   1.332 -0.5949  0.5021  1.8228
 5221SOL    HW216242   4.735   5.716   1.361  0.4347  1.1986 -2.1986
 5222SOL     OW16243   0.668   4.353   6.570  0.1374  0.3014 -0.8786
 5222SOL    HW116244   0.695   4.284   6.631 -0.2313  0.3990 -0.5973
 5222SOL    HW216245   0.701   4.434   6.608  0.8036  0.2577 -1.3490
 5223SOL     OW16246   3.476   0.147   4.680 -0.5205  0.0702 -0.2261
 5223SOL    HW116247   3.487   0.106   4.594 -0.8604  0.9050 -0.6792
 5223SOL    HW216248   3.388   0.122   4.708 -0.9188  0.8726 -0.7253
 5224SOL     OW16249   4.184   4.017   5.793  0.3143 -0.5348 -0.9614
 5224SOL    HW116250   4.153   4.045   5.879 -0.5883  2.1054 -2.0437
 5224SOL    HW216251   4.116   4.046   5.732  0.7296 -2.6796 -2.5965
 5225SOL     OW16252   6.035   0.838   5.530 -0.7211  0.5388  0.2959
 5225SOL    HW116253   6.111   0.885   5.565 -0.6982 -0.3828  1.5732
 5225SOL    HW216254   5.972   0.907   5.507  0.2695  1.2856 -0.2422
 5226SOL     OW16255   1.357   8.475   1.932  0.0074  0.0234 -0.1106
 5226SOL    HW116256   1.408   8.395   1.920 -1.7702 -1.0499 -0.9641
 5226SOL    HW216257   1.374   8.527   1.853 -0.0876 -0.2614 -0.3199
 5227SOL     OW16258   0.115   3.761   1.056  0.5624  0.0444 -0.0848
 5227SOL    HW116259   0.165   3.696   1.007 -0.8797 -2.1409  1.1839
 5227SOL    HW216260   0.154   3.760   1.143 -0.3466 -0.1803  0.3335
 5228SOL     OW16261   6.553   8.431   3.389  0.7056 -0.3423  0.4936
 5228SOL    HW116262   6.620   8.481   3.436 -0.1643  0.0084  1.3780
 5228SOL    HW216263   6.492   8.403   3.456  0.8964 -2.2031 -0.0529
 5229SOL     OW16264   9.330   2.202   4.110 -0.5504 -0.1919 -0.4895
 5229SOL    HW116265   9.375   2.190   4.026  1.4517  0.3519  0.4378
 5229SOL    HW216266   9.326   2.114   4.147 -2.4016 -0.6123 -1.5519
 5230SOL     OW16267   9.836   3.244   5.345 -0.5246 -0.0874 -0.3860
 5230SOL    HW116268   9.767   3.250   5.411 -1.5005  0.9706 -1.4666
 5230SOL    HW216269   9.903   3.188   5.385 -0.5029  1.5066  1.9927
 5231SOL     OW16270   9.217   7.914   7.048  0.1035  0.1639 -0.3326
 5231SOL    HW116271   9.225   8.002   7.011  2.3417 -0.5044 -1.6237
 5231SOL    HW216272   9.129   7.886   7.021 -0.5781  1.8770 -0.0704
 5232SOL     OW16273   8.445   2.133   4.285  0.2334 -0.9475 -0.8059
 5232SOL    HW116274   8.456   2.203   4.349 -3.1484 -0.3643 -0.6874
 5232SOL    HW216275   8.535   2.105   4.265  1.5714  1.2466  1.4698
 5233SOL     OW16276   1.044   2.550   5.119 -0.2822 -0.0001 -0.4856
 5233SOL    HW116277   0.970   2.590   5.074 -0.8051 -0.6062 -0.1665
 5233SOL    HW216278   1.119   2.604   5.093 -0.8470  0.7037 -0.6988
 5234SOL     OW16279   7.556   0.499   5.571 -0.1598  0.4647  0.0349
 5234SOL    HW116280   7.601   0.523   5.489 -0.8450 -0.3577 -0.5963
 5234SOL    HW216281   7.481   0.447   5.543 -2.0079  2.4815  1.0042
 5235SOL     OW16282   5.207   8.056   6.901  0.0606  0.3401  0.3017
 5235SOL    HW116283   5.127   8.014   6.871 -0.3099  1.2140  0.0275
 5235SOL    HW216284   5.261   8.065   6.823  0.2739  0.0812  0.4189
 5236SOL     OW16285   6.204   2.781   0.545  0.1855  0.2127  0.4467
 5236SOL    HW116286   6.113   2.776   0.572  0.3132 -1.5094  0.6713
 5236SOL    HW216287   6.234   2.867   0.575 -0.9928  0.2724  1.5011
 5237SOL     OW16288   7.336   0.208   6.855  0.3186 -0.6677  0.0902
 5237SOL    HW116289   7.401   0.141   6.878  0.1246 -0.9685 -0.2420
 5237SOL    HW216290   7.252   0.163   6.860  0.2238 -0.5766 -0.5893
 5238SOL     OW16291   3.459   7.256   2.512 -0.0384 -0.0564  0.0518
 5238SOL    HW116292   3.522   7.201   2.558  0.3217  1.3436  1.3094
 5238SOL    HW216293   3.509   7.332   2.484 -1.0686  0.9043  0.7403
 5239SOL     OW16294   8.361   1.702   3.187  0.3305 -0.1497  0.3985
 5239SOL    HW116295   8.421   1.659   3.248 -0.9544 -1.3549  0.8673
 5239SOL    HW216296   8.358   1.643   3.112 -2.2640 -1.5840  1.4820
 5240SOL     OW16297   7.703   6.511   3.876 -0.0019  0.8164 -0.2062
 5240SOL    HW116298   7.673   6.588   3.827 -2.2321 -0.4009 -0.8375
 5240SOL    HW216299   7.778   6.544   3.926 -0.4172  3.2183 -1.0102
 5241SOL     OW16300   0.584   1.343   9.693 -0.1992 -0.2811  0.1650
 5241SOL    HW116301   0.622   1.398   9.761 -0.7302 -0.1468  0.3580
 5241SOL    HW216302   0.502   1.387   9.669  0.0218 -0.2852 -0.6179
 5242SOL     OW16303   0.267   4.256   1.885 -0.3620  0.2613 -0.1408
 5242SOL    HW116304   0.306   4.294   1.964  1.4606 -0.3846 -0.6900
 5242SOL    HW216305   0.246   4.166   1.910  0.2095  0.0590 -0.3875
 5243SOL     OW16306   5.805   2.051   1.321 -0.2736  0.3382  0.0218
 5243SOL    HW116307   5.866   2.095   1.262 -1.0754  2.3750  0.6079
 5243SOL    HW216308   5.719   2.067   1.283 -0.7085  0.7059  1.1112
 5244SOL     OW16309   2.104   3.902   6.173  0.0602  0.1627  0.7214
 5244SOL    HW116310   2.085   3.924   6.081 -0.0482  2.4621  1.2390
 5244SOL    HW216311   2.193   3.934   6.188  0.4731 -1.1172  1.1884
 5245SOL     OW16312   6.611   9.828   1.666  0.0221  0.1330 -0.0049
 5245SOL    HW116313   6.559   9.752   1.692  1.1105 -0.2869  1.0293
 5245SOL    HW216314   6.700   9.795   1.657  0.4495  1.2088  0.1010
 5246SOL     OW16315   2.232   5.077   3.593  0.4312  0.1489 -0.2823
 5246SOL    HW116316   2.205   5.099   3.503  0.6672  1.1230 -0.1256
 5246SOL    HW216317   2.295   5.006   3.582 -1.2785 -1.3576 -0.7316
 5247SOL     OW16318   0.915   1.588   4.556 -0.3494  0.0016 -0.3830
 5247SOL    HW116319   0.938   1.570   4.464  2.4172  0.6130  0.0955
 5247SOL    HW216320   0.992   1.633   4.591 -2.3535  2.1219  1.5911
 5248SOL     OW16321   2.214   7.495   9.685 -0.0046 -0.5715 -0.1708
 5248SOL    HW116322   2.148   7.456   9.742 -1.0585  0.3668 -0.7145
 5248SOL    HW216323   2.178   7.486   9.597 -0.0753  1.1700 -0.3534
 5249SOL     OW16324   3.724   3.915   3.800  0.0427 -0.7459  0.2679
 5249SOL    HW116325   3.736   3.872   3.715 -1.1152  0.3504 -0.4953
 5249SOL    HW216326   3.811   3.952   3.820  0.6596 -2.1229  0.2240
 5250SOL     OW16327   7.306   8.119   5.657 -0.3044  0.2973 -0.0264
 5250SOL    HW116328   7.393   8.137   5.691 -0.5418 -1.3779  1.6691
 5250SOL    HW216329   7.253   8.194   5.684  0.0767  0.1436  1.1963
 5251SOL     OW16330   7.108   7.103   2.229 -0.3072 -0.2482 -0.1805
 5251SOL    HW116331   7.185   7.087   2.284 -0.0821 -0.1397 -0.4604
 5251SOL    HW216332   7.120   7.045   2.153  0.6952  1.4173 -1.3755
 5252SOL     OW16333   5.402   9.480   5.864 -0.4514 -0.4431 -0.2805
 5252SOL    HW116334   5.400   9.545   5.794 -0.8210  1.0260  1.0511
 5252SOL    HW216335   5.495   9.462   5.877 -0.3254  0.0887 -0.4123
 5253SOL     OW16336   4.826   1.217   9.417 -0.0861 -0.1428 -0.0954
 5253SOL    HW116337   4.853   1.296   9.462  0.6892  0.0386 -0.8598
 5253SOL    HW216338   4.738   1.237   9.384  0.7809  1.0718 -1.8066
 5254SOL     OW16339   3.662   3.113   3.454 -0.4501 -0.1109  0.0393
 5254SOL    HW116340   3.646   3.203   3.483 -2.4759 -0.0642 -1.0669
 5254SOL    HW216341   3.585   3.090   3.403  1.8160 -1.0060 -3.3473
 5255SOL     OW16342   0.270   9.538   3.293  0.7565 -0.2660  0.4219
 5255SOL    HW116343   0.221   9.621   3.293  1.2856  0.0539 -0.3050
 5255SOL    HW216344   0.288   9.522   3.385 -0.5365 -0.2837  0.6994
 5256SOL     OW16345   8.621   7.682   3.680  0.2195 -0.3799 -0.4634
 5256SOL    HW116346   8.608   7.683   3.775  0.2991 -0.8342 -0.4481
 5256SOL    HW216347   8.533   7.692   3.644  0.0870 -1.0817 -0.3441
 5257SOL     OW16348   7.638   5.797   0.102  0.2136 -0.2364  0.1070
 5257SOL    HW116349   7.613   5.724   0.158  1.2841  0.0732  1.0326
 5257SOL    HW216350   7.638   5.761   0.013 -1.4843 -0.7418  0.2751
 5258SOL     OW16351   7.342   4.878   9.556 -0.0517 -0.5786 -0.2546
 5258SOL    HW116352   7.365   4.799   9.605  1.2869 -0.1848 -0.1945
 5258SOL    HW216353   7.269   4.916   9.605 -1.0720 -2.0270 -0.5872
 5259SOL     OW16354   6.998   9.367   9.341  0.4929 -0.0322  0.2878
 5259SOL    HW116355   7.057   9.327   9.277  1.2739 -0.6636  1.3763
 5259SOL    HW216356   7.052   9.377   9.420 -0.1015  1.8333  0.5026
 5260SOL     OW16357   0.242   3.607   3.982 -0.1076  0.1142 -0.6889
 5260SOL    HW116358   0.222   3.699   3.964 -0.4477  0.7120  2.3090
 5260SOL    HW216359   0.163   3.560   3.953 -0.6271  0.9702 -0.7058
 5261SOL     OW16360   8.229   5.314   8.412 -0.2840  0.6213  0.0221
 5261SOL    HW116361   8.213   5.387   8.472  0.7511  0.6347  0.2973
 5261SOL    HW216362   8.241   5.238   8.468 -0.5726  0.3865 -0.2302
 5262SOL     OW16363   1.043   1.535   6.951 -0.7266  0.2772 -0.0582
 5262SOL    HW116364   0.992   1.551   6.871  0.6713 -0.7292 -1.2058
 5262SOL    HW216365   1.133   1.555   6.927 -0.4584  1.6160  1.8168
 5263SOL     OW16366   9.924   7.067   5.483  0.0012  0.1793 -0.0428
 5263SOL    HW116367   9.871   6.989   5.499 -1.0607  0.9198  0.1930
 5263SOL    HW216368   9.910   7.088   5.391 -0.5909  0.6960  0.1541
 5264SOL     OW16369   7.210   7.411   6.100  0.1058  0.2177 -0.2827
 5264SOL    HW116370   7.296   7.415   6.060  0.5147  0.3740  0.5907
 5264SOL    HW216371   7.151   7.450   6.035  0.7312  0.3584 -0.7714
 5265SOL     OW16372   7.228   4.238   2.673 -0.2416  0.5854  0.1067
 5265SOL    HW116373   7.166   4.267   2.741  1.4264  1.8861  1.1650
 5265SOL    HW216374   7.311   4.276   2.700  0.9338 -0.7176 -1.5291
 5266SOL     OW16375   7.754   7.242   1.302  0.3067  0.4990 -0.0838
 5266SOL    HW116376   7.842   7.226   1.268 -0.2133 -1.4234 -0.6537
 5266SOL    HW216377   7.768   7.260   1.395  1.3415  0.8417 -0.2849
 5267SOL     OW16378   6.649   9.147   0.997 -0.0926  0.0393 -0.0906
 5267SOL    HW116379   6.653   9.079   0.930 -0.4541 -0.6912  0.6087
 5267SOL    HW216380   6.687   9.224   0.956 -0.5615 -0.3202 -1.2257
 5268SOL     OW16381   3.935   3.881   5.322 -0.6695 -0.0384 -0.1844
 5268SOL    HW116382   3.883   3.826   5.380 -0.5016 -1.1808 -1.0747
 5268SOL    HW216383   4.015   3.830   5.306  2.1041  2.7002  3.2076
 5269SOL     OW16384   5.499   6.183   6.284 -0.1267 -0.3210  0.6067
 5269SOL    HW116385   5.429   6.144   6.230 -0.1627  0.8258 -0.2238
 5269SOL    HW216386   5.574   6.125   6.271 -0.9364 -1.6638  1.6374
 5270SOL     OW16387   7.053   6.708   3.470 -0.9276  0.3068 -0.0721
 5270SOL    HW116388   7.022   6.638   3.528  0.8563  0.1124  0.6957
 5270SOL    HW216389   7.091   6.772   3.529  1.8677 -0.3558 -1.0124
 5271SOL     OW16390   5.305   3.575   9.379  0.1147  0.3119 -0.0763
 5271SOL    HW116391   5.238   3.642   9.379  0.9941  1.2258  0.4312
 5271SOL    HW216392   5.309   3.544   9.289  0.0174  1.2729 -0.4160
 5272SOL     OW16393   9.884   2.229   8.796 -0.5816  0.3663  0.2841
 5272SOL    HW116394   9.889   2.292   8.724 -0.8770 -1.0398 -0.9872
 5272SOL    HW216395   9.802   2.182   8.782 -0.2861 -0.4309  1.1200
 5273SOL     OW16396   8.898   1.835   3.860  0.2518 -0.2825  0.0922
 5273SOL    HW116397   8.917   1.744   3.885  2.0244  0.0314  0.0068
 5273SOL    HW216398   8.891   1.881   3.944  0.1756 -0.3303  0.1129
 5274SOL     OW16399   0.849   9.923   1.034 -0.1701  0.0841  0.2238
 5274SOL    HW116400   0.937   9.914   0.997  0.3033  1.3098  0.9889
 5274SOL    HW216401   0.831  10.017   1.028 -1.3849 -0.1362  0.1988
 5275SOL     OW16402   7.493   1.753   5.756  0.3883 -0.3014 -0.4910
 5275SOL    HW116403   7.579   1.714   5.768  0.2143 -0.5736 -0.0953
 5275SOL    HW216404   7.436   1.680   5.731 -0.1156 -0.4855  1.0577
 5276SOL     OW16405   9.363   9.400   6.130 -0.0872  0.0280  0.4408
 5276SOL    HW116406   9.301   9.403   6.203 -0.4308 -2.0012  0.2946
 5276SOL    HW216407   9.387   9.308   6.123 -0.3409  0.0916 -2.2645
 5277SOL     OW16408   1.241   9.077   1.085  0.3681  0.3505 -0.7948
 5277SOL    HW116409   1.192   9.112   1.159  2.8013 -1.1490  1.6910
 5277SOL    HW216410   1.320   9.130   1.082  1.9784 -1.8887  0.0988
 5278SOL     OW16411   9.650   9.052   9.274 -0.1365 -0.1202 -0.5633
 5278SOL    HW116412   9.609   9.084   9.355  1.0379 -0.2663  0.1216
 5278SOL    HW216413   9.577   9.025   9.219 -0.9809  0.2787  0.3275
 5279SOL     OW16414   5.103   0.999   4.095  0.2162 -0.1063 -0.0010
 5279SOL    HW116415   5.041   1.038   4.033  1.5502  2.4406  0.1163
 5279SOL    HW216416   5.117   1.067   4.161  2.3944 -0.9536  0.4904
 5280SOL     OW16417   5.918   7.533   3.740  0.0831 -0.2340 -0.1808
 5280SOL    HW116418   5.989   7.540   3.803  0.0555 -1.8334  0.0813
 5280SOL    HW216419   5.925   7.444   3.706 -0.2780  0.4000 -1.9997
 5281SOL     OW16420   1.241   6.775   2.907 -0.3153 -0.2265  0.4457
 5281SOL    HW116421   1.163   6.818   2.942 -0.4010  0.3741 -0.4376
 5281SOL    HW216422   1.314   6.825   2.944 -0.4109  0.5786 -0.4234
 5282SOL     OW16423   8.474   8.482   2.363 -0.3533 -0.8343  0.5324
 5282SOL    HW116424   8.507   8.571   2.376 -0.5312 -0.9687  2.1955
 5282SOL    HW216425   8.491   8.463   2.271  1.0501  0.3666  0.5072
 5283SOL     OW16426   1.917   2.821   9.979 -0.3989 -0.0146 -0.4293
 5283SOL    HW116427   2.007   2.801  10.005 -0.1836  0.2410 -0.9491
 5283SOL    HW216428   1.896   2.756   9.913 -0.3757  0.2930 -0.7453
 5284SOL     OW16429   4.623   9.466   4.483  0.0927  0.3667 -0.7009
 5284SOL    HW116430   4.629   9.543   4.539 -0.7485 -1.2795  1.8351
 5284SOL    HW216431   4.537   9.472   4.443  0.2134  0.9475 -0.8851
 5285SOL     OW16432   5.556   6.468   8.397  0.8826 -0.4204  0.1629
 5285SOL    HW116433   5.534   6.561   8.396 -0.8326 -0.5435  4.5453
 5285SOL    HW216434   5.651   6.465   8.386  1.1221  1.9556  1.1329
 5286SOL     OW16435   4.116   4.195   8.512 -0.2365 -0.6792 -0.1427
 5286SOL    HW116436   4.151   4.148   8.587  2.1406 -0.8477 -1.2717
 5286SOL    HW216437   4.096   4.128   8.447  1.0407 -0.3333 -0.9276
 5287SOL     OW16438   4.598   0.260   7.283 -0.2375 -0.5014  0.0192
 5287SOL    HW116439   4.622   0.316   7.357  0.3647 -1.6610  0.7416
 5287SOL    HW216440   4.506   0.280   7.266  0.0206  0.8691  0.0763
 5288SOL     OW16441   3.498   1.096   1.316  0.3116 -0.3870  0.0564
 5288SOL    HW116442   3.515   1.112   1.223  1.1370 -1.2124  0.0465
 5288SOL    HW216443   3.417   1.143   1.334 -0.3854 -0.9951 -1.3128
 5289SOL     OW16444   1.523   8.459   2.807  0.0775 -0.3149 -0.9540
 5289SOL    HW116445   1.568   8.493   2.884  1.8809  0.4393 -2.2837
 5289SOL    HW216446   1.518   8.364   2.822  1.6314 -0.3421 -0.5108
 5290SOL     OW16447   9.289   1.134   5.544  0.0445 -0.4419 -0.1025
 5290SOL    HW116448   9.292   1.118   5.450 -0.0529 -2.5267  0.2125
 5290SOL    HW216449   9.195   1.135   5.565  0.0316  0.8924 -0.1314
 5291SOL     OW16450   7.177   8.700   6.833  0.0695 -0.1525 -0.2478
 5291SOL    HW116451   7.130   8.656   6.903 -0.1979  0.7228  0.1326
 5291SOL    HW216452   7.257   8.649   6.822 -0.6113 -1.2272 -0.3998
 5292SOL     OW16453   5.513   1.821   7.998  0.0090 -0.0494 -0.4310
 5292SOL    HW116454   5.608   1.810   7.996  0.0213 -0.3038  0.7599
 5292SOL    HW216455   5.482   1.754   8.058 -1.0214 -0.4636 -1.3866
 5293SOL     OW16456   4.124   4.379   9.131  0.4556  0.2588  0.2218
 5293SOL    HW116457   4.170   4.456   9.166  0.6874  1.0669 -1.7468
 5293SOL    HW216458   4.092   4.333   9.209  1.0544  1.8786  1.4830
 5294SOL     OW16459   3.018   5.381   8.509 -0.0081 -0.3127 -0.0564
 5294SOL    HW116460   2.956   5.374   8.436 -0.7612  0.5227  0.4752
 5294SOL    HW216461   2.983   5.452   8.564 -0.1898 -1.7469  1.7991
 5295SOL     OW16462   2.099   6.265   9.793  0.6748 -0.1163  0.1668
 5295SOL    HW116463   2.077   6.172   9.802 -1.9513  0.5786  2.1208
 5295SOL    HW216464   2.186   6.273   9.834  0.0894 -1.4218  1.7874
 5296SOL     OW16465   2.196   9.145   6.296  0.4545 -0.6019  0.0737
 5296SOL    HW116466   2.246   9.220   6.265 -0.6058  0.3936  0.6979
 5296SOL    HW216467   2.109   9.181   6.316 -0.0824 -2.0017  0.3569
 5297SOL     OW16468   6.086   5.815   7.106 -0.7262  0.4196 -0.8340
 5297SOL    HW116469   6.090   5.906   7.079  0.6938  0.9221  0.8264
 5297SOL    HW216470   6.016   5.812   7.171  0.7053  0.9014  0.8146
 5298SOL     OW16471   3.723   4.159   6.169 -0.3067 -0.2198 -0.0860
 5298SOL    HW116472   3.804   4.119   6.200  0.9009  2.0454 -0.0810
 5298SOL    HW216473   3.726   4.249   6.203 -2.3470  0.2201 -0.9132
 5299SOL     OW16474   5.739   3.643   8.950 -0.1168 -0.5478 -0.7963
 5299SOL    HW116475   5.724   3.592   8.870 -0.2389 -1.3332 -0.2829
 5299SOL    HW216476   5.751   3.733   8.919 -1.3334 -0.6420 -1.6018
 5300SOL     OW16477   9.477   2.943   5.437 -0.3468 -0.5432 -0.0969
 5300SOL    HW116478   9.566   2.918   5.412 -0.8810 -3.0368  0.1587
 5300SOL    HW216479   9.429   2.947   5.355  0.1789  1.9135 -0.3490
 5301SOL     OW16480   9.869   5.058   2.543 -0.2380  0.2076 -0.7945
 5301SOL    HW116481   9.923   4.979   2.548  1.6382  1.3250 -2.3247
 5301SOL    HW216482   9.783   5.026   2.514 -0.0417 -1.4243  0.2498
 5302SOL     OW16483   1.201   5.578   4.427 -0.1431 -0.0956  0.0612
 5302SOL    HW116484   1.153   5.661   4.430 -2.3700 -1.2848 -0.2257
 5302SOL    HW216485   1.224   5.567   4.335  0.8434  0.5338  0.2171
 5303SOL     OW16486   7.090   6.429   5.636  0.4163  0.7131  0.5167
 5303SOL    HW116487   7.006   6.459   5.602  0.5127  1.1364  0.6363
 5303SOL    HW216488   7.154   6.489   5.596  0.5739  0.9315  1.0841
 5304SOL     OW16489   0.167   1.854   1.391 -0.0953  0.2036 -0.6772
 5304SOL    HW116490   0.184   1.773   1.439  0.5503  0.3861 -0.5898
 5304SOL    HW216491   0.081   1.841   1.351 -0.9746  0.3033  1.0876
 5305SOL     OW16492   2.121   5.705   6.895 -0.1574 -0.5818 -0.1095
 5305SOL    HW116493   2.099   5.636   6.833 -0.2018 -1.0202  0.3859
 5305SOL    HW216494   2.036   5.734   6.929 -0.0755 -1.4219  0.8857
 5306SOL     OW16495   1.021   6.457   8.061 -0.1726 -0.1674 -0.7261
 5306SOL    HW116496   0.996   6.548   8.071 -0.5625 -0.3877  0.4655
 5306SOL    HW216497   0.976   6.411   8.132  0.4875 -1.1942 -0.9390
 5307SOL     OW16498   9.756   1.237   4.408  0.2194 -0.3171 -0.4511
 5307SOL    HW116499   9.812   1.231   4.485  0.3558 -0.5401 -0.5661
 5307SOL    HW216500   9.812   1.271   4.339  0.8985 -2.7364 -1.2071
 5308SOL     OW16501   5.513   2.054   5.868 -0.1217 -0.3637  0.1577
 5308SOL    HW116502   5.524   2.148   5.874 -1.2708 -0.2458  0.4913
 5308SOL    HW216503   5.427   2.042   5.827 -0.0034 -1.2615  0.1511
 5309SOL     OW16504   1.242   9.512   7.645 -0.1107 -0.2584 -0.1506
 5309SOL    HW116505   1.277   9.497   7.733 -0.3305  0.3229  0.0407
 5309SOL    HW216506   1.148   9.497   7.653  0.0249 -1.5652 -0.6087
 5310SOL     OW16507   7.541   1.841   6.166 -0.0221  0.1509 -0.4766
 5310SOL    HW116508   7.540   1.749   6.193  0.4137  0.4156  0.5054
 5310SOL    HW216509   7.614   1.879   6.215  0.0728  0.9275 -1.2051
 5311SOL     OW16510   3.639   6.971   3.762 -0.1283 -0.9242  0.0158
 5311SOL    HW116511   3.713   6.980   3.821 -1.0340  0.9492  0.9508
 5311SOL    HW216512   3.627   6.877   3.752  1.7393 -1.2608  0.6105
 5312SOL     OW16513   3.921   7.006   6.013  0.5672  0.6131 -0.1216
 5312SOL    HW116514   3.835   7.025   6.050  0.5016 -0.7866  0.5222
 5312SOL    HW216515   3.976   6.985   6.089  0.8233 -0.8482 -0.6578
 5313SOL     OW16516   1.188   6.972   7.995  0.2434 -0.1027  0.4729
 5313SOL    HW116517   1.172   7.051   8.046 -0.2525  1.4416 -1.9248
 5313SOL    HW216518   1.104   6.953   7.952  0.7617 -1.0239 -0.1872
 5314SOL     OW16519   8.261   7.201   0.198 -0.6547 -0.4123 -0.1107
 5314SOL    HW116520   8.251   7.116   0.157 -1.0699 -0.6781  0.5162
 5314SOL    HW216521   8.352   7.226   0.182 -0.2743 -1.3840  0.4548
 5315SOL     OW16522   8.112   5.827   0.175  0.0511 -0.2086  0.5677
 5315SOL    HW116523   8.113   5.754   0.114 -1.5470  1.4024 -1.5601
 5315SOL    HW216524   8.192   5.876   0.157 -0.4541  0.3047 -0.3476
 5316SOL     OW16525   3.992   3.156   8.702  0.2388  0.2377 -0.0032
 5316SOL    HW116526   4.030   3.242   8.720 -2.0101  0.8022  2.8833
 5316SOL    HW216527   3.906   3.175   8.664 -0.6447 -0.6116  1.4463
 5317SOL     OW16528   9.899   9.107   0.370 -0.0874 -0.0900 -0.4224
 5317SOL    HW116529   9.922   9.084   0.460 -0.9781 -0.1337 -0.1927
 5317SOL    HW216530   9.840   9.181   0.379  1.9408  1.7229 -1.1089
 5318SOL     OW16531   2.438   4.498   8.200 -0.6143  0.4505  0.3711
 5318SOL    HW116532   2.417   4.556   8.272 -2.5697 -1.2087  1.2460
 5318SOL    HW216533   2.384   4.529   8.127 -1.0537  0.2335  0.5995
 5319SOL     OW16534   9.499   9.840   4.661 -0.6237 -0.0334 -0.4427
 5319SOL    HW116535   9.448   9.781   4.605  1.1810  0.4620 -2.7496
 5319SOL    HW216536   9.590   9.825   4.636  0.2142  0.9405  1.7327
 5320SOL     OW16537   2.004   5.043   3.731  0.6830  0.3192  0.0421
 5320SOL    HW116538   2.018   5.037   3.826  2.3226 -2.1012 -0.2561
 5320SOL    HW216539   2.092   5.038   3.694  0.0434  0.8916 -1.6452
 5321SOL     OW16540   9.857   5.278   6.818 -0.9340 -0.4514  0.0549
 5321SOL    HW116541   9.776   5.298   6.865 -1.5869  1.0632 -1.6351
 5321SOL    HW216542   9.830   5.268   6.727  1.1465  3.9172 -1.2963
 5322SOL     OW16543   3.358   0.890   2.291  0.3700 -0.4354  0.1844
 5322SOL    HW116544   3.309   0.961   2.333 -0.5723 -0.1304 -1.3057
 5322SOL    HW216545   3.292   0.822   2.275  0.9670 -1.0530  0.3248
 5323SOL     OW16546   8.713   9.326   5.786 -0.1006 -0.0697 -0.2085
 5323SOL    HW116547   8.712   9.415   5.750  1.1857  0.5911  1.2361
 5323SOL    HW216548   8.774   9.278   5.731  0.4462  0.4117 -0.0321
 5324SOL     OW16549   7.721   0.576   7.913 -0.3938 -0.3879  0.2400
 5324SOL    HW116550   7.668   0.638   7.962 -0.7054 -0.5835  0.1499
 5324SOL    HW216551   7.666   0.499   7.902  0.1404 -0.8443  0.7076
 5325SOL     OW16552   8.523   5.843   4.478  0.3792  0.1462  0.7690
 5325SOL    HW116553   8.474   5.773   4.521  1.0491 -0.5352  0.4478
 5325SOL    HW216554   8.573   5.798   4.410  2.6547  0.5674  2.0907
 5326SOL     OW16555   6.146   1.524   6.855 -0.3829  0.1439  0.8474
 5326SOL    HW116556   6.068   1.480   6.889 -0.1618 -2.2835 -1.4842
 5326SOL    HW216557   6.219   1.475   6.891 -0.0025  0.6841  0.8217
 5327SOL     OW16558   8.456   0.152   5.758 -0.4088  0.6344 -0.1395
 5327SOL    HW116559   8.385   0.152   5.693 -0.5976 -0.1715  0.0527
 5327SOL    HW216560   8.411   0.143   5.842 -0.0249 -1.9101 -0.1292
 5328SOL     OW16561   1.821   9.640   8.135 -0.3452  0.4025  0.3044
 5328SOL    HW116562   1.901   9.633   8.187 -0.8583  0.9136  1.1906
 5328SOL    HW216563   1.806   9.734   8.127  0.2798  0.3692 -1.6822
 5329SOL     OW16564   5.364   1.020   4.443  0.6946 -0.2154  0.0275
 5329SOL    HW116565   5.459   1.034   4.435  0.8268 -1.2948 -0.4626
 5329SOL    HW216566   5.353   0.925   4.440 -0.2226 -0.2424  2.4893
 5330SOL     OW16567   5.176   6.130   7.083  0.0853 -0.2933 -0.2882
 5330SOL    HW116568   5.194   6.036   7.086  1.5943 -0.1030 -1.8037
 5330SOL    HW216569   5.233   6.167   7.151 -1.7216 -0.5837  1.4590
 5331SOL     OW16570   1.829   9.970   0.590  0.0680  0.2249  0.1324
 5331SOL    HW116571   1.789  10.037   0.534 -0.9510  1.1329  1.8431
 5331SOL    HW216572   1.854   9.900   0.530 -1.7343  0.7710 -1.3478
 5332SOL     OW16573   5.155   6.636   3.891  0.3018  0.2756 -0.1187
 5332SOL    HW116574   5.081   6.616   3.834 -0.1250 -2.1451  1.1498
 5332SOL    HW216575   5.145   6.576   3.965  2.6022  1.0673  0.9270
 5333SOL     OW16576   8.492   7.748   6.557  0.1142 -0.2465  0.2244
 5333SOL    HW116577   8.585   7.766   6.544  0.3529  0.6752  2.6907
 5333SOL    HW216578   8.453   7.835   6.569 -0.8716 -0.6900  0.3062
 5334SOL     OW16579   5.270   5.719   1.719 -1.0753  0.0694 -0.8261
 5334SOL    HW116580   5.245   5.658   1.650 -1.2431 -0.6541 -0.1471
 5334SOL    HW216581   5.247   5.674   1.800  1.8634 -0.4486 -0.1287
 5335SOL     OW16582   1.995   4.694   7.120  0.0288 -0.1047 -0.3187
 5335SOL    HW116583   1.974   4.639   7.195 -0.5981  0.4099 -0.1172
 5335SOL    HW216584   2.070   4.746   7.149 -1.0317  1.0545  0.4431
 5336SOL     OW16585   8.226   7.275   3.349  0.0837  0.7188 -0.3323
 5336SOL    HW116586   8.240   7.352   3.295 -1.6814  0.1054 -1.7775
 5336SOL    HW216587   8.131   7.265   3.353  0.2280 -0.4628  1.1804
 5337SOL     OW16588   2.370   0.126   3.518 -0.0992 -0.1199  0.0683
 5337SOL    HW116589   2.313   0.061   3.558 -0.4204  0.8749  1.3249
 5337SOL    HW216590   2.425   0.077   3.457 -0.1938 -1.5925  1.1213
 5338SOL     OW16591   7.843   4.048   2.875 -0.1630  0.3101 -0.0922
 5338SOL    HW116592   7.873   4.016   2.789  1.6271  2.4858 -0.3524
 5338SOL    HW216593   7.921   4.086   2.915 -1.8633  3.3613  0.5897
 5339SOL     OW16594   5.790   0.733   5.659  0.0004 -0.1625  0.8482
 5339SOL    HW116595   5.839   0.750   5.739 -0.1057  0.3878  0.7987
 5339SOL    HW216596   5.856   0.734   5.589  0.0453 -0.3298  0.8857
 5340SOL     OW16597   4.061   1.787  -0.003 -0.0367 -0.1653 -0.1782
 5340SOL    HW116598   3.970   1.759  -0.012  0.9780 -3.3007 -2.2383
 5340SOL    HW216599   4.075   1.794   0.092 -2.2272 -0.1811  0.1946
 5341SOL     OW16600   3.402   2.663   4.849 -0.5425 -0.1133 -0.1237
 5341SOL    HW116601   3.447   2.688   4.929 -0.0198  0.4848 -0.5978
 5341SOL    HW216602   3.445   2.581   4.822 -0.4487 -0.1002 -0.0158
 5342SOL     OW16603   7.493   3.116   7.934 -0.2812  0.1178  0.5723
 5342SOL    HW116604   7.420   3.127   7.873 -0.3097  0.9079  0.7497
 5342SOL    HW216605   7.559   3.178   7.905  0.9575 -1.5904 -0.4961
 5343SOL     OW16606   9.027   6.689   1.972  0.1684  0.4039 -0.4449
 5343SOL    HW116607   9.081   6.619   2.010  1.8913  1.4586 -0.8028
 5343SOL    HW216608   9.010   6.748   2.046  0.1222  0.4358 -0.4818
 5344SOL     OW16609   6.221   8.500   4.786  0.2418 -0.0177 -0.5071
 5344SOL    HW116610   6.166   8.422   4.781  0.4652 -0.1578 -0.8365
 5344SOL    HW216611   6.161   8.572   4.807 -0.0207 -0.2133 -0.5950
 5345SOL     OW16612   8.976   7.762   1.724  0.8034 -1.0410 -0.0857
 5345SOL    HW116613   9.031   7.838   1.709  0.4838 -0.5244  1.2315
 5345SOL    HW216614   9.024   7.709   1.788 -0.4874 -0.2278  1.6430
 5346SOL     OW16615   4.563   5.121   1.859  0.6486 -0.2272 -0.2272
 5346SOL    HW116616   4.600   5.035   1.878  1.4878  0.0093 -0.7757
 5346SOL    HW216617   4.514   5.109   1.778  2.3143  0.2141 -1.3541
 5347SOL     OW16618   5.429   5.201   0.775  0.2504 -0.2379  0.1111
 5347SOL    HW116619   5.486   5.162   0.841 -0.0057 -0.4046  0.2360
 5347SOL    HW216620   5.419   5.132   0.709 -2.1129 -1.3104  1.4623
 5348SOL     OW16621   6.201   5.312   7.319 -0.2802 -0.0411 -0.3349
 5348SOL    HW116622   6.132   5.373   7.346 -0.2948 -0.5364  0.7916
 5348SOL    HW216623   6.282   5.362   7.331 -0.3768  0.2559 -0.8633
 5349SOL     OW16624   9.002   3.893   4.097 -0.2138 -0.1750  0.0055
 5349SOL    HW116625   8.944   3.969   4.091 -0.3803 -0.3336 -0.4097
 5349SOL    HW216626   9.064   3.916   4.167  0.4213  0.8036 -0.8350
 5350SOL     OW16627   9.757   0.101   7.258  0.2015  0.1541  0.3066
 5350SOL    HW116628   9.699   0.166   7.298  0.0266  0.2042 -0.0298
 5350SOL    HW216629   9.785   0.141   7.176  2.0691  0.8860  1.2260
 5351SOL     OW16630   9.225   4.395   5.341 -0.0464  0.0154  0.3443
 5351SOL    HW116631   9.138   4.385   5.302  0.6098 -0.1737 -1.1392
 5351SOL    HW216632   9.266   4.309   5.332 -0.4502 -0.5605  3.0669
 5352SOL     OW16633   6.804   6.533   5.817 -0.1487  0.0310 -0.2074
 5352SOL    HW116634   6.815   6.492   5.902 -1.3107 -1.1396 -0.6003
 5352SOL    HW216635   6.825   6.625   5.832 -0.6798 -0.0839  1.4127
 5353SOL     OW16636   8.705   8.945   5.479 -0.4361 -0.6340 -0.1706
 5353SOL    HW116637   8.630   8.985   5.523 -0.1473  0.4083 -0.5948
 5353SOL    HW216638   8.780   8.968   5.534 -0.2424 -0.4348 -0.5171
 5354SOL     OW16639   4.027   4.599   4.768  0.5848  0.2141 -0.6730
 5354SOL    HW116640   4.117   4.605   4.800  0.1808 -0.9679  0.7884
 5354SOL    HW216641   4.009   4.505   4.764 -0.8123  0.4501 -0.2493
 5355SOL     OW16642   3.848   2.150   7.828 -0.2238 -0.9430 -0.6740
 5355SOL    HW116643   3.806   2.132   7.912  2.1826 -1.0453  0.6104
 5355SOL    HW216644   3.786   2.204   7.780 -1.3378 -0.1910  1.5166
 5356SOL     OW16645   7.365   0.927   9.471 -0.5035  0.3280  0.1852
 5356SOL    HW116646   7.357   1.013   9.511 -1.3826 -0.7639  2.5318
 5356SOL    HW216647   7.287   0.918   9.417 -1.1592  0.4855  1.0716
 5357SOL     OW16648   6.820   8.290   5.069 -0.4263  0.3417  0.1457
 5357SOL    HW116649   6.910   8.264   5.090 -0.0684  0.6571 -0.9361
 5357SOL    HW216650   6.816   8.286   4.973 -1.3645  0.9777  0.1494
 5358SOL     OW16651   8.181   4.199   4.954 -0.3324  0.0577  0.1493
 5358SOL    HW116652   8.210   4.197   5.045 -0.6643 -3.4058  0.3216
 5358SOL    HW216653   8.218   4.279   4.918  2.3737  0.0291  2.5481
 5359SOL     OW16654   3.084   6.695   0.187 -0.1724  0.1704 -0.2543
 5359SOL    HW116655   3.123   6.612   0.216 -1.0421  0.3806  1.6319
 5359SOL    HW216656   3.029   6.670   0.113  0.3437 -0.7694 -0.3453
 5360SOL     OW16657   5.665   4.951   9.285 -0.5399 -0.3360  0.3986
 5360SOL    HW116658   5.674   5.029   9.339  2.4976  0.3707 -0.9535
 5360SOL    HW216659   5.627   4.982   9.203  0.7388 -0.2083 -0.1686
 5361SOL     OW16660   7.784   9.855   6.179 -0.0450 -0.0010 -0.8659
 5361SOL    HW116661   7.860   9.816   6.135  1.0191  1.2289 -0.2245
 5361SOL    HW216662   7.790   9.948   6.157 -0.0680  0.4717  1.0245
 5362SOL     OW16663   3.380   6.376   1.232  0.3241  0.0829 -0.3180
 5362SOL    HW116664   3.339   6.403   1.314  0.5136 -1.5181  0.3453
 5362SOL    HW216665   3.435   6.450   1.207  0.8511  0.3461  1.4187
 5363SOL     OW16666   4.125   0.818   8.162 -0.1403 -0.3177 -0.5465
 5363SOL    HW116667   4.098   0.861   8.243 -1.5214 -1.6209 -0.2759
 5363SOL    HW216668   4.080   0.866   8.092 -0.9933 -0.7821 -0.3194
 5364SOL     OW16669   8.319   2.035   3.540  0.0551 -0.0464 -0.0048
 5364SOL    HW116670   8.409   2.068   3.548  0.4999 -1.4278  1.1573
 5364SOL    HW216671   8.267   2.095   3.594 -0.0123  1.6175 -1.8156
 5365SOL     OW16672   5.080   0.797   4.449  0.2868 -0.0691 -0.9696
 5365SOL    HW116673   5.098   0.891   4.453 -0.4676  0.0710  2.9384
 5365SOL    HW216674   4.994   0.791   4.408  0.0711  1.0070 -0.7042
 5366SOL     OW16675   2.471   3.368   0.777 -0.1617 -0.5542 -0.0980
 5366SOL    HW116676   2.449   3.414   0.858  0.5069 -0.1490 -0.1354
 5366SOL    HW216677   2.483   3.438   0.712 -0.0668 -0.8353 -0.3878
 5367SOL     OW16678   3.326   7.591   8.035  0.1573  0.1938  0.0569
 5367SOL    HW116679   3.261   7.629   7.977  1.2401  2.0322 -0.0081
 5367SOL    HW216680   3.321   7.497   8.018 -2.6229  0.2211  0.2342
 5368SOL     OW16681   9.282   8.782   1.904 -0.0718 -0.5244 -0.2605
 5368SOL    HW116682   9.362   8.730   1.900  0.7455  0.5429  1.1212
 5368SOL    HW216683   9.241   8.757   1.986 -0.3449  0.0504 -0.2156
 5369SOL     OW16684   8.997   7.958   3.977  0.8420 -0.4639 -0.1760
 5369SOL    HW116685   9.067   7.918   3.925  0.5066 -0.2166 -0.8206
 5369SOL    HW216686   8.979   7.894   4.046  2.3402 -0.1321  0.5569
 5370SOL     OW16687   4.854   0.608   8.997  0.3605  0.0715 -0.3664
 5370SOL    HW116688   4.914   0.534   8.992  1.1784  0.4107  2.4742
 5370SOL    HW216689   4.788   0.591   8.930  1.9046 -1.9029 -1.4766
 5371SOL     OW16690   5.942   1.663   3.563 -0.1979  0.5514  0.1022
 5371SOL    HW116691   5.937   1.578   3.606 -0.7236  1.0557  1.0694
 5371SOL    HW216692   5.929   1.727   3.633 -0.1396  1.4248 -0.6567
 5372SOL     OW16693   3.154   1.250   6.810 -0.0912  0.0184  0.2697
 5372SOL    HW116694   3.167   1.158   6.787  0.0145 -0.2863  1.5098
 5372SOL    HW216695   3.215   1.298   6.753 -0.6425 -0.6021 -0.8797
 5373SOL     OW16696   6.614   3.061   2.914  0.0507  0.4984  0.4298
 5373SOL    HW116697   6.589   3.052   2.822  1.4138 -1.1403  0.1715
 5373SOL    HW216698   6.618   2.971   2.946 -2.8996  1.0786  2.8558
 5374SOL     OW16699   7.910   2.814   8.792 -0.2408 -0.2328 -0.0738
 5374SOL    HW116700   7.837   2.756   8.770 -2.6386  2.0525  1.3312
 5374SOL    HW216701   7.942   2.845   8.707 -1.2894 -0.8342 -0.7172
 5375SOL     OW16702   1.326   0.872   3.162  0.5045 -0.3776  0.2804
 5375SOL    HW116703   1.409   0.919   3.155  0.6542 -0.6052  0.5346
 5375SOL    HW216704   1.318   0.825   3.078  0.3138  0.1619 -0.0078
 5376SOL     OW16705   1.692   5.199   5.268 -0.1181  0.0038  0.1438
 5376SOL    HW116706   1.643   5.117   5.257  0.2009 -0.2829  0.8384
 5376SOL    HW216707   1.783   5.174   5.257  0.1986 -0.2152  2.7572
 5377SOL     OW16708   1.602   9.063   0.623 -0.0923  0.1738  0.0551
 5377SOL    HW116709   1.606   9.003   0.549  0.5347 -0.8146  0.8715
 5377SOL    HW216710   1.683   9.114   0.618 -1.6053  2.6091 -1.9409
 5378SOL     OW16711   3.093   1.408   4.205 -0.8612  0.0408  0.1390
 5378SOL    HW116712   3.100   1.361   4.121 -1.4589  0.3091 -0.0696
 5378SOL    HW216713   3.145   1.356   4.266  1.0621  0.7869 -0.7918
 5379SOL     OW16714   7.219   8.446   6.128 -0.0284 -0.2079 -0.3444
 5379SOL    HW116715   7.303   8.492   6.128  1.6613 -3.0681 -1.5118
 5379SOL    HW216716   7.154   8.515   6.115  2.0812  2.1234  0.6442
 5380SOL     OW16717   9.253   7.268   6.384  0.2191  0.7741 -0.4094
 5380SOL    HW116718   9.264   7.179   6.349 -2.4427  0.8228 -1.6804
 5380SOL    HW216719   9.216   7.317   6.311  1.4625  2.9227  0.3351
 5381SOL     OW16720   1.827   3.068   1.077  0.0515 -0.2926  0.1710
 5381SOL    HW116721   1.831   2.988   1.025 -1.9173 -1.7228  2.0288
 5381SOL    HW216722   1.855   3.041   1.165  1.3022  1.5679  0.4019
 5382SOL     OW16723   6.583   0.864   9.003  0.6206 -0.4860 -0.0064
 5382SOL    HW116724   6.490   0.884   9.003  0.0584 -2.8048  0.9638
 5382SOL    HW216725   6.597   0.817   8.921  0.5951 -1.4793  0.5491
 5383SOL     OW16726   1.197   5.347   1.571 -0.2163  0.0056  0.0818
 5383SOL    HW116727   1.186   5.363   1.477  0.5768  0.3925  0.0451
 5383SOL    HW216728   1.157   5.423   1.613  0.8833  0.6447 -0.0017
 5384SOL     OW16729   4.479   6.054   9.484 -0.2058  0.3753  0.2647
 5384SOL    HW116730   4.385   6.035   9.487 -0.5171  0.1395 -3.8764
 5384SOL    HW216731   4.490   6.105   9.403  3.5355 -2.4019 -1.2870
 5385SOL     OW16732   9.686   0.191   9.110  0.0851  0.3286  0.0436
 5385SOL    HW116733   9.616   0.183   9.175  0.1075 -1.7780 -0.1068
 5385SOL    HW216734   9.764   0.212   9.161 -0.0449 -0.5405  0.6276
 5386SOL     OW16735   5.330   9.148   1.470 -0.0021 -0.5651 -0.2862
 5386SOL    HW116736   5.414   9.175   1.507 -1.1400  0.3653  1.8348
 5386SOL    HW216737   5.335   9.052   1.467  0.8744 -0.5598  0.4940
 5387SOL     OW16738   6.920   4.390   9.005  0.6238  0.2512  0.5740
 5387SOL    HW116739   6.995   4.383   9.064 -1.5472 -0.6829  3.4588
 5387SOL    HW216740   6.953   4.364   8.919  3.7186  0.6281  1.5616
 5388SOL     OW16741   9.622   6.503   9.263 -0.0411 -0.5114  0.0074
 5388SOL    HW116742   9.637   6.527   9.171  1.9924  0.2613  0.4929
 5388SOL    HW216743   9.703   6.460   9.290  0.0407  0.7051  1.8788
 5389SOL     OW16744   6.131   6.083   7.065  0.3377  0.0925  0.0998
 5389SOL    HW116745   6.117   6.163   7.014 -0.5224  0.0429  0.2356
 5389SOL    HW216746   6.225   6.080   7.080  0.3621  1.1758  0.2494
 5390SOL     OW16747   6.078   3.502   9.724 -0.0710 -0.9384 -0.4437
 5390SOL    HW116748   6.004   3.561   9.722  0.1797 -0.6357 -2.3632
 5390SOL    HW216749   6.135   3.536   9.793 -1.6270 -1.1223  0.9788
 5391SOL     OW16750   7.808   2.857   2.030  0.8717 -0.0299 -0.2531
 5391SOL    HW116751   7.842   2.946   2.036  1.1511 -0.1282 -0.3613
 5391SOL    HW216752   7.869   2.805   2.083  1.1350 -0.2761 -0.7869
 5392SOL     OW16753   8.848   8.451   1.153 -0.3147 -0.2900 -0.3115
 5392SOL    HW116754   8.784   8.513   1.189 -1.2426 -1.6906  0.5367
 5392SOL    HW216755   8.932   8.483   1.186 -0.8421  0.1480  0.6645
 5393SOL     OW16756   9.069   5.498   8.793 -0.2039 -0.3177 -0.1943
 5393SOL    HW116757   9.031   5.419   8.754  1.0055 -0.0094 -2.1543
 5393SOL    HW216758   9.090   5.554   8.718  0.8950  0.9829  1.0170
 5394SOL     OW16759   6.751   7.661   3.974  0.1563  0.0840  0.0922
 5394SOL    HW116760   6.845   7.672   3.960  0.6142  0.1918  2.8169
 5394SOL    HW216761   6.716   7.750   3.975  0.2300  0.1113  0.2722
 5395SOL     OW16762   7.886  -0.027   2.493 -1.0590  0.7918  0.0284
 5395SOL    HW116763   7.806  -0.024   2.442 -0.9893 -0.3886 -0.1822
 5395SOL    HW216764   7.933   0.053   2.469 -0.8892  0.1393 -2.0071
 5396SOL     OW16765   6.026   1.582   4.446 -0.7564  0.1396  0.2936
 5396SOL    HW116766   5.948   1.534   4.418  0.0858 -0.5601 -0.9047
 5396SOL    HW216767   6.071   1.521   4.505 -1.3828  0.7669  1.4629
 5397SOL     OW16768   5.273   7.077   2.065  0.1698  0.0307  0.0368
 5397SOL    HW116769   5.227   7.124   2.135  0.5241  2.4457 -1.2627
 5397SOL    HW216770   5.214   7.082   1.990  1.3352  0.7458 -0.8618
 5398SOL     OW16771   9.250   2.856   7.128 -0.1194  0.3706 -0.1229
 5398SOL    HW116772   9.207   2.772   7.113  0.0839  0.2114  0.1758
 5398SOL    HW216773   9.343   2.838   7.121 -0.1036  0.8113 -1.2321
 5399SOL     OW16774   9.915   8.825   7.291  0.1691  0.3319  0.2644
 5399SOL    HW116775   9.960   8.909   7.284  1.1885 -0.0339  1.7753
 5399SOL    HW216776   9.958   8.769   7.226 -0.7001  1.0301 -0.9378
 5400SOL     OW16777   5.387   4.660   1.060  0.9282 -0.3308 -0.2213
 5400SOL    HW116778   5.342   4.742   1.040  0.1151 -1.0192 -1.3284
 5400SOL    HW216779   5.474   4.686   1.089  0.1713  0.9909  0.9819
 5401SOL     OW16780   1.107   4.936   4.778 -0.1131 -0.1107 -0.5206
 5401SOL    HW116781   1.112   5.021   4.822 -1.4984  0.7534 -1.9612
 5401SOL    HW216782   1.021   4.902   4.801 -0.0669 -0.5512 -0.9906
 5402SOL     OW16783   2.325   3.614   8.703  0.4234 -0.7229 -0.4303
 5402SOL    HW116784   2.318   3.665   8.622  1.6201 -0.6535 -0.5087
 5402SOL    HW216785   2.311   3.523   8.675  1.9814 -0.8381 -0.9473
 5403SOL     OW16786   2.051   4.407   8.235  0.6053 -0.0922  0.0040
 5403SOL    HW116787   2.096   4.323   8.228  1.8324  0.6056 -1.0055
 5403SOL    HW216788   2.013   4.422   8.149 -1.1396 -0.3990  0.6809
 5404SOL     OW16789   8.016   4.159   8.616  0.0645  0.4680 -0.0842
 5404SOL    HW116790   8.052   4.216   8.684 -1.0349  1.7713 -0.5488
 5404SOL    HW216791   8.058   4.188   8.536  0.0753  0.1027 -0.2098
 5405SOL     OW16792   2.442   9.006   2.516  0.5693 -0.2765 -0.3565
 5405SOL    HW116793   2.531   9.037   2.495  0.1207  1.7756  0.5311
 5405SOL    HW216794   2.395   9.013   2.433  0.1459  2.8765  0.0378
 5406SOL     OW16795   1.745   3.891   2.215 -0.1188 -0.4521 -0.0486
 5406SOL    HW116796   1.804   3.947   2.164  0.3975  0.6384  1.6591
 5406SOL    HW216797   1.658   3.927   2.199  0.1091  0.2786  0.3226
 5407SOL     OW16798   7.084   7.870   2.820  0.2277  0.0840  0.0861
 5407SOL    HW116799   7.017   7.834   2.877 -0.8320 -0.3808 -1.3827
 5407SOL    HW216800   7.167   7.842   2.859 -0.3615  1.0516  2.1924
 5408SOL     OW16801   0.145   9.971   0.458  0.9586 -0.1554 -0.5403
 5408SOL    HW116802   0.137   9.890   0.509  2.4054  0.2764  0.4451
 5408SOL    HW216803   0.223  10.014   0.494 -0.8216  2.6018  0.2869
 5409SOL     OW16804   2.838   0.725   5.797  0.1143 -0.0324 -0.1097
 5409SOL    HW116805   2.821   0.818   5.781 -2.1346 -0.1268  1.2696
 5409SOL    HW216806   2.929   0.713   5.770  0.6823  2.7017  0.2270
 5410SOL     OW16807   9.234   3.254  -0.012 -0.2970 -0.1538 -0.0928
 5410SOL    HW116808   9.227   3.317   0.059 -1.8936 -0.0796 -0.2743
 5410SOL    HW216809   9.147   3.213  -0.015  0.8278 -2.7413  0.3665
 5411SOL     OW16810   0.255   3.845   8.364  0.1433 -1.0168  0.3261
 5411SOL    HW116811   0.345   3.875   8.348 -0.4721  0.1566 -1.1034
 5411SOL    HW216812   0.244   3.853   8.459  0.9274  0.7236  0.3081
 5412SOL     OW16813   0.813   3.103   2.846 -0.3883  0.1147 -0.0063
 5412SOL    HW116814   0.789   3.159   2.772  1.1716  0.3365 -0.3728
 5412SOL    HW216815   0.855   3.026   2.806 -0.5297 -0.2894  0.5976
 5413SOL     OW16816   3.061   2.226   3.579  0.5082 -0.0895  0.8580
 5413SOL    HW116817   3.083   2.190   3.493 -0.0472  1.7541 -0.0959
 5413SOL    HW216818   3.011   2.157   3.622 -0.9707 -0.2990 -1.1009
 5414SOL     OW16819   5.693   7.030   4.027  0.6367  0.2933  0.5862
 5414SOL    HW116820   5.637   7.066   4.095 -0.6071 -0.4903  0.0117
 5414SOL    HW216821   5.734   6.953   4.067  0.0134 -0.0875  0.4962
 5415SOL     OW16822   5.847   7.826   2.845 -0.5233 -0.1539 -0.3500
 5415SOL    HW116823   5.883   7.787   2.765 -0.4949  0.8029 -0.8233
 5415SOL    HW216824   5.898   7.786   2.916  0.1158 -0.3050 -0.8785
 5416SOL     OW16825   8.452   9.653   6.366  0.0513 -0.0670  0.1588
 5416SOL    HW116826   8.473   9.680   6.277  0.6453  0.0432  0.3310
 5416SOL    HW216827   8.393   9.721   6.399  1.3030  0.8771  0.4920
 5417SOL     OW16828   1.411   1.670   3.474 -0.1898 -0.3413  0.0381
 5417SOL    HW116829   1.408   1.694   3.567  0.4393 -0.2038  0.0274
 5417SOL    HW216830   1.406   1.753   3.427 -0.5103 -0.4115 -0.0487
 5418SOL     OW16831   5.297   6.806   7.216 -0.3589  0.0245 -0.1607
 5418SOL    HW116832   5.217   6.834   7.261 -0.1336  1.3548 -0.5337
 5418SOL    HW216833   5.315   6.719   7.251 -1.1199  0.3330  1.0696
 5419SOL     OW16834   5.817   0.566   7.993 -0.1230  0.0116  0.2628
 5419SOL    HW116835   5.851   0.640   8.043 -0.7899 -0.3298  1.2322
 5419SOL    HW216836   5.846   0.489   8.041 -0.6259 -0.3290  0.0218
 5420SOL     OW16837   6.981   5.200   4.220 -0.7502  0.1933 -0.4429
 5420SOL    HW116838   6.957   5.233   4.133 -0.6174  1.0679 -0.1634
 5420SOL    HW216839   6.987   5.279   4.274 -1.3209 -0.3804  0.4834
 5421SOL     OW16840   5.980   4.369   9.416  0.0162  0.0656 -0.1087
 5421SOL    HW116841   6.064   4.336   9.450  0.4552  0.7846 -0.4646
 5421SOL    HW216842   5.916   4.302   9.441  0.6338 -0.3173  0.4930
 5422SOL     OW16843   2.801   9.147   6.559  0.3345 -0.1743 -0.3599
 5422SOL    HW116844   2.738   9.076   6.547 -0.3490  0.1913  0.8612
 5422SOL    HW216845   2.878   9.104   6.595  0.5717 -0.5302 -1.2545
 5423SOL     OW16846   4.898   7.879   2.619 -0.1086  0.2268  0.0807
 5423SOL    HW116847   4.955   7.806   2.597  1.2581  0.7930  1.5729
 5423SOL    HW216848   4.955   7.942   2.663 -1.5389  1.5910  0.0681
 5424SOL     OW16849   3.911   0.965   7.502 -0.7987 -0.2030 -0.1064
 5424SOL    HW116850   3.889   0.934   7.590  1.8419 -1.9211  0.0570
 5424SOL    HW216851   3.908   0.886   7.447  0.5649  0.2384 -0.8794
 5425SOL     OW16852   6.728   6.538   3.878  0.1340  0.0521 -0.6018
 5425SOL    HW116853   6.690   6.456   3.848 -0.4201 -0.2447  0.8526
 5425SOL    HW216854   6.704   6.602   3.810  1.2829 -1.0981 -2.1776
 5426SOL     OW16855   8.395   2.644   1.268 -0.7980  0.3915  0.3177
 5426SOL    HW116856   8.331   2.573   1.260 -2.1948  1.1366  3.5559
 5426SOL    HW216857   8.348   2.722   1.237 -1.0597  0.7211  1.5037
 5427SOL     OW16858   6.667   6.802   7.566  0.4568 -0.0718  0.4588
 5427SOL    HW116859   6.714   6.725   7.534 -0.5077 -0.8799  0.9124
 5427SOL    HW216860   6.584   6.800   7.518  0.6592  1.0348  0.0421
 5428SOL     OW16861   3.505   4.880   6.406 -0.3753 -0.1513  0.0877
 5428SOL    HW116862   3.528   4.971   6.418 -0.4005  0.4709 -3.4542
 5428SOL    HW216863   3.470   4.852   6.491 -1.4372  3.4354  0.9965
 5429SOL     OW16864   4.275   9.806   2.036  0.0320 -0.1036  0.3750
 5429SOL    HW116865   4.319   9.738   1.985  2.5200  0.5931  1.4412
 5429SOL    HW216866   4.311   9.888   2.001 -1.6365  0.5998  0.2538
 5430SOL     OW16867   6.811   6.037   4.303 -0.0260 -0.1544 -0.1561
 5430SOL    HW116868   6.759   6.111   4.334 -0.4190 -0.0693 -1.0019
 5430SOL    HW216869   6.749   5.982   4.254  0.1761 -1.2281  0.7447
 5431SOL     OW16870  -0.021   0.912   0.636 -0.3249 -0.2306  0.6310
 5431SOL    HW116871   0.043   0.892   0.568 -1.2417 -1.6057  0.1332
 5431SOL    HW216872   0.004   0.856   0.710 -1.0454 -0.9335  0.3593
 5432SOL     OW16873   9.765   6.594   2.645 -0.1665  0.6885  0.8177
 5432SOL    HW116874   9.833   6.529   2.661  1.0852  2.0517  1.3207
 5432SOL    HW216875   9.787   6.632   2.560 -0.4249  0.9755  0.8743
 5433SOL     OW16876   2.435   2.881   8.365 -0.1145  0.2111 -0.0147
 5433SOL    HW116877   2.485   2.874   8.446  1.2115 -1.0493 -0.9001
 5433SOL    HW216878   2.494   2.925   8.303 -0.2784 -0.7766 -0.9053
 5434SOL     OW16879   0.323   6.568   0.941 -0.0080  0.4860  0.3608
 5434SOL    HW116880   0.303   6.474   0.938  1.4331  0.1814 -0.2029
 5434SOL    HW216881   0.294   6.601   0.856 -0.1956  0.4993  0.4277
 5435SOL     OW16882   6.263   6.588   0.093  0.1895 -0.1130  0.1562
 5435SOL    HW116883   6.355   6.578   0.070  1.2497 -0.0375  3.7746
 5435SOL    HW216884   6.224   6.630   0.016  3.4419  1.1124 -1.0084
 5436SOL     OW16885   7.258   2.424   7.852 -0.7192 -0.5000  0.5492
 5436SOL    HW116886   7.243   2.435   7.945 -1.1751 -1.6286  0.6159
 5436SOL    HW216887   7.282   2.512   7.821  2.7444 -0.6626  2.3129
 5437SOL     OW16888   2.419  -0.020   8.401 -0.2228  0.5657  0.1471
 5437SOL    HW116889   2.335  -0.025   8.355 -0.3205 -0.5993  0.4205
 5437SOL    HW216890   2.458   0.063   8.371  0.2178 -0.6174 -2.8712
 5438SOL     OW16891   3.704   3.062   8.246 -0.5760  0.1781  0.1295
 5438SOL    HW116892   3.698   3.150   8.209 -2.6092  0.2590  0.5152
 5438SOL    HW216893   3.658   3.007   8.183  0.4745 -0.5904  0.0136
 5439SOL     OW16894   8.638   4.250   4.467 -0.1018  0.1234 -0.1853
 5439SOL    HW116895   8.643   4.164   4.425 -0.3347 -0.7138  1.4165
 5439SOL    HW216896   8.724   4.289   4.453 -0.3463  0.1258 -1.8795
 5440SOL     OW16897   9.012   1.499   9.345  0.1132 -0.3368  0.6340
 5440SOL    HW116898   9.033   1.490   9.438  0.1644 -2.2191  0.4901
 5440SOL    HW216899   8.972   1.585   9.337 -0.2418 -0.2926  2.4677
 5441SOL     OW16900   0.406   9.790   4.421  0.5396  0.5020  0.2728
 5441SOL    HW116901   0.348   9.738   4.365  1.0997 -1.3456  1.3236
 5441SOL    HW216902   0.394   9.880   4.391 -0.3164 -0.2395 -1.7624
 5442SOL     OW16903   3.208   5.390   0.561  0.1415 -0.3227 -0.3661
 5442SOL    HW116904   3.147   5.361   0.628 -0.6086 -1.7200 -1.5911
 5442SOL    HW216905   3.251   5.467   0.599 -1.8253  0.2541  0.8307
 5443SOL     OW16906   8.626   5.685   5.176 -0.4746 -0.8465  0.6523
 5443SOL    HW116907   8.677   5.650   5.249  0.7900  1.3388  0.8727
 5443SOL    HW216908   8.599   5.607   5.127 -0.1231 -2.2836  2.6014
 5444SOL     OW16909   5.781   1.894   6.709  0.6974 -0.1282 -0.3928
 5444SOL    HW116910   5.810   1.878   6.799  0.2183  0.6412 -0.0922
 5444SOL    HW216911   5.778   1.989   6.701  1.1075 -0.1789 -1.3549
 5445SOL     OW16912   4.633   1.978   1.621  0.3481 -0.0126  0.2407
 5445SOL    HW116913   4.621   1.902   1.678 -0.3009  0.1206  0.2932
 5445SOL    HW216914   4.704   1.953   1.562  0.2823 -0.5773  0.3952
 5446SOL     OW16915   2.532   4.123   6.031 -0.2808  0.5080  0.8145
 5446SOL    HW116916   2.493   4.183   6.095 -1.9989 -1.6650  1.9730
 5446SOL    HW216917   2.597   4.074   6.081 -1.2580 -0.8409  0.8197
 5447SOL     OW16918   6.108   2.904   2.580 -0.5413  0.5193 -0.4833
 5447SOL    HW116919   6.097   2.915   2.485  0.3055  0.1099 -0.6368
 5447SOL    HW216920   6.147   2.986   2.609 -0.1523  0.3798 -0.6053
 5448SOL     OW16921   7.878   4.521   1.886 -0.0610 -0.4683  0.3032
 5448SOL    HW116922   7.788   4.514   1.856 -0.2463  2.1825 -0.0470
 5448SOL    HW216923   7.901   4.613   1.871  2.3478 -0.8097  1.3770
 5449SOL     OW16924   3.965   9.571   1.168  0.3809  0.3842  0.3772
 5449SOL    HW116925   3.963   9.511   1.093 -0.1797 -0.3679  0.9834
 5449SOL    HW216926   3.882   9.620   1.161 -0.3349 -0.6594  1.2697
 5450SOL     OW16927   4.372   5.689   1.305  0.4523 -0.3769  0.0950
 5450SOL    HW116928   4.309   5.679   1.376 -0.2342 -1.1480 -0.6036
 5450SOL    HW216929   4.457   5.672   1.345  0.2526  0.7569  1.0679
 5451SOL     OW16930   4.523   2.452   3.077 -0.0119  0.3336  0.3510
 5451SOL    HW116931   4.520   2.444   3.172  0.5023  0.7220  0.4026
 5451SOL    HW216932   4.535   2.362   3.046 -2.2535 -0.0977  0.5352
 5452SOL     OW16933   1.709   5.697   3.211  0.5511 -0.1723  0.0593
 5452SOL    HW116934   1.696   5.615   3.259 -0.2808 -0.3895 -0.5097
 5452SOL    HW216935   1.669   5.764   3.267  1.7274 -0.0520  0.7898
 5453SOL     OW16936   5.294   4.958   7.693 -0.0005  0.1381  0.2582
 5453SOL    HW116937   5.331   5.043   7.669  1.4607  0.2825  2.6909
 5453SOL    HW216938   5.313   4.949   7.786 -0.4272 -2.7154  0.1536
 5454SOL     OW16939   0.358   3.120   8.146 -0.3753 -0.1517  0.2822
 5454SOL    HW116940   0.439   3.075   8.172 -0.0477  1.1421  1.6200
 5454SOL    HW216941   0.316   3.060   8.085  0.7085 -1.6599  0.9645
 5455SOL     OW16942   4.570   7.217   8.259  0.5898  0.0010 -0.3188
 5455SOL    HW116943   4.509   7.203   8.186  0.6576  0.3754 -0.4487
 5455SOL    HW216944   4.513   7.221   8.337  0.6825 -2.7411 -0.0126
 5456SOL     OW16945   1.836   8.148   3.842  0.1122  0.4837 -0.4632
 5456SOL    HW116946   1.880   8.224   3.803 -0.5930  0.4134 -1.4281
 5456SOL    HW216947   1.744   8.174   3.846 -0.1640 -0.4005 -1.0028
 5457SOL     OW16948   6.164   3.265   4.872 -0.3135 -0.3499  0.0354
 5457SOL    HW116949   6.216   3.320   4.931  0.3499  0.0036 -0.8661
 5457SOL    HW216950   6.078   3.260   4.915 -0.3849  1.3694  0.1652
 5458SOL     OW16951   3.925   3.610   0.253  0.5212 -0.9498  0.1658
 5458SOL    HW116952   3.994   3.568   0.202  0.0935 -1.6352  0.1267
 5458SOL    HW216953   3.969   3.677   0.304  1.1890 -1.2709  0.0173
 5459SOL     OW16954   7.241   1.406   0.645 -0.3285 -0.3232 -0.0704
 5459SOL    HW116955   7.271   1.411   0.554  1.5094 -0.8987  0.4534
 5459SOL    HW216956   7.286   1.479   0.688  0.5268 -1.3209  0.7862
 5460SOL     OW16957   8.999   8.134   6.830 -0.2414  0.4543  0.5016
 5460SOL    HW116958   8.970   8.055   6.876  0.5407 -0.6033 -0.7665
 5460SOL    HW216959   9.093   8.138   6.846  0.1968 -0.3865 -1.5935
 5461SOL     OW16960   0.066   9.265   0.814  0.3360 -0.1537  0.2742
 5461SOL    HW116961   0.137   9.260   0.878 -0.4235  0.1612  1.1502
 5461SOL    HW216962   0.106   9.234   0.732  2.1042  1.9338  0.2277
 5462SOL     OW16963   5.600   2.860   9.659  0.6020 -0.2347  0.5991
 5462SOL    HW116964   5.687   2.897   9.643 -0.7108  2.8161 -0.1102
 5462SOL    HW216965   5.556   2.923   9.716 -1.6270 -0.9321 -0.2260
 5463SOL     OW16966   9.273   0.736   5.483  0.7104 -0.2637  0.7930
 5463SOL    HW116967   9.326   0.794   5.428 -0.8474  0.1668 -0.3210
 5463SOL    HW216968   9.281   0.773   5.571 -2.1458  3.2725 -0.2024
 5464SOL     OW16969   5.821   4.814   6.504  0.4029  0.2403  0.2584
 5464SOL    HW116970   5.775   4.896   6.522  2.4465  1.2476  1.2686
 5464SOL    HW216971   5.790   4.754   6.572 -2.3836 -0.4642 -1.4926
 5465SOL     OW16972   3.482   7.341   0.860 -0.5740  0.2072 -0.2085
 5465SOL    HW116973   3.536   7.289   0.920  0.6858 -1.1355 -2.3622
 5465SOL    HW216974   3.400   7.291   0.852  1.0072 -2.2847 -3.0646
 5466SOL     OW16975   5.831   0.157   3.979 -0.0204  0.3235  0.5203
 5466SOL    HW116976   5.825   0.114   3.894  0.2776  1.4894 -0.1143
 5466SOL    HW216977   5.923   0.179   3.989  0.3128 -1.4604  2.0355
 5467SOL     OW16978   8.336   8.564   5.130  0.5045 -0.2725 -0.7473
 5467SOL    HW116979   8.415   8.617   5.119  0.2158 -0.0316 -1.7413
 5467SOL    HW216980   8.367   8.474   5.127  0.8387 -0.1709 -0.3582
 5468SOL     OW16981   3.357   8.626   6.504 -0.3110 -0.2359 -0.0524
 5468SOL    HW116982   3.416   8.697   6.476  2.9395 -2.0357  1.5905
 5468SOL    HW216983   3.360   8.563   6.433  1.3776 -1.1420  0.7508
 5469SOL     OW16984   1.423   8.817   0.813  0.0198 -0.1175  0.0953
 5469SOL    HW116985   1.421   8.766   0.732  1.2694 -0.3747  0.1988
 5469SOL    HW216986   1.333   8.816   0.845  0.2330 -3.8544  1.0368
 5470SOL     OW16987   5.569   9.245   2.203 -0.2840 -0.4121 -0.1237
 5470SOL    HW116988   5.487   9.196   2.211 -0.7580  0.3793  0.0602
 5470SOL    HW216989   5.577   9.292   2.286 -0.7218  1.0917 -0.8923
 5471SOL     OW16990   0.275   8.378   6.749  0.6613  0.2769 -0.0876
 5471SOL    HW116991   0.328   8.455   6.727  2.2949 -0.4972  0.9683
 5471SOL    HW216992   0.283   8.321   6.673 -0.4378  1.0285 -0.8142
 5472SOL     OW16993   8.285   1.538   8.247 -0.2652  0.2859 -0.0779
 5472SOL    HW116994   8.223   1.480   8.292 -0.3518 -0.3175 -0.9390
 5472SOL    HW216995   8.252   1.626   8.262 -1.3288 -0.0273 -0.5046
 5473SOL     OW16996   5.514   9.285   8.985 -0.0681  0.3627  0.2960
 5473SOL    HW116997   5.505   9.361   9.043 -1.3513 -0.4663  1.2291
 5473SOL    HW216998   5.560   9.220   9.038 -0.5206 -0.1146  0.1160
 5474SOL     OW16999   2.423   0.127   1.091 -0.2644 -0.2237 -0.1024
 5474SOL    HW117000   2.353   0.116   1.026  0.7156 -2.3371 -0.9117
 5474SOL    HW217001   2.377   0.138   1.174 -1.5403  1.0939 -0.9276
 5475SOL     OW17002   3.493   6.261   3.204  0.4339  0.2926  0.0164
 5475SOL    HW117003   3.498   6.239   3.298 -0.3430 -1.7603 -0.3588
 5475SOL    HW217004   3.584   6.265   3.176  0.6749  0.7895  0.8267
 5476SOL     OW17005   0.459   6.548   3.492 -0.1681  0.3131  0.0120
 5476SOL    HW117006   0.535   6.495   3.469 -1.6664 -1.8406 -0.3412
 5476SOL    HW217007   0.487   6.599   3.568  1.9848  0.5887 -0.8784
 5477SOL     OW17008   7.042   3.060   0.717 -0.1986  0.3881  0.2887
 5477SOL    HW117009   7.018   2.980   0.670  0.2307  0.6836 -0.4592
 5477SOL    HW217010   7.005   3.049   0.804 -2.0878  0.3692 -0.4838
 5478SOL     OW17011   5.076   2.727   8.681  0.1304 -0.5532  0.0659
 5478SOL    HW117012   5.016   2.653   8.692 -1.0901  0.3156 -0.4681
 5478SOL    HW217013   5.100   2.724   8.588 -0.1683 -0.1079 -0.0280
 5479SOL     OW17014   8.739   4.401   4.129 -0.1163 -0.4990  0.1703
 5479SOL    HW117015   8.828   4.376   4.154  0.4187  0.5501 -0.5991
 5479SOL    HW217016   8.740   4.400   4.033 -0.7635  0.0962  0.1476
 5480SOL     OW17017   7.563   1.901   8.269 -0.1502 -0.2577  0.1628
 5480SOL    HW117018   7.555   1.809   8.296 -0.7705  0.0024  0.8864
 5480SOL    HW217019   7.498   1.948   8.322  1.7438  0.9668  1.5218
 5481SOL     OW17020   5.425   4.645   4.862  0.2716  0.0604 -0.0409
 5481SOL    HW117021   5.440   4.667   4.954  2.3087  0.3163 -0.3876
 5481SOL    HW217022   5.332   4.664   4.848  0.3439  1.8642  1.4758
 5482SOL     OW17023   1.278   9.255   2.443 -0.1007 -0.1417 -0.5423
 5482SOL    HW117024   1.348   9.311   2.408  0.8360 -2.1546 -2.0870
 5482SOL    HW217025   1.204   9.315   2.456  0.8707  1.4765 -2.0104
 5483SOL     OW17026   4.916   5.579   3.177  0.6240  0.0515 -0.4468
 5483SOL    HW117027   4.956   5.662   3.152  1.6373 -0.7018 -1.3998
 5483SOL    HW217028   4.990   5.521   3.196 -0.0510 -0.8624 -0.5546
 5484SOL     OW17029   8.025   4.273   2.307 -0.5297  0.3936 -0.5313
 5484SOL    HW117030   7.968   4.256   2.382 -1.8706  0.4283 -1.4978
 5484SOL    HW217031   7.989   4.352   2.267  0.3854  0.5836 -1.0169
 5485SOL     OW17032   1.833   5.007   3.131  0.4673 -0.2638  0.3541
 5485SOL    HW117033   1.895   4.944   3.166 -0.6898 -1.9889 -0.5894
 5485SOL    HW217034   1.763   4.954   3.092 -1.0823  1.5922  0.4392
 5486SOL     OW17035   2.540   0.228   8.339 -0.6551  0.3935  0.2617
 5486SOL    HW117036   2.621   0.183   8.362 -1.3643 -1.8823 -1.3199
 5486SOL    HW217037   2.561   0.321   8.342  2.0678 -0.1368 -0.3548
 5487SOL     OW17038   7.022   5.365   2.014 -0.6200  0.6450  0.3115
 5487SOL    HW117039   7.084   5.366   1.941  0.0158 -0.5994  0.7935
 5487SOL    HW217040   7.077   5.362   2.092 -1.2607 -0.8538  0.7374
 5488SOL     OW17041   2.040   9.542   2.522 -0.0006  0.2028  0.1877
 5488SOL    HW117042   2.127   9.576   2.505  0.3884 -1.3382 -1.1732
 5488SOL    HW217043   1.990   9.617   2.555  2.0009  0.9459  1.7210
 5489SOL     OW17044   0.764   4.272   0.843 -0.1167  0.0694  0.1303
 5489SOL    HW117045   0.713   4.285   0.763 -1.4523  1.0109  1.0883
 5489SOL    HW217046   0.826   4.202   0.821 -0.0709  0.6917 -1.8804
 5490SOL     OW17047   9.018   9.469   8.129 -0.5543  0.6929 -0.2195
 5490SOL    HW117048   8.964   9.476   8.207 -0.5428 -1.1793  0.0130
 5490SOL    HW217049   9.000   9.549   8.079 -3.7672  0.0514 -0.2839
 5491SOL     OW17050   1.751   9.647   5.763  0.4316 -1.1729 -0.1148
 5491SOL    HW117051   1.812   9.630   5.691  0.1289 -0.2814 -0.6040
 5491SOL    HW217052   1.807   9.677   5.835  0.5681 -0.1210 -0.6422
 5492SOL     OW17053   1.136   0.208   7.573 -0.1638  0.2043  0.4149
 5492SOL    HW117054   1.168   0.256   7.497  1.9748  0.1748  1.2089
 5492SOL    HW217055   1.206   0.144   7.592 -1.0453 -0.3991  1.8409
 5493SOL     OW17056   1.309   9.977   0.322 -0.2268 -0.1329  0.5665
 5493SOL    HW117057   1.390   9.931   0.348 -0.0709  0.0036  0.3157
 5493SOL    HW217058   1.251   9.966   0.398  0.3316  0.5114  1.1030
 5494SOL     OW17059   9.532   2.074   9.878  0.0015  0.2482  0.5173
 5494SOL    HW117060   9.543   1.985   9.913  3.2986 -0.7624 -2.5031
 5494SOL    HW217061   9.490   2.062   9.793  1.0389  1.4569 -0.2025
 5495SOL     OW17062   8.070   2.813   4.863  0.1200 -0.3315 -0.2484
 5495SOL    HW117063   8.057   2.832   4.956 -0.2683  2.3193 -0.7813
 5495SOL    HW217064   8.144   2.868   4.838 -1.6372  1.3370 -2.1273
 5496SOL     OW17065   1.906   2.964   6.245  0.0572  0.3165  0.0542
 5496SOL    HW117066   1.860   3.045   6.224  0.4281  0.7145  0.7393
 5496SOL    HW217067   1.863   2.897   6.192 -1.4070  0.6431  0.7909
 5497SOL     OW17068   7.702   4.405   9.214  0.1656 -0.4512 -0.1088
 5497SOL    HW117069   7.623   4.423   9.264  0.1470 -0.9052  0.0303
 5497SOL    HW217070   7.750   4.341   9.267  1.2108  0.7195  0.3972
 5498SOL     OW17071   8.747   9.291   8.128 -0.0727  0.4019  0.0386
 5498SOL    HW117072   8.689   9.228   8.084 -1.0981  1.9494 -0.9413
 5498SOL    HW217073   8.835   9.267   8.100 -0.3877 -0.9262  0.1345
 5499SOL     OW17074   0.048   2.151   8.247  0.0705 -0.4007  0.1538
 5499SOL    HW117075  -0.045   2.129   8.253 -0.3007  0.4593 -1.7681
 5499SOL    HW217076   0.050   2.237   8.206  1.7351 -0.9774 -1.0922
 5500SOL     OW17077   3.091   2.863   1.301 -0.4226 -0.5760  0.3424
 5500SOL    HW117078   3.092   2.770   1.324 -0.4672 -0.0033  3.0029
 5500SOL    HW217079   3.168   2.899   1.345 -0.1326  0.6000 -1.0560
 5501SOL     OW17080   9.572   8.116   7.481 -0.0080 -0.1865 -0.5758
 5501SOL    HW117081   9.629   8.193   7.493  1.0032 -1.0693  0.5291
 5501SOL    HW217082   9.575   8.100   7.386 -1.5837  2.0877 -1.0929
 5502SOL     OW17083   7.575   6.416   3.648 -0.2542  0.2502 -0.1432
 5502SOL    HW117084   7.628   6.423   3.727 -0.1905  1.8888 -0.3146
 5502SOL    HW217085   7.604   6.334   3.607 -0.5075 -0.8048  1.6539
 5503SOL     OW17086   6.298   3.681   1.441 -0.1578 -0.0343  0.4149
 5503SOL    HW117087   6.270   3.597   1.478  0.8178 -1.3432 -1.6346
 5503SOL    HW217088   6.391   3.687   1.462  0.3547 -0.6893 -1.5203
 5504SOL     OW17089   1.711   7.598   2.428 -0.5136  0.5167 -1.2111
 5504SOL    HW117090   1.643   7.550   2.380 -0.6918 -0.3961 -0.0780
 5504SOL    HW217091   1.686   7.591   2.520  1.4808 -0.4804 -0.6779
 5505SOL     OW17092   7.582   1.081   2.344  0.1116  0.4281  0.5239
 5505SOL    HW117093   7.574   1.005   2.401 -1.1852  0.1306 -0.0319
 5505SOL    HW217094   7.529   1.149   2.385  0.5978  0.7790  0.5842
 5506SOL     OW17095   3.785   0.492   6.751  0.0696 -0.1140 -0.5882
 5506SOL    HW117096   3.736   0.453   6.679 -1.2077  0.9492 -0.3392
 5506SOL    HW217097   3.760   0.585   6.750 -0.1259 -0.1056  1.3286
 5507SOL     OW17098   5.260   2.814   3.586  1.0853 -0.0010  0.0229
 5507SOL    HW117099   5.274   2.823   3.491  0.5373 -2.6412 -0.3937
 5507SOL    HW217100   5.338   2.768   3.617  0.3321 -1.0445  0.4320
 5508SOL     OW17101   6.226   9.797   5.960 -0.5640 -0.2686  0.1938
 5508SOL    HW117102   6.154   9.859   5.952  0.1683  0.6830  0.6739
 5508SOL    HW217103   6.184   9.712   5.970 -1.6470  0.3605  1.3105
 5509SOL     OW17104   2.951   8.275   1.808 -0.6151 -0.0863  0.1518
 5509SOL    HW117105   2.936   8.216   1.882 -0.2018  0.0425  0.3419
 5509SOL    HW217106   3.004   8.346   1.844 -1.9644  0.9457  0.1669
 5510SOL     OW17107   5.409   8.670   6.495  0.3039  0.5416  0.2951
 5510SOL    HW117108   5.472   8.730   6.456  0.3622  1.8434  2.2690
 5510SOL    HW217109   5.463   8.604   6.539  0.2846  0.7952  0.7042
 5511SOL     OW17110   8.867   2.567   5.082 -0.3283 -0.2465  0.1089
 5511SOL    HW117111   8.897   2.520   5.160  0.7535 -1.0206 -0.7538
 5511SOL    HW217112   8.886   2.659   5.101  0.0376 -0.4412  0.7019
 5512SOL     OW17113   7.252   2.364   2.580  0.2855 -0.5810 -0.5492
 5512SOL    HW117114   7.247   2.345   2.673  0.0312 -0.1193 -0.4708
 5512SOL    HW217115   7.165   2.393   2.555  1.1869  2.8564 -0.1494
 5513SOL     OW17116   4.904   1.737   0.447 -0.1300  0.2918 -0.7587
 5513SOL    HW117117   4.979   1.690   0.412 -1.5002 -1.6813 -1.1949
 5513SOL    HW217118   4.829   1.699   0.402 -1.7185 -0.2448  2.1323
 5514SOL     OW17119   3.975   5.927   8.927 -0.5810 -0.6920 -0.2010
 5514SOL    HW117120   3.900   5.894   8.877  0.1075 -2.7240  0.0174
 5514SOL    HW217121   4.041   5.859   8.919  1.3438  1.1204 -0.5081
 5515SOL     OW17122   1.471   1.943   3.721 -0.7259  0.1437 -0.1589
 5515SOL    HW117123   1.452   2.021   3.772 -0.0281 -0.6579  1.3888
 5515SOL    HW217124   1.414   1.875   3.756  0.8032 -0.8006  0.6484
 5516SOL     OW17125   0.543   8.732   0.964 -0.4326  0.0577  0.3646
 5516SOL    HW117126   0.554   8.827   0.951 -1.4806 -0.0160 -1.4179
 5516SOL    HW217127   0.615   8.707   1.021  1.7995  1.4018 -1.6591
 5517SOL     OW17128   5.363   3.783   6.271  0.2848  0.3038  0.3916
 5517SOL    HW117129   5.436   3.829   6.311  1.3763  0.6699 -1.8612
 5517SOL    HW217130   5.398   3.697   6.247  0.0783  0.5470 -0.8755
 5518SOL     OW17131   0.925   2.526   7.838  0.4132  0.0449 -0.3079
 5518SOL    HW117132   0.949   2.573   7.758 -0.4143  0.4935 -0.3079
 5518SOL    HW217133   0.845   2.479   7.816  0.1021  0.2773  0.2851
 5519SOL     OW17134   8.839   3.866   0.609  0.0766  0.3254  0.0314
 5519SOL    HW117135   8.885   3.785   0.589 -1.1365 -0.4156  0.1334
 5519SOL    HW217136   8.841   3.916   0.527 -0.5527 -0.5139 -0.5117
 5520SOL     OW17137   5.176   6.567   1.632 -0.7565 -0.0407  0.1490
 5520SOL    HW117138   5.272   6.571   1.635 -0.7502 -0.5277  2.6727
 5520SOL    HW217139   5.155   6.477   1.657 -1.8746  0.6574  1.8901
 5521SOL     OW17140   0.650   1.616   0.559  0.2792  0.2634 -0.2337
 5521SOL    HW117141   0.665   1.706   0.589 -0.0975 -0.3202  1.8389
 5521SOL    HW217142   0.572   1.587   0.606 -0.9563 -0.4612 -2.5382
 5522SOL     OW17143   3.143   1.154   7.572 -0.1234  0.6817 -0.1441
 5522SOL    HW117144   3.222   1.184   7.617 -0.8664 -0.0474  1.7557
 5522SOL    HW217145   3.151   1.190   7.483  2.6209  0.0944 -0.2230
 5523SOL     OW17146   0.051   1.878   2.561 -0.6688 -0.0276 -0.4075
 5523SOL    HW117147   0.037   1.884   2.467 -0.2082  2.3340 -0.3808
 5523SOL    HW217148   0.032   1.966   2.594  1.1874 -0.2375  1.3995
 5524SOL     OW17149   2.857   9.604   5.233 -0.2954  0.0054 -0.2844
 5524SOL    HW117150   2.934   9.653   5.203  0.4318 -1.3184 -0.6708
 5524SOL    HW217151   2.890   9.516   5.252 -1.2094  0.1046  2.1130
 5525SOL     OW17152   4.382   5.048   4.288  0.2747  0.2317 -0.1004
 5525SOL    HW117153   4.335   5.131   4.283 -0.8209 -0.4331 -2.4929
 5525SOL    HW217154   4.452   5.056   4.222 -0.7131 -1.1938 -1.3854
 5526SOL     OW17155   9.242   1.579   7.998  0.4038 -0.1103  0.0989
 5526SOL    HW117156   9.317   1.619   8.042 -0.3202 -0.8452  2.1514
 5526SOL    HW217157   9.261   1.486   7.998 -0.5122 -0.3121  0.6965
 5527SOL     OW17158   3.421   3.373   8.028 -0.0691 -0.4885 -0.8642
 5527SOL    HW117159   3.359   3.330   8.086 -0.3665 -0.4274 -1.1354
 5527SOL    HW217160   3.420   3.321   7.947 -0.6952  0.2151 -1.3224
 5528SOL     OW17161   7.362   4.333   5.685  0.4911  0.3548 -0.2775
 5528SOL    HW117162   7.295   4.295   5.628  0.9227  1.5015 -1.6123
 5528SOL    HW217163   7.315   4.355   5.765 -0.9573  1.8066 -1.4401
 5529SOL     OW17164   8.392   9.470   5.774 -0.0389 -0.5465  0.7471
 5529SOL    HW117165   8.362   9.511   5.855  2.3213 -0.4677  1.6730
 5529SOL    HW217166   8.350   9.383   5.774  0.8896 -1.0630  2.7567
 5530SOL     OW17167   6.804   2.712   6.324  0.5712  0.3024  0.0799
 5530SOL    HW117168   6.716   2.700   6.361  1.5314 -0.5565  2.2043
 5530SOL    HW217169   6.829   2.626   6.292  1.3144  0.1649  1.0340
 5531SOL     OW17170   7.197   1.653   4.998  0.1493 -0.4217 -0.6830
 5531SOL    HW117171   7.271   1.658   4.937 -0.0543  1.6339 -0.8428
 5531SOL    HW217172   7.230   1.695   5.078 -0.8521  0.6037 -0.7856
 5532SOL     OW17173   9.578   5.232   9.415  0.5639 -0.1590 -0.0791
 5532SOL    HW117174   9.638   5.207   9.484  1.6342  2.1038 -0.1040
 5532SOL    HW217175   9.528   5.306   9.451 -0.8956 -0.7826 -0.7274
 5533SOL     OW17176   5.813   7.733   9.193 -0.1021  1.0959 -0.1031
 5533SOL    HW117177   5.809   7.641   9.165  2.7429  1.2522 -1.4043
 5533SOL    HW217178   5.860   7.730   9.276 -0.6451  1.3104  0.2090
 5534SOL     OW17179   8.496   0.341   4.308 -0.0591 -0.3630  0.4221
 5534SOL    HW117180   8.501   0.368   4.216 -3.3073  2.0216  0.7607
 5534SOL    HW217181   8.587   0.337   4.337  0.9986  0.3756 -2.4629
 5535SOL     OW17182   6.690   9.357   2.253 -0.1820  0.1093 -0.1196
 5535SOL    HW117183   6.684   9.447   2.284 -1.8934 -0.2689  0.7440
 5535SOL    HW217184   6.603   9.319   2.270 -0.0466 -1.2091 -2.0142
 5536SOL     OW17185   2.276   2.515   7.151 -0.2241  0.1409  0.0311
 5536SOL    HW117186   2.267   2.610   7.158 -1.2747  0.0496  0.1050
 5536SOL    HW217187   2.214   2.480   7.214  0.3919 -0.6044  0.2438
 5537SOL     OW17188   6.029   2.284   8.530  0.2354 -0.1713 -0.3868
 5537SOL    HW117189   5.990   2.204   8.495  2.8091 -1.1832 -1.1973
 5537SOL    HW217190   6.086   2.254   8.601 -0.5662  1.2552  0.9307
 5538SOL     OW17191   2.407   3.549   8.361  0.0240  0.1722  0.6929
 5538SOL    HW117192   2.367   3.619   8.414 -0.4285  0.2166  0.3063
 5538SOL    HW217193   2.335   3.488   8.345  0.3722 -0.2866  0.8620
 5539SOL     OW17194   8.483   6.797   2.444  0.0011 -0.1402  0.7960
 5539SOL    HW117195   8.570   6.821   2.475  0.5165 -0.5791 -0.2528
 5539SOL    HW217196   8.497   6.722   2.386 -0.5008  2.0430 -2.4596
 5540SOL     OW17197   2.251   3.963   5.528  0.0699 -0.5342  0.0249
 5540SOL    HW117198   2.207   3.918   5.600  1.5670 -2.6035 -0.2641
 5540SOL    HW217199   2.208   3.929   5.449  1.8857 -2.4460 -0.2511
 5541SOL     OW17200   1.166   1.546   6.544  0.2482 -0.3552  0.3089
 5541SOL    HW117201   1.237   1.516   6.601  0.5731  0.8725  0.5789
 5541SOL    HW217202   1.184   1.639   6.530 -0.5505 -0.3435 -0.7493
 5542SOL     OW17203   5.923   7.150   1.350 -0.3970 -0.4444 -0.1593
 5542SOL    HW117204   5.974   7.229   1.332  0.3360 -0.7639  0.4697
 5542SOL    HW217205   5.865   7.141   1.274  1.4349 -0.8267 -1.6090
 5543SOL     OW17206   6.545   0.904   2.867  0.4979  0.0712 -0.1892
 5543SOL    HW117207   6.555   0.824   2.918 -2.8256 -0.4206 -0.0926
 5543SOL    HW217208   6.596   0.969   2.915 -0.8175 -0.8318  2.6394
 5544SOL     OW17209   3.170   3.036   2.232 -0.3846 -0.6447  0.6232
 5544SOL    HW117210   3.242   2.974   2.216  1.3687  1.3464  0.3482
 5544SOL    HW217211   3.114   2.991   2.295  1.8572 -1.7696  1.9791
 5545SOL     OW17212   7.579   3.161   4.063 -0.2974 -0.4366  0.3397
 5545SOL    HW117213   7.590   3.237   4.120  2.3339 -0.8786  0.5573
 5545SOL    HW217214   7.625   3.184   3.982 -1.7786 -0.8021 -0.6422
 5546SOL     OW17215   1.321   7.477   9.282  0.3048  0.0898  0.3465
 5546SOL    HW117216   1.273   7.398   9.258  0.3110  0.0833  0.3559
 5546SOL    HW217217   1.411   7.447   9.297  0.5246  0.2423 -0.5708
 5547SOL     OW17218   9.618   2.088   9.134 -0.9941 -0.0356 -0.0759
 5547SOL    HW117219   9.708   2.059   9.120 -1.7279 -1.6493 -1.8555
 5547SOL    HW217220   9.592   2.127   9.050 -2.5082 -1.2243 -0.1965
 5548SOL     OW17221   1.784   1.549   5.161 -0.1872  0.6938  0.2203
 5548SOL    HW117222   1.745   1.629   5.124 -0.2970  0.2352 -0.6662
 5548SOL    HW217223   1.833   1.510   5.089 -0.5706 -0.3263  0.4942
 5549SOL     OW17224   1.224   2.680   4.399  0.6383  0.2728 -0.3937
 5549SOL    HW117225   1.165   2.739   4.353 -0.9081 -1.0847 -0.2507
 5549SOL    HW217226   1.282   2.738   4.449 -0.1415  1.6679 -1.0436
 5550SOL     OW17227   8.651   9.295   1.021 -0.6677  0.4064 -0.1449
 5550SOL    HW117228   8.560   9.320   1.033 -0.7338  1.0497 -1.6877
 5550SOL    HW217229   8.648   9.221   0.959 -0.1353  0.7067 -0.5435
 5551SOL     OW17230   2.537   0.324   7.429 -0.2113  0.1403 -0.6785
 5551SOL    HW117231   2.446   0.304   7.452 -0.0454  0.5594  0.4107
 5551SOL    HW217232   2.587   0.295   7.506  0.5677 -0.0066 -1.2354
 5552SOL     OW17233   5.002   6.767   7.296  0.3764 -0.6225  0.2438
 5552SOL    HW117234   4.929   6.775   7.357  0.3610 -0.7397  0.2410
 5552SOL    HW217235   4.983   6.688   7.246 -0.0277 -0.0868 -0.4692
 5553SOL     OW17236   0.400   7.664   7.998  0.5579 -0.7414  0.1862
 5553SOL    HW117237   0.372   7.574   8.014  0.0434 -0.8771 -1.2864
 5553SOL    HW217238   0.433   7.663   7.908  2.5307  0.0955  0.8610
 5554SOL     OW17239   6.486   1.646   7.336  0.1590  0.5663  0.0902
 5554SOL    HW117240   6.437   1.728   7.326 -1.6578 -0.3587  0.9766
 5554SOL    HW217241   6.420   1.577   7.328  1.4870 -0.7935  0.3434
 5555SOL     OW17242   7.764   1.206   4.830  0.2868 -0.0508 -0.0851
 5555SOL    HW117243   7.828   1.270   4.798 -0.5070  1.3556  1.0160
 5555SOL    HW217244   7.794   1.185   4.919 -0.1316 -0.2622  0.0075
 5556SOL     OW17245   4.643   1.174   8.544 -0.1645  0.0257 -0.5864
 5556SOL    HW117246   4.623   1.259   8.505 -1.2459 -0.1581 -0.4656
 5556SOL    HW217247   4.586   1.169   8.622  0.1051 -0.6744 -0.4225
 5557SOL     OW17248   0.757   9.981   9.356  0.2993 -0.2872  0.0731
 5557SOL    HW117249   0.719   9.933   9.430  0.2981  1.1586  1.0537
 5557SOL    HW217250   0.740   9.926   9.280 -0.5939 -1.3415  1.0030
 5558SOL     OW17251   4.615   1.543   6.127 -0.3094 -0.3330  0.5131
 5558SOL    HW117252   4.707   1.542   6.152 -0.3781  0.6918  0.8329
 5558SOL    HW217253   4.593   1.451   6.113  0.1106 -0.8282  2.7986
 5559SOL     OW17254   3.856   2.673   7.407  0.3174 -0.1539  0.5583
 5559SOL    HW117255   3.858   2.720   7.324  0.2764 -0.7117  0.2332
 5559SOL    HW217256   3.934   2.702   7.454 -0.2766  1.0576  0.8296
 5560SOL     OW17257   7.895   4.164   2.516  0.2311  0.4628  0.1540
 5560SOL    HW117258   7.812   4.130   2.551  0.2183 -1.4283 -1.4949
 5560SOL    HW217259   7.961   4.104   2.551  0.5731  0.4270 -0.5386
 5561SOL     OW17260   5.224   0.136   9.470 -0.3916  0.2965 -0.1665
 5561SOL    HW117261   5.224   0.225   9.505  0.5439  1.0358 -1.9009
 5561SOL    HW217262   5.170   0.141   9.391  0.7987 -0.2990 -1.0626
 5562SOL     OW17263   2.386   2.701   9.635  0.0973  0.1254  0.1795
 5562SOL    HW117264   2.419   2.707   9.545  1.5994  0.1372  0.6979
 5562SOL    HW217265   2.291   2.705   9.626 -0.0582 -3.6037 -1.7138
 5563SOL     OW17266   0.389   2.534   4.693  0.2180 -0.3282 -0.6951
 5563SOL    HW117267   0.450   2.534   4.766  2.0125  0.7705 -2.1157
 5563SOL    HW217268   0.331   2.609   4.709  0.8319  0.1229 -0.5838
 5564SOL     OW17269   9.362   2.992   9.445 -0.4652 -0.2197  0.6352
 5564SOL    HW117270   9.427   3.032   9.503 -0.4625  1.7157 -0.5941
 5564SOL    HW217271   9.391   3.016   9.357 -2.0902 -0.4764 -0.0073
 5565SOL     OW17272   9.076   8.803   7.780 -0.3629 -0.5332 -0.2039
 5565SOL    HW117273   9.108   8.852   7.704 -0.6040 -2.4520 -1.6002
 5565SOL    HW217274   9.065   8.870   7.848  2.3506  0.8859 -0.9967
 5566SOL     OW17275   8.589   9.826   2.357  0.9455  0.6419 -0.5796
 5566SOL    HW117276   8.643   9.753   2.388 -1.8258 -0.8294  1.1822
 5566SOL    HW217277   8.620   9.901   2.408  3.1220  0.5416 -1.6432
 5567SOL     OW17278   7.301   3.956   0.684 -0.1288 -0.6240  0.2044
 5567SOL    HW117279   7.372   3.993   0.631 -2.3942  0.9843 -1.9464
 5567SOL    HW217280   7.253   3.900   0.624 -0.9180 -1.4019  1.5114
 5568SOL     OW17281   1.349   8.926   9.964  0.1452  0.0248  0.4999
 5568SOL    HW117282   1.317   8.836   9.958 -1.1755  0.3652  1.7513
 5568SOL    HW217283   1.380   8.947   9.876  3.0434 -2.5179  0.7512
 5569SOL     OW17284   4.334   0.154   4.911 -0.4470  0.2894  0.1925
 5569SOL    HW117285   4.367   0.234   4.871  0.8767  0.1275  0.8929
 5569SOL    HW217286   4.250   0.138   4.868  1.0806 -0.1573 -2.8935
 5570SOL     OW17287   3.256   0.225   0.841  0.0300 -0.4603  0.0538
 5570SOL    HW117288   3.162   0.223   0.862 -0.1195 -1.4922 -0.6003
 5570SOL    HW217289   3.273   0.315   0.814 -1.6119 -0.9512 -3.1888
 5571SOL     OW17290   6.347   2.458   0.477 -0.3733  0.0147 -0.1561
 5571SOL    HW117291   6.260   2.427   0.453 -0.7743  0.6101  0.4859
 5571SOL    HW217292   6.394   2.379   0.504 -1.6929  0.0220  2.4500
 5572SOL     OW17293   8.996   7.126   6.202  0.0192 -0.3665 -0.5566
 5572SOL    HW117294   8.962   7.215   6.202 -1.3900 -0.8847  0.2410
 5572SOL    HW217295   9.017   7.109   6.110 -0.8058  0.3727 -0.8965
 5573SOL     OW17296   2.501   2.401   2.719 -0.0614 -0.0563 -0.1749
 5573SOL    HW117297   2.596   2.411   2.729  0.0720 -2.6652  3.1663
 5573SOL    HW217298   2.490   2.354   2.637  1.9638 -2.5480  0.8356
 5574SOL     OW17299   3.839   9.023   5.370  0.5228 -0.4546 -0.7299
 5574SOL    HW117300   3.882   9.050   5.289  0.1441 -1.0225 -1.1333
 5574SOL    HW217301   3.908   9.026   5.437  1.0935 -0.9520 -1.2784
 5575SOL     OW17302   5.341   8.180   7.597  0.2611 -0.1417 -0.1988
 5575SOL    HW117303   5.261   8.184   7.544  0.3718 -1.9995 -0.5804
 5575SOL    HW217304   5.314   8.210   7.684 -1.2277 -2.0198  0.0492
 5576SOL     OW17305   8.947   2.810   6.949 -0.7933 -0.3436  0.2383
 5576SOL    HW117306   9.008   2.751   6.905 -0.5501  0.1774 -0.1422
 5576SOL    HW217307   8.970   2.897   6.915 -1.8421 -0.1568 -0.0209
 5577SOL     OW17308   8.175   7.819   8.201  0.1978 -0.1705 -0.3735
 5577SOL    HW117309   8.235   7.885   8.235  0.6246 -0.4889 -0.4905
 5577SOL    HW217310   8.205   7.737   8.240 -0.1435 -0.3399 -0.4604
 5578SOL     OW17311   3.602   4.726   8.613  0.1607  0.0873  0.4771
 5578SOL    HW117312   3.638   4.657   8.557  1.3542 -0.8969  2.3386
 5578SOL    HW217313   3.642   4.806   8.582 -3.0157  0.5460 -3.3017
 5579SOL     OW17314   7.515   5.478   5.401 -0.9202  0.1771 -0.4803
 5579SOL    HW117315   7.460   5.542   5.448 -0.9994 -1.4068  1.7592
 5579SOL    HW217316   7.453   5.425   5.352 -0.8686  1.6400 -2.2154
 5580SOL     OW17317   9.105   3.777   0.987  0.1300 -0.4983 -0.0684
 5580SOL    HW117318   9.022   3.790   1.034  1.0305 -0.5589  1.6195
 5580SOL    HW217319   9.079   3.751   0.899 -1.6760  1.5349 -0.2406
 5581SOL     OW17320   8.701   8.232   1.105  0.4237 -0.3327  0.9888
 5581SOL    HW117321   8.749   8.314   1.114  0.5262 -0.2600 -0.1858
 5581SOL    HW217322   8.747   8.183   1.038 -1.9171  0.3598 -1.2793
 5582SOL     OW17323   7.223   3.635   8.270  0.3980  0.4154  0.1629
 5582SOL    HW117324   7.225   3.564   8.206  0.3289  0.8180 -0.2930
 5582SOL    HW217325   7.311   3.636   8.308  1.1140  1.4836 -1.3964
 5583SOL     OW17326   3.875   0.486   6.447  0.1011 -0.0089 -0.4530
 5583SOL    HW117327   3.870   0.580   6.429 -0.4536 -0.2447 -1.6730
 5583SOL    HW217328   3.785   0.461   6.468  0.7833  0.3433  3.5365
 5584SOL     OW17329   3.295   1.415   1.531 -0.2939  0.1841  0.0613
 5584SOL    HW117330   3.350   1.484   1.494 -1.3507  0.6152 -0.7839
 5584SOL    HW217331   3.242   1.460   1.597 -1.6042  0.4094 -1.0970
 5585SOL     OW17332   9.530   9.021   3.241 -0.4646 -0.2861 -0.3160
 5585SOL    HW117333   9.513   9.087   3.308 -0.4446 -0.7223  0.1198
 5585SOL    HW217334   9.446   9.012   3.195 -0.2906  0.5142 -0.8069
 5586SOL     OW17335   8.443   6.421   7.961 -0.4852 -0.2279  0.3170
 5586SOL    HW117336   8.451   6.396   8.053  1.7469  0.2784  0.3264
 5586SOL    HW217337   8.521   6.385   7.920 -1.6867 -0.8733 -1.5132
 5587SOL     OW17338   6.415   9.575   0.932  0.4303  0.2815  0.2533
 5587SOL    HW117339   6.448   9.642   0.991 -0.1128  0.2386  0.6091
 5587SOL    HW217340   6.478   9.503   0.939  1.0621  0.7824 -0.1973
 5588SOL     OW17341   3.805   2.142   6.482 -0.1963  0.9034  0.1681
 5588SOL    HW117342   3.761   2.101   6.407  1.0451 -1.4827  0.6723
 5588SOL    HW217343   3.896   2.154   6.452 -0.0667  1.4413  0.7611
 5589SOL     OW17344   3.512   0.018   0.450  0.3021 -0.3564  0.1556
 5589SOL    HW117345   3.462  -0.047   0.500  0.8672 -2.3139 -1.6801
 5589SOL    HW217346   3.445   0.079   0.418 -0.6147 -1.5396 -0.2492
 5590SOL     OW17347   8.674   7.367   2.645 -0.5140  0.1084 -0.0668
 5590SOL    HW117348   8.654   7.350   2.553  1.1952 -0.8823 -0.2912
 5590SOL    HW217349   8.636   7.293   2.692  1.0290 -0.8876 -0.3153
 5591SOL     OW17350   9.300   1.807   9.406  0.1888  0.1931  0.2529
 5591SOL    HW117351   9.211   1.813   9.439  0.8399  0.1253  2.1449
 5591SOL    HW217352   9.306   1.876   9.340 -1.9329 -1.3573 -1.7646
 5592SOL     OW17353   3.680   2.589   8.897 -0.5080  0.3966  0.4051
 5592SOL    HW117354   3.686   2.563   8.989 -0.7039  0.6108  0.4779
 5592SOL    HW217355   3.754   2.545   8.855  0.2491  1.1973  0.8723
 5593SOL     OW17356   1.705   9.433   8.846  0.6230  0.2369 -0.3634
 5593SOL    HW117357   1.726   9.369   8.779  0.4140  0.0991 -0.3019
 5593SOL    HW217358   1.710   9.518   8.802  1.1187  0.1965 -0.3896
 5594SOL     OW17359   0.450   1.822   8.709  0.1942 -0.1771 -0.3741
 5594SOL    HW117360   0.535   1.783   8.688  0.5204  0.1505  0.3221
 5594SOL    HW217361   0.396   1.747   8.737  0.6776 -0.2073  0.5141
 5595SOL     OW17362   9.138   9.085   4.665 -0.5007  0.0203 -0.0328
 5595SOL    HW117363   9.147   9.016   4.600  3.1944 -1.1255  1.4113
 5595SOL    HW217364   9.205   9.149   4.641 -2.0250  1.7886  0.2251
 5596SOL     OW17365   2.847   0.356   3.418 -0.3051  0.4250 -0.0652
 5596SOL    HW117366   2.918   0.407   3.458 -0.7837  1.8446 -0.9307
 5596SOL    HW217367   2.771   0.373   3.473 -0.1649 -0.4680  0.4174
 5597SOL     OW17368   1.876   8.611   1.268 -0.0449  0.3248  0.1526
 5597SOL    HW117369   1.897   8.669   1.342  1.7805  0.5796 -0.4928
 5597SOL    HW217370   1.858   8.671   1.196 -0.5245  0.0822  0.0733
 5598SOL     OW17371   5.880   5.385   8.181  0.3100 -0.3367  0.1599
 5598SOL    HW117372   5.841   5.449   8.241 -0.4032 -0.7139  0.1148
 5598SOL    HW217373   5.842   5.407   8.095  1.3201  0.1991 -0.1739
 5599SOL     OW17374   8.786   7.108   5.915 -0.8473  0.0527 -0.2231
 5599SOL    HW117375   8.763   7.201   5.915  0.9936  0.5471 -0.0976
 5599SOL    HW217376   8.776   7.081   6.006 -0.4152  0.4128 -0.0605
 5600SOL     OW17377   2.447   9.867   5.310 -0.1828 -0.4146  0.5719
 5600SOL    HW117378   2.393   9.943   5.288 -1.1287 -1.5466 -1.2672
 5600SOL    HW217379   2.504   9.897   5.381 -1.2781  1.6629  0.6271
 5601SOL     OW17380   2.230   4.359   3.366  0.5271 -0.2144 -0.7431
 5601SOL    HW117381   2.160   4.422   3.377  0.2276 -0.5049 -0.9734
 5601SOL    HW217382   2.190   4.285   3.321  0.9942 -0.3543 -0.9429
 5602SOL     OW17383   6.944   2.500   8.053 -0.4038  0.0428 -0.5479
 5602SOL    HW117384   6.906   2.429   8.002  0.9582 -1.9125  1.0092
 5602SOL    HW217385   6.898   2.497   8.137  0.6705 -0.0180  0.0582
 5603SOL     OW17386   8.738   1.616   5.321  0.5106  0.6364  0.1916
 5603SOL    HW117387   8.798   1.554   5.278  1.7996  2.6100 -1.0409
 5603SOL    HW217388   8.709   1.673   5.250 -1.9659  0.4754  0.9944
 5604SOL     OW17389   5.107   9.830   6.198  0.0289 -0.3725 -0.3224
 5604SOL    HW117390   5.130   9.805   6.287  1.0488  1.0666 -0.1566
 5604SOL    HW217391   5.022   9.874   6.207  0.2958  0.0871  0.0025
 5605SOL     OW17392   8.779   6.324   3.135 -0.8308  0.2652  0.0639
 5605SOL    HW117393   8.788   6.325   3.040 -1.3098 -1.8310 -0.0523
 5605SOL    HW217394   8.701   6.272   3.152  0.2036 -0.8897  1.6391
 5606SOL     OW17395   9.554   5.597   6.964  0.2426  0.6012 -0.5047
 5606SOL    HW117396   9.607   5.647   7.027 -0.4229 -0.4064  0.8843
 5606SOL    HW217397   9.465   5.631   6.975  0.2120  0.8086 -1.3279
 5607SOL     OW17398   8.495   1.801   5.603 -0.2132  0.1346  0.0377
 5607SOL    HW117399   8.436   1.793   5.678  1.1272 -0.3665  1.0792
 5607SOL    HW217400   8.487   1.892   5.576 -3.2270 -0.4326 -1.3943
 5608SOL     OW17401   0.041   9.237   5.820 -0.5863 -0.1254  0.9084
 5608SOL    HW117402   0.008   9.302   5.759 -1.4077  0.0560  1.5238
 5608SOL    HW217403   0.120   9.276   5.858 -0.1857 -0.1599  0.1164
 5609SOL     OW17404   0.825   8.049   4.612  0.3375 -0.1394  0.0450
 5609SOL    HW117405   0.767   8.002   4.673  1.3919 -0.2251  1.0010
 5609SOL    HW217406   0.830   7.992   4.536  0.7757 -1.0978  0.7784
 5610SOL     OW17407   6.159   2.321   0.973  0.6658  0.4664  0.4126
 5610SOL    HW117408   6.234   2.269   1.001 -1.1007 -2.4488  0.1719
 5610SOL    HW217409   6.099   2.319   1.049 -0.9024 -0.8958 -0.7991
 5611SOL     OW17410   6.522   3.790   6.698 -0.0453 -0.3844 -0.0279
 5611SOL    HW117411   6.509   3.705   6.656  0.6916 -0.5573  0.0852
 5611SOL    HW217412   6.548   3.849   6.626 -1.2391 -0.0701 -0.2309
 5612SOL     OW17413   9.647   0.231   8.683  0.0169 -0.3941  0.1719
 5612SOL    HW117414   9.717   0.285   8.645 -1.0449  1.7655  1.1335
 5612SOL    HW217415   9.608   0.187   8.608  1.8019 -0.9665 -0.4901
 5613SOL     OW17416   0.179   2.739   3.007 -0.3964  0.1788  0.1648
 5613SOL    HW117417   0.257   2.749   2.952 -0.5339 -1.2679 -0.3321
 5613SOL    HW217418   0.113   2.703   2.948 -0.8480 -0.4750  1.0540
 5614SOL     OW17419   4.857   0.647   2.373  0.0433  0.6674  0.2808
 5614SOL    HW117420   4.801   0.593   2.429  0.4227 -0.3613 -0.3109
 5614SOL    HW217421   4.910   0.585   2.323  0.4193  1.5800 -0.5084
 5615SOL     OW17422   3.958   0.388   4.283  0.4834 -0.5812  0.4823
 5615SOL    HW117423   3.950   0.313   4.224 -0.7931  0.3894 -0.6453
 5615SOL    HW217424   3.868   0.406   4.310  0.6257  1.1871 -0.1176
 5616SOL     OW17425   0.317   6.960   9.848  0.2026 -0.3708  0.2444
 5616SOL    HW117426   0.234   6.914   9.863  0.0640 -0.2073 -0.0084
 5616SOL    HW217427   0.296   7.024   9.780  0.3438  0.1825  0.7172
 5617SOL     OW17428   1.653   9.080   4.795  0.5703 -0.4683  0.0158
 5617SOL    HW117429   1.703   9.082   4.876  0.4311 -2.7071  0.2115
 5617SOL    HW217430   1.562   9.071   4.823  0.4420 -0.4399 -0.3842
 5618SOL     OW17431   8.026   6.734   0.210 -0.0221 -0.1746 -0.0798
 5618SOL    HW117432   7.955   6.680   0.245  0.1016 -0.1437  0.2209
 5618SOL    HW217433   8.073   6.765   0.287 -0.4430  0.8477 -0.2096
 5619SOL     OW17434   4.224   9.827   8.200  0.2478  0.0101  0.4824
 5619SOL    HW117435   4.132   9.832   8.176  0.3430 -0.4898 -0.0139
 5619SOL    HW217436   4.251   9.919   8.212  0.1254  0.2866 -1.1086
 5620SOL     OW17437   9.310   5.086   9.246  0.1931 -0.0043  0.1768
 5620SOL    HW117438   9.316   5.169   9.198 -1.0778 -1.6227 -3.0698
 5620SOL    HW217439   9.400   5.053   9.248  0.2273 -0.1475 -1.7381
 5621SOL     OW17440   6.616   5.547   7.133  0.1014 -0.1370 -0.3502
 5621SOL    HW117441   6.650   5.545   7.223  0.9850  0.0919 -0.6681
 5621SOL    HW217442   6.598   5.455   7.113 -0.1874 -0.1799  0.0946
 5622SOL     OW17443   3.705   2.047   4.575  0.1480 -0.3672 -0.0884
 5622SOL    HW117444   3.779   1.997   4.540 -1.6839 -2.9663 -0.5336
 5622SOL    HW217445   3.645   2.056   4.501 -0.7586  0.1595  0.6846
 5623SOL     OW17446   6.084   4.626   2.342  0.9950 -0.4998  0.8136
 5623SOL    HW117447   6.149   4.572   2.387 -0.3219 -1.5678  1.5122
 5623SOL    HW217448   6.047   4.568   2.276  1.5778  0.4818 -0.4196
 5624SOL     OW17449   1.691   2.362   8.955  0.3127  0.3033 -0.1881
 5624SOL    HW117450   1.683   2.305   8.879  1.7627  1.3992 -1.2132
 5624SOL    HW217451   1.629   2.433   8.938 -1.1589 -0.6669  0.8713
 5625SOL     OW17452   0.398   3.031   4.264  0.5373  0.0822  0.9673
 5625SOL    HW117453   0.418   3.096   4.197 -0.8171  0.2682  0.7061
 5625SOL    HW217454   0.307   3.050   4.289 -0.2067 -2.2215  0.2832
 5626SOL     OW17455   9.558   8.591   0.196 -0.1062  0.0692  0.4053
 5626SOL    HW117456   9.472   8.585   0.154  0.7934 -2.6455 -1.3245
 5626SOL    HW217457   9.612   8.638   0.133  0.4767 -1.2935 -0.1613
 5627SOL     OW17458   9.426   3.101   3.099 -0.6168 -0.4166  0.5515
 5627SOL    HW117459   9.508   3.064   3.069 -1.7252 -2.3968 -0.2157
 5627SOL    HW217460   9.449   3.150   3.178  1.2136 -1.2726  0.5955
 5628SOL     OW17461   1.942   1.154   0.861 -0.3950 -0.1754 -0.2066
 5628SOL    HW117462   1.954   1.246   0.839  0.4046 -0.2503 -0.1012
 5628SOL    HW217463   2.023   1.129   0.906 -1.1771 -0.5458  1.0673
 5629SOL     OW17464   9.234   4.035   2.628 -0.4113  0.0045  0.1611
 5629SOL    HW117465   9.203   3.945   2.622 -0.9625  0.0904  1.2951
 5629SOL    HW217466   9.301   4.043   2.560  0.4651 -1.5992  0.7864
 5630SOL     OW17467   4.865   8.097   3.405  0.2274 -0.7486  0.2086
 5630SOL    HW117468   4.826   8.097   3.318  0.1815 -0.1159  0.2240
 5630SOL    HW217469   4.927   8.024   3.404  0.5899 -0.4379 -0.5187
 5631SOL     OW17470   4.243   2.426   3.097 -0.0565  0.3457 -0.2734
 5631SOL    HW117471   4.325   2.474   3.106 -0.3588  0.7515  0.4759
 5631SOL    HW217472   4.216   2.440   3.006 -0.5344  2.2828  0.1222
 5632SOL     OW17473   8.510   5.058   9.436  0.5018  0.0114  0.8124
 5632SOL    HW117474   8.415   5.063   9.444  0.5081  0.7851  0.4609
 5632SOL    HW217475   8.526   5.044   9.343  0.6731 -2.2312  1.1254
 5633SOL     OW17476   2.388   8.922   8.252 -0.3606 -0.2597 -0.2094
 5633SOL    HW117477   2.441   8.978   8.309  0.7340 -0.0364 -1.3910
 5633SOL    HW217478   2.421   8.834   8.267 -0.0556 -0.1980 -0.4932
 5634SOL     OW17479   1.565   7.730   9.011 -0.3480  0.3063  0.3049
 5634SOL    HW117480   1.512   7.655   9.039 -1.6910  1.4931  1.1023
 5634SOL    HW217481   1.634   7.736   9.077 -0.0480 -0.3983  0.0648
 5635SOL     OW17482   7.552   7.665   4.755  0.0826  0.3990 -0.3229
 5635SOL    HW117483   7.489   7.732   4.728  1.5027  1.1942 -1.9191
 5635SOL    HW217484   7.510   7.582   4.735 -0.3907  0.9165 -1.6045
 5636SOL     OW17485   6.783   6.644   9.166  0.0242 -0.1595  0.4552
 5636SOL    HW117486   6.725   6.646   9.089 -1.0137  0.3542  1.2202
 5636SOL    HW217487   6.791   6.551   9.187 -1.5920 -0.1933  1.0869
 5637SOL     OW17488   7.913   6.638   9.313  0.8023  0.0510 -0.2917
 5637SOL    HW117489   7.981   6.662   9.375  0.7779  1.5265 -0.7894
 5637SOL    HW217490   7.884   6.721   9.276 -0.5681 -0.6317 -0.8262
 5638SOL     OW17491   7.528   8.054   7.649 -0.2687  0.1863  0.0894
 5638SOL    HW117492   7.525   8.050   7.553  1.8400  2.2086 -0.1261
 5638SOL    HW217493   7.485   8.136   7.671 -0.8768 -0.3364  0.9228
 5639SOL     OW17494   6.014   5.909   5.373 -0.0772 -0.3173  0.3497
 5639SOL    HW117495   6.086   5.957   5.414  1.2127 -1.4869 -0.4170
 5639SOL    HW217496   5.963   5.874   5.446  1.5810 -1.5155  1.0221
 5640SOL     OW17497   0.046   6.411   4.091 -0.6109  0.3029  0.5609
 5640SOL    HW117498  -0.041   6.447   4.076 -0.9688 -0.3729  0.9502
 5640SOL    HW217499   0.067   6.436   4.181 -0.6460 -0.0088  0.6574
 5641SOL     OW17500   7.744   8.487   1.736  0.1276 -0.1243 -0.3676
 5641SOL    HW117501   7.679   8.529   1.791 -0.4510 -0.7932 -0.5208
 5641SOL    HW217502   7.822   8.480   1.791 -0.1592  0.0326  0.0632
 5642SOL     OW17503   9.706   4.937   6.478 -0.0898 -0.4316 -0.0307
 5642SOL    HW117504   9.689   4.872   6.546 -0.2437 -2.5179 -1.9298
 5642SOL    HW217505   9.799   4.928   6.458  0.1862  0.8898  0.5636
 5643SOL     OW17506   6.631   4.019   2.826  0.2158 -0.0487 -0.5053
 5643SOL    HW117507   6.540   3.999   2.803  0.7788 -0.7088 -2.2562
 5643SOL    HW217508   6.624   4.071   2.906 -1.7395  0.5391 -1.0065
 5644SOL     OW17509   3.036   3.804   7.611  0.5342 -0.4837 -0.0593
 5644SOL    HW117510   3.109   3.853   7.575  1.7077 -0.2842  2.3814
 5644SOL    HW217511   3.054   3.713   7.587 -0.5334 -0.0668 -2.7667
 5645SOL     OW17512   9.903   6.441   1.473 -0.0519  0.0162 -0.2847
 5645SOL    HW117513   9.942   6.456   1.559  0.0604  0.2994 -0.3817
 5645SOL    HW217514   9.847   6.518   1.459  0.2890  0.2035 -0.6602
 5646SOL     OW17515   8.779   3.190   3.721  0.5594  0.4123  0.3775
 5646SOL    HW117516   8.693   3.229   3.730  0.1446 -0.6356  1.1987
 5646SOL    HW217517   8.822   3.240   3.652 -1.3136 -0.0772 -1.2185
 5647SOL     OW17518   0.251   4.857   6.772  0.4098  0.4216  0.1695
 5647SOL    HW117519   0.245   4.861   6.676 -1.3839  1.8460  0.3021
 5647SOL    HW217520   0.345   4.860   6.790  0.9461 -2.2971 -1.5832
 5648SOL     OW17521   0.101   8.611   5.167 -0.6349  0.4168  0.0141
 5648SOL    HW117522   0.046   8.583   5.095 -0.1969  1.7965 -0.9076
 5648SOL    HW217523   0.040   8.633   5.237 -1.0174 -2.0269  0.5439
 5649SOL     OW17524   4.725   7.053   5.219  0.8503 -0.7139  0.2113
 5649SOL    HW117525   4.660   7.013   5.162  0.0797  1.4923 -0.5753
 5649SOL    HW217526   4.680   7.067   5.302  0.6243 -0.1438 -0.0001
 5650SOL     OW17527   2.138   1.643   5.211 -0.4917 -0.0711 -0.5140
 5650SOL    HW117528   2.220   1.594   5.209 -0.8341 -0.7190  0.6257
 5650SOL    HW217529   2.105   1.637   5.121  1.3106  1.2975 -1.3179
 5651SOL     OW17530   7.974   9.383   7.613  0.5307 -0.0814 -0.1866
 5651SOL    HW117531   7.896   9.329   7.606  0.3276  0.1013  0.5053
 5651SOL    HW217532   7.987   9.419   7.526 -0.0718 -0.2388 -0.3465
 5652SOL     OW17533   7.958   1.284   3.548 -0.3328  0.9503  0.1719
 5652SOL    HW117534   8.012   1.318   3.477 -0.2330  1.8168  0.6543
 5652SOL    HW217535   8.020   1.254   3.614 -0.4319  1.1111  0.3398
 5653SOL     OW17536   3.593   6.552   3.479 -0.5185 -0.2003 -0.3885
 5653SOL    HW117537   3.575   6.639   3.445  1.1911  0.6115  0.6463
 5653SOL    HW217538   3.682   6.558   3.514  0.3116 -2.8140 -1.7789
 5654SOL     OW17539   6.473   9.673   0.626  0.6393  0.3864 -0.1378
 5654SOL    HW117540   6.421   9.632   0.696  1.1308  1.0280  0.6215
 5654SOL    HW217541   6.561   9.639   0.638  0.5200 -0.2949 -1.1007
 5655SOL     OW17542   4.494   6.681   8.161 -0.1243  0.2806 -0.8319
 5655SOL    HW117543   4.524   6.730   8.237 -0.5960  1.1394 -1.1911
 5655SOL    HW217544   4.553   6.708   8.090 -0.8674  0.9205 -1.2113
 5656SOL     OW17545   2.272   4.712   7.751  0.6609 -0.6253  0.3932
 5656SOL    HW117546   2.308   4.785   7.700  0.7197 -1.0663 -0.2030
 5656SOL    HW217547   2.181   4.706   7.723  0.4338 -0.2850  1.0206
 5657SOL     OW17548   9.790   8.545   9.166  0.0467 -0.4343  0.4814
 5657SOL    HW117549   9.843   8.472   9.197 -0.9981 -0.9778  1.0300
 5657SOL    HW217550   9.705   8.506   9.144  0.2333  0.1895 -1.6074
 5658SOL     OW17551   5.431   7.844   5.080 -0.0822 -0.0488  0.3158
 5658SOL    HW117552   5.413   7.765   5.029  1.6872 -0.1014 -0.2859
 5658SOL    HW217553   5.452   7.910   5.015 -1.6673  1.0063  0.8096
 5659SOL     OW17554   4.239   9.171   8.690 -0.4773  0.0292  0.0382
 5659SOL    HW117555   4.265   9.168   8.597  0.2969  1.4827  0.1718
 5659SOL    HW217556   4.221   9.080   8.712  1.1563 -0.6255 -1.0518
 5660SOL     OW17557   4.925   0.434   7.589 -0.2859 -0.1380 -0.2329
 5660SOL    HW117558   4.998   0.386   7.628 -0.1512 -2.3725 -2.8708
 5660SOL    HW217559   4.926   0.407   7.497 -2.3835  2.4160 -1.1350
 5661SOL     OW17560   5.586   2.204   3.425 -0.5483 -0.0654  0.0158
 5661SOL    HW117561   5.540   2.281   3.391 -2.1754 -1.3282 -0.7721
 5661SOL    HW217562   5.674   2.236   3.447 -1.0482  1.9029 -0.6839
 5662SOL     OW17563   9.787   7.162   1.842  0.2115 -0.2768 -0.0875
 5662SOL    HW117564   9.746   7.139   1.926 -1.8235  0.8744 -0.7005
 5662SOL    HW217565   9.733   7.117   1.777  0.7429  0.2079 -0.8709
 5663SOL     OW17566   9.108   4.649   4.490 -0.3371  0.8131  0.3993
 5663SOL    HW117567   9.117   4.668   4.397  0.2721  0.8405  0.4601
 5663SOL    HW217568   9.014   4.634   4.502 -0.2571 -0.5684 -0.4828
 5664SOL     OW17569   0.930   7.058   2.693 -0.0096  0.0814  0.0814
 5664SOL    HW117570   0.981   7.049   2.773 -0.4390  2.7287  0.7332
 5664SOL    HW217571   0.842   7.080   2.724 -0.4118  0.1766 -1.1054
 5665SOL     OW17572   3.337   2.407   7.213  0.1578  0.0966  0.1132
 5665SOL    HW117573   3.370   2.329   7.257  0.7907  0.8746  1.0595
 5665SOL    HW217574   3.392   2.416   7.135  0.1709 -0.3201  0.0724
 5666SOL     OW17575   3.850   9.083   3.890 -0.4553 -0.5981 -0.2549
 5666SOL    HW117576   3.805   8.999   3.895 -2.4495  0.2815 -1.8149
 5666SOL    HW217577   3.830   9.126   3.973 -1.7326 -0.6396 -0.5085
 5667SOL     OW17578   0.098   1.474   2.122  0.1121  0.0657 -0.7605
 5667SOL    HW117579   0.100   1.566   2.095 -0.5112  0.1889 -0.3896
 5667SOL    HW217580   0.191   1.450   2.129  0.2951  0.9726  0.1681
 5668SOL     OW17581   2.067   9.630   7.832 -0.5040 -0.3140 -0.2287
 5668SOL    HW117582   2.119   9.600   7.758 -0.6090  0.7181 -0.7343
 5668SOL    HW217583   2.088   9.568   7.902  0.7040 -0.4544 -0.6853
 5669SOL     OW17584   1.080   5.884   5.165  0.1058  0.1497  0.4262
 5669SOL    HW117585   1.072   5.838   5.082 -1.3611  0.4480  0.3800
 5669SOL    HW217586   1.143   5.954   5.147  1.6728 -1.2294  0.2635
 5670SOL     OW17587   5.782   8.216   6.661  0.7096 -0.4422  0.2127
 5670SOL    HW117588   5.855   8.248   6.713 -0.4094  0.7194  1.1514
 5670SOL    HW217589   5.705   8.228   6.717 -0.3499 -0.5120 -1.1646
 5671SOL     OW17590   5.633   2.645   7.215  0.1445  0.2890  0.0933
 5671SOL    HW117591   5.712   2.623   7.166 -1.0609 -1.2059 -1.2768
 5671SOL    HW217592   5.607   2.731   7.182 -0.1964 -0.3465 -1.3713
 5672SOL     OW17593   9.163   7.530   2.098 -0.3294  0.0445 -0.1414
 5672SOL    HW117594   9.071   7.546   2.119 -0.4434 -0.7626  0.0217
 5672SOL    HW217595   9.185   7.595   2.031 -0.6229  1.1594  0.8068
 5673SOL     OW17596   2.914   2.079   2.492  0.0008 -0.2570  0.1618
 5673SOL    HW117597   2.999   2.055   2.456  0.0968 -0.1742  0.3328
 5673SOL    HW217598   2.921   2.173   2.510  0.4568 -0.5480  1.7363
 5674SOL     OW17599   7.935   5.607   8.419 -0.5377  0.6962  0.5712
 5674SOL    HW117600   7.844   5.584   8.399 -0.3328  2.3083 -2.7757
 5674SOL    HW217601   7.929   5.661   8.498 -2.7996  2.5369 -0.7410
 5675SOL     OW17602   8.314   9.228   9.668 -0.0579  0.5767  0.9149
 5675SOL    HW117603   8.250   9.157   9.673  0.1469  0.2525 -0.6812
 5675SOL    HW217604   8.265   9.303   9.634  0.5553  0.0517 -1.2933
 5676SOL     OW17605   1.565   9.398   6.826 -0.1437 -0.3031  0.4058
 5676SOL    HW117606   1.644   9.348   6.807 -0.8731 -0.4961 -2.6435
 5676SOL    HW217607   1.519   9.346   6.892  1.0833 -1.4921  0.3668
 5677SOL     OW17608   6.956   7.745   7.825  0.3208 -0.3260 -0.3957
 5677SOL    HW117609   6.951   7.837   7.854 -0.8731 -0.0991 -1.2509
 5677SOL    HW217610   7.042   7.738   7.783  0.0014  0.7014 -1.2722
 5678SOL     OW17611   5.455   4.089   7.834  0.2823  0.7506  0.2365
 5678SOL    HW117612   5.495   4.023   7.778  1.3816  2.3114 -0.9271
 5678SOL    HW217613   5.381   4.123   7.784 -2.2293 -1.5901  2.0706
 5679SOL     OW17614   4.747   5.745   9.633  0.2667 -0.5661  0.1053
 5679SOL    HW117615   4.811   5.675   9.652  0.9722  0.6233  2.4091
 5679SOL    HW217616   4.801   5.821   9.613 -0.4994 -0.3152 -1.1166
 5680SOL     OW17617   7.619   5.911   5.113 -0.1051 -0.2726 -0.3665
 5680SOL    HW117618   7.648   5.897   5.023 -1.7726 -0.2425 -0.9415
 5680SOL    HW217619   7.553   5.980   5.107  0.7157  0.6912  1.0810
 5681SOL     OW17620   8.280   8.887   6.716  0.4025 -0.0854  0.2486
 5681SOL    HW117621   8.194   8.851   6.735 -0.0522  0.3073 -0.9581
 5681SOL    HW217622   8.330   8.875   6.797 -1.1582  0.8251  1.3956
 5682SOL     OW17623   4.214   4.606   6.931  0.0148 -0.3422 -0.0355
 5682SOL    HW117624   4.133   4.617   6.881  0.4807 -0.2156 -0.7873
 5682SOL    HW217625   4.190   4.549   7.004 -1.2157  1.3511  0.9339
 5683SOL     OW17626   2.961   0.110   0.700 -0.3281  0.3243  0.2201
 5683SOL    HW117627   2.948   0.084   0.791  0.5391 -0.3199  0.1796
 5683SOL    HW217628   2.904   0.185   0.688  1.7412  2.3620  2.1862
 5684SOL     OW17629   9.136   6.363   0.265  0.4259  0.2376  0.1403
 5684SOL    HW117630   9.069   6.350   0.332 -0.1911  1.9259 -0.1100
 5684SOL    HW217631   9.195   6.288   0.276 -0.5926 -0.4193  1.4411
 5685SOL     OW17632   2.477   7.159   1.153  0.1211  0.2427  0.2458
 5685SOL    HW117633   2.544   7.098   1.123  0.1462  0.8527 -0.9857
 5685SOL    HW217634   2.494   7.240   1.105 -1.9041  0.2052 -0.6403
 5686SOL     OW17635   4.317   6.161   7.578 -0.2233  0.8650 -1.0490
 5686SOL    HW117636   4.252   6.099   7.610  1.5302 -1.0011 -0.8967
 5686SOL    HW217637   4.269   6.216   7.516 -1.9615 -0.3787 -0.8900
 5687SOL     OW17638   6.389   3.599   9.212  0.5636 -1.0470  0.5462
 5687SOL    HW117639   6.420   3.621   9.300  0.7353 -0.4002  0.3278
 5687SOL    HW217640   6.464   3.616   9.155 -0.2067  0.7399 -0.0193
 5688SOL     OW17641   7.449   1.867   9.339 -0.3982 -0.5173 -0.2662
 5688SOL    HW117642   7.392   1.836   9.408  0.1924  1.6108  1.3040
 5688SOL    HW217643   7.475   1.955   9.367  3.6262 -1.3144 -0.8272
 5689SOL     OW17644   9.404   8.488   4.664  0.3840  0.2776 -0.0567
 5689SOL    HW117645   9.486   8.538   4.666  1.2761 -1.1257 -0.1240
 5689SOL    HW217646   9.364   8.510   4.580  1.2081  0.1933 -0.4816
 5690SOL     OW17647   4.984   7.117   0.001  0.2739  0.8132 -0.2263
 5690SOL    HW117648   5.062   7.140  -0.049  0.2432  2.1231  0.2850
 5690SOL    HW217649   5.007   7.139   0.091  0.4385 -1.7632  0.4465
 5691SOL     OW17650   7.581   3.400   5.139 -0.1121  0.3656 -0.1442
 5691SOL    HW117651   7.502   3.451   5.125 -1.1651 -0.8692  0.9585
 5691SOL    HW217652   7.585   3.387   5.234  1.2052  0.0563 -0.2116
 5692SOL     OW17653   0.425   2.243   2.869  0.5968 -0.0186 -0.3737
 5692SOL    HW117654   0.432   2.301   2.794  2.2424 -1.4972 -1.4417
 5692SOL    HW217655   0.461   2.293   2.942 -1.4277  1.5959 -0.3890
 5693SOL     OW17656   7.389   8.332   8.339  0.3444  0.5416 -0.6055
 5693SOL    HW117657   7.389   8.428   8.339 -1.0153  0.5669 -2.0764
 5693SOL    HW217658   7.450   8.309   8.410  0.0418  2.4754  0.3579
 5694SOL     OW17659   2.216   5.185   5.989  0.2452 -0.4662 -0.1509
 5694SOL    HW117660   2.194   5.227   5.906 -0.2084  0.2838  0.3398
 5694SOL    HW217661   2.232   5.093   5.966 -0.6421 -0.4379 -0.9572
 5695SOL     OW17662   3.713   6.104   9.781 -0.0228 -0.2698 -0.2701
 5695SOL    HW117663   3.727   6.118   9.875  0.2007  0.9045 -0.4586
 5695SOL    HW217664   3.712   6.009   9.770  1.0414 -0.4216  0.7718
 5696SOL     OW17665   0.159   2.144   2.789  0.1815 -1.0364 -0.0404
 5696SOL    HW117666   0.128   2.207   2.854  0.4130 -2.0630  1.0948
 5696SOL    HW217667   0.254   2.142   2.800  0.4864  0.3598 -1.9152
 5697SOL     OW17668   0.701   0.722   2.003 -0.2209 -0.2295 -0.4998
 5697SOL    HW117669   0.780   0.762   2.039  0.2100  1.0788 -2.6895
 5697SOL    HW217670   0.644   0.708   2.079  1.3659  0.5144  0.8894
 5698SOL     OW17671   7.922   9.636   3.126 -0.7495 -0.1962 -0.3051
 5698SOL    HW117672   7.888   9.674   3.207  0.2969 -0.3389  0.2221
 5698SOL    HW217673   7.858   9.570   3.101 -0.4643 -1.0366  1.1173
 5699SOL     OW17674   3.097   0.810   7.482  0.9480 -0.7559 -0.1944
 5699SOL    HW117675   3.069   0.900   7.493  0.2689 -0.9111 -0.5714
 5699SOL    HW217676   3.016   0.761   7.464  1.5760 -0.9395 -3.0609
 5700SOL     OW17677   7.300   7.814   9.519  0.3395 -0.6150  0.1031
 5700SOL    HW117678   7.233   7.829   9.452  0.7753 -0.3268 -0.2767
 5700SOL    HW217679   7.261   7.846   9.600 -0.3593 -1.3590  0.0673
 5701SOL     OW17680   7.696   2.640   6.046  0.2793 -0.3892 -0.3381
 5701SOL    HW117681   7.673   2.548   6.038 -3.1044  0.2836 -0.2755
 5701SOL    HW217682   7.661   2.666   6.131 -0.1952  1.2465 -0.9861
 5702SOL     OW17683   9.507   8.835   5.955  0.1012 -0.5448  0.0260
 5702SOL    HW117684   9.500   8.924   5.919  0.0861 -1.0981 -1.3859
 5702SOL    HW217685   9.428   8.790   5.925  0.1377 -1.0623  0.6803
 5703SOL     OW17686   3.932   5.936   4.905  0.3582  1.0644 -0.3416
 5703SOL    HW117687   3.850   5.972   4.873  1.6084  2.8711 -1.7387
 5703SOL    HW217688   3.987   6.012   4.923  1.7149 -0.0783  0.6572
 5704SOL     OW17689   6.793   0.811   1.753  0.0391 -0.2833  0.0780
 5704SOL    HW117690   6.784   0.897   1.794 -0.6010  0.6613 -1.8839
 5704SOL    HW217691   6.883   0.785   1.771  0.1908  0.7210  0.8767
 5705SOL     OW17692   1.388   2.166   6.264  0.4730  0.3601  0.4414
 5705SOL    HW117693   1.438   2.142   6.342 -0.0402  1.0360  0.9796
 5705SOL    HW217694   1.415   2.256   6.245  0.1836  0.3901  0.1645
 5706SOL     OW17695   1.842   7.685   2.200  0.5312 -0.4742  0.4958
 5706SOL    HW117696   1.780   7.645   2.139  0.6374  1.5808 -1.0681
 5706SOL    HW217697   1.800   7.677   2.286 -1.2940 -0.3351 -0.3314
 5707SOL     OW17698   0.332   3.304   3.836  0.1042  0.2311  0.1908
 5707SOL    HW117699   0.390   3.369   3.873  1.8578 -1.0749 -0.1297
 5707SOL    HW217700   0.378   3.271   3.759 -0.2013 -2.1138  0.9238
 5708SOL     OW17701   0.924   4.410   3.966 -0.3633 -0.0102  0.3514
 5708SOL    HW117702   0.960   4.458   4.041  0.0576 -1.3084  1.0041
 5708SOL    HW217703   1.001   4.391   3.911 -0.4938 -0.1844  0.2314
 5709SOL     OW17704   1.768   9.202   6.777 -0.2993 -0.1869 -0.7731
 5709SOL    HW117705   1.831   9.232   6.843 -1.8521  0.1652  0.6182
 5709SOL    HW217706   1.772   9.269   6.709 -0.8969  1.1398  0.4553
 5710SOL     OW17707   9.530   5.322   5.905  0.0030 -0.3083 -0.0160
 5710SOL    HW117708   9.584   5.265   5.849  0.7114  1.4732 -1.2386
 5710SOL    HW217709   9.588   5.345   5.978  0.3614  0.3280 -0.4963
 5711SOL     OW17710   4.412   7.768   3.024 -0.2247  0.1328 -0.7131
 5711SOL    HW117711   4.404   7.834   2.956  1.7741  2.1983  0.9392
 5711SOL    HW217712   4.485   7.796   3.078  0.1064 -2.9329  0.6856
 5712SOL     OW17713   2.512   3.649   4.164  0.2547 -0.1493  0.0015
 5712SOL    HW117714   2.460   3.655   4.244  2.0992 -0.1359  1.2699
 5712SOL    HW217715   2.553   3.736   4.156 -1.3898  0.5108 -2.0726
 5713SOL     OW17716   7.893   5.106   8.346  0.0368 -0.0574  0.1513
 5713SOL    HW117717   7.837   5.180   8.371 -1.2481 -0.3266 -1.6898
 5713SOL    HW217718   7.955   5.098   8.418 -0.0974  2.4771  0.6556
 5714SOL     OW17719   0.340   4.988   9.597 -0.3774  0.0178 -0.2178
 5714SOL    HW117720   0.417   4.930   9.602  0.0656  0.6419  0.2425
 5714SOL    HW217721   0.267   4.932   9.623  0.3478  0.2328  2.5511
 5715SOL     OW17722   8.091   4.434   7.881 -0.0106 -1.1414 -0.1094
 5715SOL    HW117723   7.996   4.436   7.873 -0.0164  0.6817  0.0246
 5715SOL    HW217724   8.107   4.442   7.975  0.2705 -0.4778 -0.2070
 5716SOL     OW17725   8.886   2.422   9.146 -0.2482 -0.1334 -0.2017
 5716SOL    HW117726   8.797   2.427   9.182 -0.9800  2.8287 -2.0102
 5716SOL    HW217727   8.909   2.514   9.127  2.4656 -0.9694 -1.5021
 5717SOL     OW17728   8.677   5.744   6.850 -0.8047 -0.7044 -0.0233
 5717SOL    HW117729   8.598   5.791   6.876 -1.4537 -1.9813  0.4349
 5717SOL    HW217730   8.749   5.801   6.876 -1.5498  0.9227 -1.3076
 5718SOL     OW17731   8.162   8.340   1.589 -0.1157  0.3556 -0.0086
 5718SOL    HW117732   8.257   8.353   1.586 -0.0959  0.3407  0.4973
 5718SOL    HW217733   8.134   8.350   1.498  0.3019  0.8841 -0.0851
 5719SOL     OW17734   7.694   5.670   4.149  0.0392 -0.0241  0.2969
 5719SOL    HW117735   7.658   5.715   4.225 -0.3997  1.2804 -0.6448
 5719SOL    HW217736   7.766   5.726   4.119 -1.1550  0.6512 -1.4884
 5720SOL     OW17737   0.031   5.688   4.341 -0.3569 -0.0796 -0.4508
 5720SOL    HW117738   0.002   5.650   4.258  0.0730 -0.3334 -0.4870
 5720SOL    HW217739   0.045   5.781   4.321  0.1053 -0.2135 -0.7542
 5721SOL     OW17740   4.374   5.303   8.189  0.5456 -0.0078  0.3326
 5721SOL    HW117741   4.384   5.211   8.165 -0.1892 -0.0391  0.1193
 5721SOL    HW217742   4.420   5.312   8.272  1.9189 -0.2225 -0.3874
 5722SOL     OW17743   3.195   0.121   3.578 -0.0109 -0.6321  0.2220
 5722SOL    HW117744   3.285   0.153   3.575 -0.4700  0.6961 -0.0657
 5722SOL    HW217745   3.173   0.103   3.486 -0.1930 -0.4860  0.2360
 5723SOL     OW17746   1.100   5.872   1.485  0.3662 -0.0049  0.2701
 5723SOL    HW117747   1.016   5.893   1.444  0.5098  1.0236  0.4845
 5723SOL    HW217748   1.144   5.816   1.421  0.3668  1.1490 -0.7608
 5724SOL     OW17749   3.050   1.564   1.575  0.1561 -0.1961 -0.2461
 5724SOL    HW117750   3.028   1.642   1.626  0.8252 -0.8028  1.0295
 5724SOL    HW217751   2.966   1.524   1.554 -0.1118 -0.6148  1.5113
 5725SOL     OW17752   6.875   8.860   5.740  0.4189  0.0117 -0.1360
 5725SOL    HW117753   6.818   8.842   5.815  0.7828  0.0138  0.1451
 5725SOL    HW217754   6.872   8.780   5.688 -0.4658  0.2971 -0.5432
 5726SOL     OW17755   4.746   1.692   7.409  0.5243 -0.1639 -0.2460
 5726SOL    HW117756   4.735   1.760   7.475 -0.2919 -0.0580 -0.4826
 5726SOL    HW217757   4.833   1.656   7.426  0.5262  0.2014  0.5653
 5727SOL     OW17758   2.001   9.471   6.314 -0.1568  0.5223  0.4371
 5727SOL    HW117759   1.989   9.379   6.336 -1.9390  0.7499  0.5745
 5727SOL    HW217760   1.926   9.493   6.258 -0.4267  2.1722  1.3629
 5728SOL     OW17761   3.534   0.932   9.728  0.2779 -0.0416  0.1763
 5728SOL    HW117762   3.467   0.894   9.671 -1.3077  0.0682  1.8455
 5728SOL    HW217763   3.484   0.974   9.798  2.0722  1.9020  0.3787
 5729SOL     OW17764   8.012   6.142   6.994 -0.0172 -0.0728 -0.8510
 5729SOL    HW117765   8.033   6.188   6.913 -2.5862  0.3550 -1.3596
 5729SOL    HW217766   7.979   6.211   7.053 -2.0085 -0.9017 -0.9189
 5730SOL     OW17767   6.841   9.362   4.953  0.2481  0.4019 -0.0404
 5730SOL    HW117768   6.806   9.360   5.042 -0.2247 -0.0498 -0.2273
 5730SOL    HW217769   6.764   9.379   4.897  1.0666  5.2519 -0.1264
 5731SOL     OW17770   1.300   7.593   0.048 -0.6030  0.6010 -0.2808
 5731SOL    HW117771   1.372   7.625  -0.007 -1.8766  0.4619 -2.1505
 5731SOL    HW217772   1.233   7.660   0.041 -1.1322  0.1572  0.4261
 5732SOL     OW17773   1.393   5.757   1.036 -0.3220 -0.5566 -0.0313
 5732SOL    HW117774   1.485   5.778   1.019  0.0066 -0.6384  1.4942
 5732SOL    HW217775   1.391   5.662   1.040 -0.2737 -0.5298  0.8596
 5733SOL     OW17776   5.192   8.755   1.146 -0.1367 -0.2878 -0.2899
 5733SOL    HW117777   5.143   8.832   1.176  1.8460  1.0826 -0.3893
 5733SOL    HW217778   5.233   8.721   1.226  0.6926  0.0474 -0.5645
 5734SOL     OW17779   0.281   9.749   7.221  0.3949  0.6851 -0.8141
 5734SOL    HW117780   0.350   9.707   7.272  1.3963 -0.7651 -3.1715
 5734SOL    HW217781   0.283   9.840   7.249  1.9226  0.2797  0.5854
 5735SOL     OW17782   4.509   4.565   6.849 -0.1107  0.4375  0.5671
 5735SOL    HW117783   4.435   4.571   6.909 -0.0929 -0.9641  0.7785
 5735SOL    HW217784   4.546   4.478   6.866  1.3463  0.9623  0.1870
 5736SOL     OW17785   2.058   2.324   9.542  0.6083 -0.0283  0.4179
 5736SOL    HW117786   2.081   2.304   9.633  0.1655  0.3281  0.6062
 5736SOL    HW217787   2.035   2.239   9.505  1.0731 -0.2206  0.5543
 5737SOL     OW17788   7.004   5.567   7.148  0.3699 -0.3367 -0.0383
 5737SOL    HW117789   6.972   5.501   7.210  1.2969  0.7183  1.6283
 5737SOL    HW217790   7.100   5.562   7.154  0.4632  0.6179 -0.4662
 5738SOL     OW17791   7.674   7.921   0.986  0.0877  0.2390  0.0308
 5738SOL    HW117792   7.757   7.941   1.028  0.7527  0.7657 -1.4533
 5738SOL    HW217793   7.698   7.879   0.903 -1.0423  1.6220 -1.0626
 5739SOL     OW17794   0.172   4.153   0.759 -0.3144 -0.5181  0.2562
 5739SOL    HW117795   0.171   4.123   0.850  1.5568 -0.5421  0.3080
 5739SOL    HW217796   0.258   4.126   0.726 -0.6042  0.2961 -1.2529
 5740SOL     OW17797   3.922   2.387   5.827  0.0128 -0.2153  0.0457
 5740SOL    HW117798   3.913   2.292   5.827  0.7867 -0.3049 -0.9573
 5740SOL    HW217799   3.967   2.407   5.745  1.6186  0.8444  1.1218
 5741SOL     OW17800   1.595   6.770   8.361 -0.2435  0.1149 -0.0199
 5741SOL    HW117801   1.574   6.808   8.276 -1.9934  1.0904  0.7777
 5741SOL    HW217802   1.679   6.807   8.385 -0.6708  1.4222 -0.4612
 5742SOL     OW17803   2.952   9.004   8.405  0.5518 -0.3470 -0.0269
 5742SOL    HW117804   3.035   8.976   8.366  0.0237 -0.6638 -0.9659
 5742SOL    HW217805   2.890   9.003   8.332  0.2515  2.2794  0.0993
 5743SOL     OW17806   0.110   9.085   2.147  0.2493 -0.1158 -0.8338
 5743SOL    HW117807   0.039   9.043   2.097 -0.9765  0.9664 -0.0662
 5743SOL    HW217808   0.152   9.144   2.084 -0.7336  0.6058 -0.8344
 5744SOL     OW17809   2.734   1.747   2.403  0.2021  0.9541 -0.3581
 5744SOL    HW117810   2.688   1.663   2.401  1.2702  0.3159  0.6264
 5744SOL    HW217811   2.752   1.767   2.312 -0.8052  0.5416 -0.6581
 5745SOL     OW17812   5.497   0.949   8.380  0.1224  0.5241  0.0852
 5745SOL    HW117813   5.587   0.924   8.400  0.5495  0.7136 -1.4854
 5745SOL    HW217814   5.503   1.000   8.299 -1.5348 -0.5490 -0.7715
 5746SOL     OW17815   0.456   0.303   0.809 -0.1577 -0.3721  0.7192
 5746SOL    HW117816   0.463   0.356   0.889 -1.4129 -1.4034  1.5658
 5746SOL    HW217817   0.403   0.357   0.749  0.3814  0.2079  0.7582
 5747SOL     OW17818   0.781   5.913   9.057  0.0700  0.4896  0.1478
 5747SOL    HW117819   0.795   5.977   8.988  1.9630 -0.6334 -0.5880
 5747SOL    HW217820   0.806   5.960   9.138  0.6461  0.9334 -0.2771
 5748SOL     OW17821   6.078   1.270   4.826  0.3861  0.4168  0.2613
 5748SOL    HW117822   6.065   1.196   4.768 -2.3595  2.0004 -1.3371
 5748SOL    HW217823   6.103   1.231   4.910 -3.6295 -2.6029  0.3477
 5749SOL     OW17824   4.905   6.407   0.056  0.3372  0.0749  0.0627
 5749SOL    HW117825   4.997   6.434   0.049  0.3274  0.2627  0.5853
 5749SOL    HW217826   4.855   6.485   0.031  0.3137 -0.2651 -1.0094
 5750SOL     OW17827   0.563   1.125   0.650  0.1680  0.7358 -0.5525
 5750SOL    HW117828   0.630   1.173   0.602 -1.2258  1.6087 -1.7247
 5750SOL    HW217829   0.481   1.167   0.624 -0.6976  1.4504  2.7908
 5751SOL     OW17830   5.585   0.352   2.684 -0.1623 -0.3459 -0.3295
 5751SOL    HW117831   5.648   0.282   2.664 -0.6605 -1.3605  1.4272
 5751SOL    HW217832   5.512   0.337   2.624 -0.4474 -1.6174  0.3086
 5752SOL     OW17833   1.383   8.068   4.562  0.1699  0.2639  0.4041
 5752SOL    HW117834   1.307   8.048   4.507 -0.8616  0.4131  1.7240
 5752SOL    HW217835   1.458   8.036   4.512 -0.8207 -0.5279 -0.6283
 5753SOL     OW17836   5.436   6.439   2.375 -0.3539 -0.3065  0.3297
 5753SOL    HW117837   5.392   6.488   2.445 -1.1575 -0.9946  0.3149
 5753SOL    HW217838   5.448   6.351   2.410  2.4638  0.1991  0.9483
 5754SOL     OW17839   4.320   6.746   7.718 -0.1906  0.2870  0.3726
 5754SOL    HW117840   4.396   6.800   7.742  0.6706 -0.5111 -0.4651
 5754SOL    HW217841   4.251   6.775   7.777 -0.3501  3.5788 -1.2079
 5755SOL     OW17842   6.173   2.554   0.790  0.1636 -0.1357 -0.6210
 5755SOL    HW117843   6.167   2.573   0.697 -1.8853  0.5441 -0.4122
 5755SOL    HW217844   6.183   2.458   0.794 -0.3106 -0.2362 -1.5460
 5756SOL     OW17845   7.524   5.525   1.499  0.0386 -0.4812 -0.0862
 5756SOL    HW117846   7.459   5.571   1.553  0.6611 -0.0177  0.2876
 5756SOL    HW217847   7.581   5.483   1.563  1.6673  1.2776 -0.3021
 5757SOL     OW17848   2.924   0.171   9.074  0.4429 -0.6397 -0.1397
 5757SOL    HW117849   2.934   0.099   9.012 -1.4178 -0.5389 -0.6158
 5757SOL    HW217850   2.833   0.165   9.104  0.4092  1.1614  0.2519
 5758SOL     OW17851   1.797   0.462   6.459 -0.2719 -0.2790 -0.0681
 5758SOL    HW117852   1.867   0.506   6.410 -1.5727  0.5798 -1.2481
 5758SOL    HW217853   1.767   0.393   6.400 -1.9413  0.8467 -0.6063
 5759SOL     OW17854   5.470   5.263   2.513  0.4832  0.1890 -0.3336
 5759SOL    HW117855   5.501   5.329   2.575 -1.5487  1.5504 -0.6583
 5759SOL    HW217856   5.450   5.186   2.567  0.3643  0.7715  0.4608
 5760SOL     OW17857   1.156   9.935   4.779  0.1017  0.0778  0.1700
 5760SOL    HW117858   1.127   9.952   4.689  0.7193  0.6848  0.0817
 5760SOL    HW217859   1.236   9.883   4.769  0.0032 -0.1157  0.3820
 5761SOL     OW17860   1.766   2.906   3.408 -0.0404 -0.3891 -0.3459
 5761SOL    HW117861   1.756   2.824   3.361 -1.3554 -0.3000 -0.2566
 5761SOL    HW217862   1.690   2.911   3.466  1.2446 -0.2590  1.4576
 5762SOL     OW17863   4.743   1.364   8.971  0.3539 -0.3138  0.0506
 5762SOL    HW117864   4.675   1.301   8.996  0.3757 -0.6400 -0.6940
 5762SOL    HW217865   4.812   1.310   8.932  0.7820  0.0798  0.2621
 5763SOL     OW17866   5.062   0.815   2.732 -0.5624  0.1563 -0.0506
 5763SOL    HW117867   5.091   0.781   2.648 -0.0507  0.0456  0.1675
 5763SOL    HW217868   5.111   0.765   2.797 -1.1218  0.0827  0.3237
 5764SOL     OW17869   5.256   2.805   9.305 -0.3656  0.4473  0.3304
 5764SOL    HW117870   5.292   2.852   9.381  1.1562  0.2936 -0.2520
 5764SOL    HW217871   5.325   2.811   9.239 -0.6587 -1.4890 -0.2126
 5765SOL     OW17872   8.113   3.750   7.857 -0.0614 -0.8463 -0.0238
 5765SOL    HW117873   8.022   3.774   7.874  0.3543  0.4322  0.5218
 5765SOL    HW217874   8.112   3.655   7.847 -1.5162 -0.8097 -0.4403
 5766SOL     OW17875   4.942   8.223   7.592  0.2422 -0.0609  0.3151
 5766SOL    HW117876   5.007   8.217   7.522 -1.2758  0.4692 -1.2099
 5766SOL    HW217877   4.956   8.144   7.645  1.5876 -0.3584 -0.4476
 5767SOL     OW17878   0.606   5.235   1.351 -0.1345  0.6961  0.2079
 5767SOL    HW117879   0.685   5.184   1.370 -0.4204  0.6561  1.3721
 5767SOL    HW217880   0.535   5.184   1.391 -0.7923  0.6102 -1.0205
 5768SOL     OW17881   5.735   6.301   3.579 -0.1790  0.0403  0.2161
 5768SOL    HW117882   5.693   6.321   3.662 -0.9267  0.7234 -0.3074
 5768SOL    HW217883   5.782   6.219   3.595 -1.5469 -0.6625  0.8952
 5769SOL     OW17884   4.067   9.708   5.219  0.0808  0.0342  0.0134
 5769SOL    HW117885   4.108   9.646   5.159 -0.7470  0.2711 -0.8198
 5769SOL    HW217886   4.139   9.760   5.254  0.7135 -0.9640  0.2300
 5770SOL     OW17887   3.075   3.087   9.150  0.5354 -0.3173 -0.4335
 5770SOL    HW117888   3.082   3.090   9.246 -0.9011 -1.3240 -0.2679
 5770SOL    HW217889   3.059   2.995   9.130  0.7674 -0.1084 -1.6531
 5771SOL     OW17890   1.836   0.420   6.916  0.3679 -0.0151  0.0763
 5771SOL    HW117891   1.839   0.334   6.875 -0.9954  0.0713 -0.2366
 5771SOL    HW217892   1.831   0.402   7.010 -1.7324 -0.3503 -0.0615
 5772SOL     OW17893   4.694   2.257   0.520 -0.1573  0.1967  0.1509
 5772SOL    HW117894   4.648   2.334   0.486  2.1770  2.0899  0.9909
 5772SOL    HW217895   4.641   2.228   0.594 -0.5721  1.6674  0.4636
 5773SOL     OW17896   0.291   2.227   3.815 -0.0945 -0.7032 -0.0364
 5773SOL    HW117897   0.368   2.242   3.760 -0.1393 -0.7613 -0.1149
 5773SOL    HW217898   0.327   2.204   3.901 -0.0072  0.6276  0.3209
 5774SOL     OW17899   6.193   3.067   0.649  0.1923  0.2021 -0.1651
 5774SOL    HW117900   6.147   3.037   0.728  0.1973 -1.9383 -0.8982
 5774SOL    HW217901   6.260   3.126   0.681  0.1287 -0.5380  1.4339
 5775SOL     OW17902   1.892   6.308   8.609 -0.6580 -0.6428  0.1086
 5775SOL    HW117903   1.825   6.373   8.629 -1.4987 -1.3453 -0.3575
 5775SOL    HW217904   1.975   6.356   8.615 -0.9968 -0.2418  2.9235
 5776SOL     OW17905   1.975   2.950   6.851 -0.2407 -0.4652 -0.1408
 5776SOL    HW117906   1.955   3.010   6.779  0.2668 -1.8336 -1.4718
 5776SOL    HW217907   2.069   2.959   6.865 -0.1074 -1.1439 -0.5504
 5777SOL     OW17908   4.286   7.500   3.098  0.6263  0.1647 -0.0124
 5777SOL    HW117909   4.332   7.583   3.088 -0.3947  0.9721  1.5563
 5777SOL    HW217910   4.194   7.523   3.084  0.0926 -0.2477  2.3564
 5778SOL     OW17911   5.572   1.811   7.288 -0.1685  0.4745  0.2229
 5778SOL    HW117912   5.650   1.771   7.250 -2.3447 -1.5724 -2.5122
 5778SOL    HW217913   5.505   1.743   7.285 -2.4638  2.5127  1.1710
 5779SOL     OW17914   4.695   6.769   7.998 -0.1494  0.1310  0.7724
 5779SOL    HW117915   4.776   6.813   8.025  0.4179  0.1083 -0.7915
 5779SOL    HW217916   4.710   6.746   7.906 -1.9406  0.1328  0.4507
 5780SOL     OW17917   4.053   3.320   8.151  0.3678 -0.3305 -0.1154
 5780SOL    HW117918   4.089   3.232   8.160 -0.7004 -0.7630 -0.0356
 5780SOL    HW217919   4.058   3.339   8.057  0.9213 -0.3234 -0.0907
 5781SOL     OW17920   8.296   4.263   9.291  0.5261  0.3993 -0.0047
 5781SOL    HW117921   8.368   4.268   9.355  1.6787 -0.1851 -1.1939
 5781SOL    HW217922   8.287   4.352   9.258  1.0242  0.3999 -0.1573
 5782SOL     OW17923   2.304   4.342   5.235 -0.1698 -0.0509 -0.1038
 5782SOL    HW117924   2.382   4.357   5.289  0.2642  1.2119 -1.0444
 5782SOL    HW217925   2.260   4.427   5.232 -2.7243 -1.1313  2.0392
 5783SOL     OW17926   5.523   3.590   5.028 -0.5563  0.5454 -0.0143
 5783SOL    HW117927   5.576   3.559   5.102  1.1512 -0.7688 -1.6884
 5783SOL    HW217928   5.534   3.685   5.030  3.4294  0.3058 -1.2052
 5784SOL     OW17929   2.341   9.485   9.638  0.2645 -0.1842  0.2012
 5784SOL    HW117930   2.422   9.503   9.685  0.8657 -0.5471 -0.6739
 5784SOL    HW217931   2.366   9.484   9.546 -1.1597  1.9430 -0.2788
 5785SOL     OW17932   4.558   6.878   1.026 -0.3290 -0.0816 -0.8248
 5785SOL    HW117933   4.491   6.809   1.033  0.2693 -1.0177 -3.1201
 5785SOL    HW217934   4.619   6.860   1.097 -1.2722 -0.6627 -0.1375
 5786SOL     OW17935   0.820   8.060   1.371 -0.1695  0.0197  0.2646
 5786SOL    HW117936   0.847   8.152   1.370  0.5014 -0.1743 -0.0583
 5786SOL    HW217937   0.814   8.037   1.278  2.4581 -1.0447  0.2750
 5787SOL     OW17938   7.197   5.633   3.748 -0.2090  0.5552  0.0993
 5787SOL    HW117939   7.273   5.659   3.695 -0.1879  2.1575  0.8585
 5787SOL    HW217940   7.233   5.579   3.817 -0.0432 -0.3385 -0.6647
 5788SOL     OW17941   7.505   3.475   9.722 -0.2416 -0.2998  0.1762
 5788SOL    HW117942   7.463   3.534   9.659 -1.4598 -0.2532  1.0096
 5788SOL    HW217943   7.518   3.394   9.674  3.0145  1.0370 -1.5588
 5789SOL     OW17944   4.028   3.322   2.362 -0.3642  0.0718  0.7965
 5789SOL    HW117945   4.115   3.360   2.370 -0.0517 -0.9022  2.3338
 5789SOL    HW217946   3.972   3.396   2.338  0.7893  0.8068  0.3114
 5790SOL     OW17947   3.358   2.424   0.865 -0.3446 -1.1043  0.3915
 5790SOL    HW117948   3.450   2.443   0.847 -0.3796 -1.5876 -0.3240
 5790SOL    HW217949   3.357   2.395   0.957 -0.4512  3.4907  2.1127
 5791SOL     OW17950   8.238   2.924   7.410  1.0275  0.1219  0.0020
 5791SOL    HW117951   8.198   2.933   7.497  0.4008  0.7114 -0.3488
 5791SOL    HW217952   8.181   2.863   7.364 -0.4095  2.1364 -1.0306
 5792SOL     OW17953   7.900   8.021   5.740 -0.3106  0.0985 -0.2269
 5792SOL    HW117954   7.887   8.019   5.835 -0.8335 -2.1317 -0.2996
 5792SOL    HW217955   7.812   8.016   5.703 -0.0346 -1.0530 -0.7830
 5793SOL     OW17956   0.386   4.575   6.649  0.1081  0.2018  0.1349
 5793SOL    HW117957   0.397   4.481   6.664 -1.5174 -0.1472 -0.5782
 5793SOL    HW217958   0.412   4.616   6.731  2.1950 -0.7424 -0.0037
 5794SOL     OW17959   6.633   6.509   1.889 -0.0469 -0.0428 -0.2690
 5794SOL    HW117960   6.620   6.472   1.802 -1.5389  1.6618 -0.8263
 5794SOL    HW217961   6.610   6.438   1.949  0.0826 -0.9393 -1.2400
 5795SOL     OW17962   3.570   5.997   8.498 -0.0434 -0.1223  0.2390
 5795SOL    HW117963   3.624   6.076   8.503 -1.8489  1.1157  1.5719
 5795SOL    HW217964   3.534   5.999   8.409 -0.2254  0.6850  0.3201
 5796SOL     OW17965   7.915   5.373   1.772 -0.7018 -0.3483 -0.3408
 5796SOL    HW117966   7.938   5.283   1.750 -0.3934 -0.5333  0.6778
 5796SOL    HW217967   7.952   5.387   1.859 -0.1810  0.9812 -0.7444
 5797SOL     OW17968   2.159   4.502   7.536 -0.6283 -0.0684 -0.0013
 5797SOL    HW117969   2.148   4.589   7.572  1.1990  0.6392 -0.9917
 5797SOL    HW217970   2.242   4.507   7.487 -0.9170 -2.1054 -0.7928
 5798SOL     OW17971   8.364   5.341   3.999 -0.4255 -0.3732  0.1567
 5798SOL    HW117972   8.444   5.394   3.995 -0.7557  0.1263  0.0981
 5798SOL    HW217973   8.303   5.385   3.940 -0.4288 -1.2970 -0.5379
 5799SOL     OW17974   4.185   5.108   3.257  0.0360  0.3037  0.5764
 5799SOL    HW117975   4.148   5.021   3.245 -1.1135  0.8898 -0.2680
 5799SOL    HW217976   4.213   5.109   3.349 -0.2412 -0.8363  0.6883
 5800SOL     OW17977   0.501   2.225   4.439 -0.4626 -0.1999  0.0714
 5800SOL    HW117978   0.560   2.232   4.514 -1.0539  1.7094  0.4179
 5800SOL    HW217979   0.536   2.287   4.375 -2.0514  0.9838  0.2965
 5801SOL     OW17980   9.298   8.801   7.088 -0.2088 -0.3787  0.1410
 5801SOL    HW117981   9.206   8.780   7.104 -0.4713 -0.0371 -0.8350
 5801SOL    HW217982   9.295   8.868   7.020  0.7089  0.8204  1.2336
 5802SOL     OW17983   3.461   6.108   4.149 -0.3323  0.2279 -0.2410
 5802SOL    HW117984   3.478   6.166   4.223  0.4669  0.1771 -0.3806
 5802SOL    HW217985   3.493   6.157   4.073  0.2253 -0.3367 -0.3769
 5803SOL     OW17986   9.421   5.996   7.229 -0.3880  0.3091 -0.2277
 5803SOL    HW117987   9.382   5.922   7.276  0.9387  0.1505  0.6667
 5803SOL    HW217988   9.496   5.959   7.183 -0.7051  0.7902 -1.1506
 5804SOL     OW17989   6.611   1.435   6.662  0.2812 -0.2594 -0.4428
 5804SOL    HW117990   6.545   1.383   6.708 -0.7893  1.5522  0.1741
 5804SOL    HW217991   6.625   1.511   6.718  0.9353  0.6824 -1.8352
 5805SOL     OW17992   3.593   8.667   8.759 -0.2900  0.6899  0.5704
 5805SOL    HW117993   3.595   8.762   8.747 -0.8989  0.7155  0.6156
 5805SOL    HW217994   3.506   8.650   8.795 -0.4820  0.0290 -0.1698
 5806SOL     OW17995   4.762   2.473   8.031 -0.5284  0.1074 -0.4106
 5806SOL    HW117996   4.823   2.426   7.974 -0.4380  0.5420 -0.6775
 5806SOL    HW217997   4.812   2.492   8.110  0.0694  1.5258 -1.1090
 5807SOL     OW17998   6.007   9.464   4.087  0.2339 -0.5807 -1.2445
 5807SOL    HW117999   6.002   9.424   4.174  0.3507 -1.2264 -1.5257
 5807SOL    HW218000   6.013   9.558   4.104  1.4157 -0.7640 -0.5043
 5808SOL     OW18001   0.442   1.470   7.672  0.6242 -0.2185 -0.4718
 5808SOL    HW118002   0.463   1.559   7.645  0.2074 -0.2657 -0.9822
 5808SOL    HW218003   0.358   1.477   7.717 -0.7881 -0.6701 -2.8328
 5809SOL     OW18004   5.781   0.125   9.662 -0.5884  0.6711  0.1740
 5809SOL    HW118005   5.718   0.055   9.682 -0.2698  0.1395 -0.6571
 5809SOL    HW218006   5.728   0.205   9.663 -0.8626  0.4992  1.6394
 5810SOL     OW18007   5.834   8.980   5.323  0.2945  0.0904 -0.6025
 5810SOL    HW118008   5.926   8.998   5.308  0.5172  0.5872  1.1855
 5810SOL    HW218009   5.799   9.059   5.364 -1.1392  0.2197 -1.9456
 5811SOL     OW18010   8.908   7.769   4.148  0.2821 -0.2730  0.4852
 5811SOL    HW118011   8.833   7.718   4.117 -0.9241  2.0292 -0.7170
 5811SOL    HW218012   8.868   7.845   4.191  1.9716 -0.6353  2.9264
 5812SOL     OW18013   6.264   5.490   9.300 -0.1524 -0.2204  0.1268
 5812SOL    HW118014   6.213   5.567   9.273 -0.1999 -0.4576 -0.4833
 5812SOL    HW218015   6.302   5.515   9.384 -1.1815  0.0084  0.5398
 5813SOL     OW18016   0.506   6.292   6.152 -0.2387  0.0303  0.8500
 5813SOL    HW118017   0.565   6.324   6.084 -0.6310  1.2047  1.0338
 5813SOL    HW218018   0.544   6.208   6.179  0.3496 -0.0788 -0.2632
 5814SOL     OW18019   9.785   6.933   0.086 -0.2539  0.0977 -0.1951
 5814SOL    HW118020   9.842   6.884   0.146 -0.7358 -0.9899 -0.5888
 5814SOL    HW218021   9.733   6.865   0.042 -3.1515  1.0895  1.4131
 5815SOL     OW18022   8.069   8.678   0.714 -1.4518  0.2480  0.1752
 5815SOL    HW118023   7.987   8.682   0.763 -0.5413 -1.1553  1.9297
 5815SOL    HW218024   8.107   8.594   0.738  0.8161  1.1350 -0.0901
 5816SOL     OW18025   2.483   8.518   7.721  0.1012 -0.2783  0.7009
 5816SOL    HW118026   2.403   8.568   7.713  0.3195 -0.0115  0.0850
 5816SOL    HW218027   2.523   8.548   7.802  0.1904  0.4887  0.3763
 5817SOL     OW18028   1.827   9.874   1.817 -0.6255  0.2425 -0.0951
 5817SOL    HW118029   1.890   9.866   1.889 -0.9942 -0.6454  0.1422
 5817SOL    HW218030   1.876   9.846   1.739 -0.6295 -0.1617  0.0437
 5818SOL     OW18031   0.972   4.565   3.688  0.3866  0.3794  0.0949
 5818SOL    HW118032   0.935   4.599   3.606 -0.4956 -2.1367 -0.6438
 5818SOL    HW218033   0.919   4.605   3.757 -0.2659  0.8883 -0.6853
 5819SOL     OW18034   4.131   5.437   5.420 -0.2604  0.0397 -0.3503
 5819SOL    HW118035   4.073   5.465   5.490 -1.5500 -0.9105 -1.0081
 5819SOL    HW218036   4.151   5.517   5.372 -0.6087  0.4575  0.1930
 5820SOL     OW18037   9.305   0.965   1.781  0.3007 -0.3438  0.6295
 5820SOL    HW118038   9.313   0.919   1.698 -0.4391  0.6321 -0.0122
 5820SOL    HW218039   9.390   1.005   1.796  0.4236 -0.4958  0.3205
 5821SOL     OW18040   4.920   1.213   3.417  0.1218 -0.6053  0.5714
 5821SOL    HW118041   4.899   1.200   3.325  0.7398 -0.7446  0.4523
 5821SOL    HW218042   4.943   1.126   3.449 -1.6502 -0.8714  1.2657
 5822SOL     OW18043   5.460   8.596   8.360 -1.1320 -0.0820  0.1326
 5822SOL    HW118044   5.468   8.634   8.272  0.8443 -1.8344 -0.5190
 5822SOL    HW218045   5.406   8.518   8.348 -1.7032  0.2121  0.6978
 5823SOL     OW18046   5.741   2.195   9.762  0.9760 -0.0009  0.1783
 5823SOL    HW118047   5.826   2.181   9.720  1.5865  1.6459  0.7547
 5823SOL    HW218048   5.739   2.289   9.781 -1.9907  0.4897 -1.9354
 5824SOL     OW18049   4.593   1.596   2.568  0.1611 -0.1145 -0.2840
 5824SOL    HW118050   4.666   1.534   2.576 -1.5440 -2.3122 -0.7652
 5824SOL    HW218051   4.569   1.592   2.476  0.7874  2.3202 -0.6258
 5825SOL     OW18052   0.854   3.303   1.190 -0.4218  0.3228  0.4253
 5825SOL    HW118053   0.876   3.229   1.247  1.0549 -1.0003 -1.7197
 5825SOL    HW218054   0.813   3.367   1.249  0.6339 -1.1042  2.8712
 5826SOL     OW18055   1.133   0.305   8.212  0.3027  0.0599  0.1853
 5826SOL    HW118056   1.188   0.337   8.141  0.4839  0.4779  0.5145
 5826SOL    HW218057   1.043   0.319   8.181  0.3801  0.0259 -0.0571
 5827SOL     OW18058   2.441   1.611   5.565  0.3291  0.2251  0.0193
 5827SOL    HW118059   2.432   1.615   5.661  0.7795 -1.0493  0.1363
 5827SOL    HW218060   2.352   1.623   5.532 -0.2664 -1.8570  0.7219
 5828SOL     OW18061   1.524   3.982   4.009  0.0244 -0.2453  0.5794
 5828SOL    HW118062   1.455   4.012   3.951  1.6631  1.4225 -0.6268
 5828SOL    HW218063   1.549   3.896   3.975  0.3666  0.3330 -0.6883
 5829SOL     OW18064   6.121   5.570   8.599  0.1164 -0.1912 -0.2211
 5829SOL    HW118065   6.213   5.566   8.624 -0.3125  0.5410  1.6802
 5829SOL    HW218066   6.078   5.613   8.673 -1.9587 -1.6669 -0.4659
 5830SOL     OW18067   7.730   6.563   1.817 -0.3999  0.2474 -0.3811
 5830SOL    HW118068   7.744   6.515   1.735 -1.7698 -1.3569  0.2672
 5830SOL    HW218069   7.636   6.557   1.833 -0.2073  0.7912  1.1688
 5831SOL     OW18070   4.151   3.260   7.175  0.0311 -0.0793  0.2250
 5831SOL    HW118071   4.164   3.345   7.218 -0.2120 -0.0583  0.2594
 5831SOL    HW218072   4.184   3.196   7.237  0.1602 -0.0133  0.2245
 5832SOL     OW18073   7.813   6.485   2.812 -0.3591 -0.3387 -0.0032
 5832SOL    HW118074   7.718   6.487   2.799 -0.0367 -0.2871 -2.9186
 5832SOL    HW218075   7.846   6.430   2.741  1.9213  0.7484  0.1318
 5833SOL     OW18076   3.626   6.204   1.801  0.1547  0.1265 -0.5787
 5833SOL    HW118077   3.692   6.137   1.784  0.2179 -0.0432  0.3077
 5833SOL    HW218078   3.626   6.258   1.722  3.5266  1.9734  0.4643
 5834SOL     OW18079   5.429   2.458   2.687  0.3682  0.3113  0.1001
 5834SOL    HW118080   5.365   2.466   2.615 -1.2542  2.2216  1.6310
 5834SOL    HW218081   5.396   2.386   2.740  0.8741 -0.2716 -0.3491
 5835SOL     OW18082   5.867   5.323   7.706 -0.0396  0.5744 -0.1261
 5835SOL    HW118083   5.886   5.231   7.690 -0.3716  0.4799  0.0296
 5835SOL    HW218084   5.874   5.334   7.800  0.4305  0.8085 -0.1816
 5836SOL     OW18085   3.726   6.427   2.402  0.5088 -0.3330  0.2897
 5836SOL    HW118086   3.772   6.344   2.388  1.1699 -0.1107  1.0878
 5836SOL    HW218087   3.673   6.413   2.480  0.0863 -0.2104  0.0325
 5837SOL     OW18088   9.139   9.476   7.811  0.7553  0.0985 -0.1165
 5837SOL    HW118089   9.172   9.565   7.826  0.0625  0.7134 -1.9250
 5837SOL    HW218090   9.064   9.488   7.752  0.0823 -1.6229  0.3403
 5838SOL     OW18091   4.558   7.763   7.633  0.0883 -0.2227 -0.5694
 5838SOL    HW118092   4.547   7.679   7.588  0.3034  0.1360 -1.3097
 5838SOL    HW218093   4.476   7.776   7.681  0.0863 -0.8884 -0.3868
 5839SOL     OW18094   5.781   4.047   6.848  0.2046  0.2721 -0.1196
 5839SOL    HW118095   5.783   4.142   6.853  0.5894  0.2190  0.8322
 5839SOL    HW218096   5.873   4.021   6.842  0.0658 -0.0011 -1.5750
 5840SOL     OW18097   6.607   7.158   2.488 -0.3201 -0.5854 -0.1598
 5840SOL    HW118098   6.697   7.166   2.457 -0.3558 -0.7895 -0.3179
 5840SOL    HW218099   6.615   7.137   2.581 -0.2192  1.3244  0.3127
 5841SOL     OW18100   5.762   2.513   0.477 -0.5263 -0.0663 -0.0979
 5841SOL    HW118101   5.760   2.565   0.397  0.0291 -0.1691 -0.1806
 5841SOL    HW218102   5.743   2.423   0.448  1.8369 -0.5028 -0.4489
 5842SOL     OW18103   7.258   1.957   8.175 -0.0907 -0.2485  0.0267
 5842SOL    HW118104   7.303   2.037   8.146  1.7980 -1.0572  0.5795
 5842SOL    HW218105   7.249   1.968   8.269  0.5992 -0.8581  0.1745
 5843SOL     OW18106   7.134   7.518   6.535  0.3482  0.3102  0.2498
 5843SOL    HW118107   7.200   7.553   6.595  0.4679  0.6399 -0.0688
 5843SOL    HW218108   7.068   7.587   6.528 -0.0403 -0.0249  0.5792
 5844SOL     OW18109   7.775   7.834   9.117  0.1408 -0.5301  0.0692
 5844SOL    HW118110   7.863   7.853   9.149 -0.5609  0.6291  1.4646
 5844SOL    HW218111   7.758   7.903   9.053  0.3297 -0.8880 -0.3672
 5845SOL     OW18112   0.056   5.252   3.787 -0.1221  0.6000  0.4705
 5845SOL    HW118113   0.093   5.335   3.756  1.0551  0.7324  2.0987
 5845SOL    HW218114   0.111   5.185   3.748  1.5094  0.7731  2.3308
 5846SOL     OW18115   8.818   1.702   0.502  0.2966 -0.4824 -0.4076
 5846SOL    HW118116   8.730   1.666   0.487 -0.1282  0.3816 -0.1084
 5846SOL    HW218117   8.855   1.646   0.570 -0.0986 -0.7440 -0.4005
 5847SOL     OW18118   7.613   1.871   3.549 -0.0456 -0.0101  0.3267
 5847SOL    HW118119   7.663   1.945   3.582  1.8656 -1.5266  1.0298
 5847SOL    HW218120   7.533   1.871   3.601  0.9668  0.2356  1.9474
 5848SOL     OW18121   8.538   6.963   3.075  0.3329 -0.4536  0.1220
 5848SOL    HW118122   8.448   6.966   3.106  0.0570 -2.8705 -0.2243
 5848SOL    HW218123   8.591   6.963   3.156 -0.0129 -0.0217  0.3521
 5849SOL     OW18124   0.115   7.110   8.809 -0.3041 -0.3365  0.6913
 5849SOL    HW118125   0.039   7.155   8.774 -0.8445  0.0594  2.2859
 5849SOL    HW218126   0.183   7.177   8.813  0.4935 -0.9049 -1.6189
 5850SOL     OW18127   5.591   6.972   7.938 -0.1106  0.0676 -0.7045
 5850SOL    HW118128   5.671   6.973   7.887  0.1439 -0.3547 -0.3184
 5850SOL    HW218129   5.567   6.880   7.944  0.5877 -0.0387  1.0344
 5851SOL     OW18130   8.248   1.258   6.095 -0.1371  0.2945 -0.3775
 5851SOL    HW118131   8.196   1.205   6.156  0.1334  0.4877  0.0244
 5851SOL    HW218132   8.196   1.338   6.083 -1.6478 -0.9313 -2.7175
 5852SOL     OW18133   5.881   9.842   4.573 -0.3104 -0.1698 -1.0114
 5852SOL    HW118134   5.829   9.763   4.556 -1.5334  0.3457  0.1899
 5852SOL    HW218135   5.909   9.871   4.486 -0.8597 -1.2485 -1.5653
 5853SOL     OW18136   2.417   4.507   7.453 -0.3764  0.4572 -0.2518
 5853SOL    HW118137   2.439   4.595   7.423  0.0401  0.0655 -1.1161
 5853SOL    HW218138   2.501   4.469   7.480 -0.5846  0.3925  0.3356
 5854SOL     OW18139   6.967   9.196   1.272 -0.4492 -0.3660  0.3572
 5854SOL    HW118140   6.900   9.263   1.258  2.1979  2.5758  0.5981
 5854SOL    HW218141   6.961   9.176   1.366 -0.0636  1.0447  0.7113
 5855SOL     OW18142   9.185   7.252   9.787 -0.5702  0.2062 -0.3672
 5855SOL    HW118143   9.230   7.257   9.703 -0.3439  0.3622 -0.2403
 5855SOL    HW218144   9.146   7.339   9.799 -2.2761 -0.4045 -1.2146
 5856SOL     OW18145   1.293   5.955   3.258 -0.2800 -0.4687 -0.1894
 5856SOL    HW118146   1.242   6.032   3.282  2.2328  1.1568  0.3015
 5856SOL    HW218147   1.274   5.942   3.165 -2.0454 -0.3853  0.1117
 5857SOL     OW18148   9.148   8.972   0.894 -0.5008  0.1922 -0.4542
 5857SOL    HW118149   9.155   9.067   0.904  1.1841  0.0583 -0.1685
 5857SOL    HW218150   9.232   8.938   0.923 -0.9000 -1.3668 -1.0185
 5858SOL     OW18151   9.603   8.959   4.188 -0.1708 -0.3978  0.1950
 5858SOL    HW118152   9.585   8.883   4.243  0.2532 -1.5086 -1.1455
 5858SOL    HW218153   9.576   8.932   4.100 -0.5027  1.2029 -0.2235
 5859SOL     OW18154   8.602   6.859   3.685  0.3212  0.2621  0.3372
 5859SOL    HW118155   8.669   6.820   3.631 -1.9142 -0.9840 -1.7321
 5859SOL    HW218156   8.560   6.925   3.629 -0.1835  1.0502  1.5692
 5860SOL     OW18157   7.832   8.077   8.594  0.0274  0.3377  0.2730
 5860SOL    HW118158   7.867   8.026   8.667  0.0421  0.2394  0.1983
 5860SOL    HW218159   7.738   8.079   8.609 -0.0661 -0.4184 -0.1660
 5861SOL     OW18160   1.777   8.102   1.430  0.3258 -0.4050 -0.2834
 5861SOL    HW118161   1.815   8.150   1.504  1.3481 -2.2602  0.4630
 5861SOL    HW218162   1.849   8.092   1.368 -0.1022 -0.2762 -0.8095
 5862SOL     OW18163   0.955   8.737   7.091 -0.3340 -0.5281 -0.4962
 5862SOL    HW118164   0.869   8.724   7.052  0.1522 -1.5305 -1.2738
 5862SOL    HW218165   1.016   8.739   7.017  0.4545 -1.1520  0.1083
 5863SOL     OW18166   7.441   5.172   3.891 -0.0908 -0.5317 -0.4126
 5863SOL    HW118167   7.459   5.106   3.958 -0.3178  0.3949  0.5892
 5863SOL    HW218168   7.475   5.253   3.928 -0.4185  0.0368 -1.3372
 5864SOL     OW18169   2.918   3.066   7.953  0.4134  0.2995  0.2400
 5864SOL    HW118170   2.897   3.059   7.860  1.4433  0.6624 -0.0328
 5864SOL    HW218171   2.848   3.119   7.990 -0.3063 -0.3200 -0.2164
 5865SOL     OW18172   8.494   5.909   6.013 -0.2085  0.5201 -0.3301
 5865SOL    HW118173   8.462   5.930   5.925 -0.6527  1.2240 -0.0101
 5865SOL    HW218174   8.516   5.816   6.009 -0.1401  0.5693 -1.2089
 5866SOL     OW18175   1.512   9.007   8.872 -0.3985  0.2296 -0.1304
 5866SOL    HW118176   1.451   8.988   8.943  0.7817  2.9150  1.7772
 5866SOL    HW218177   1.587   8.950   8.889 -1.1639 -1.0341 -0.8382
 5867SOL     OW18178   5.911   7.648   7.556 -0.3779  0.0939  0.1913
 5867SOL    HW118179   5.846   7.658   7.486 -1.1312 -2.1667  0.5029
 5867SOL    HW218180   5.861   7.659   7.637 -0.2848 -1.0584  0.4215
 5868SOL     OW18181   1.804   2.770   6.073  0.7570  0.3329 -0.0957
 5868SOL    HW118182   1.741   2.812   6.015 -1.5291  0.2295  2.1587
 5868SOL    HW218183   1.772   2.681   6.083  2.4784 -0.3807 -0.4774
 5869SOL     OW18184   0.479   0.787   2.149 -0.3892 -0.4072 -0.1183
 5869SOL    HW118185   0.440   0.875   2.150 -0.0710 -0.2660  0.1491
 5869SOL    HW218186   0.481   0.761   2.241 -0.8371 -0.8608 -0.2331
 5870SOL     OW18187   9.194   3.079   7.004  0.0513 -0.6256 -0.0934
 5870SOL    HW118188   9.193   2.991   7.043 -0.3437 -1.0756 -1.0851
 5870SOL    HW218189   9.110   3.086   6.958  0.6831 -0.2996 -1.2496
 5871SOL     OW18190   4.037   2.285   8.028 -0.2530  0.6103 -0.0118
 5871SOL    HW118191   4.033   2.218   8.096  0.1036 -0.3618 -0.9172
 5871SOL    HW218192   3.986   2.248   7.955 -0.8914  1.7600 -0.1704
 5872SOL     OW18193   2.992   7.874   2.177 -0.1349  0.3525 -0.4751
 5872SOL    HW118194   2.989   7.957   2.224  0.2123  0.6010 -0.8838
 5872SOL    HW218195   2.953   7.811   2.237  0.5756  0.6064  0.2692
 5873SOL     OW18196   0.220   4.908   2.093  0.1791  0.3608  0.4073
 5873SOL    HW118197   0.262   4.967   2.156 -1.0341  1.7791 -0.0451
 5873SOL    HW218198   0.160   4.964   2.044 -1.8012 -1.4257  0.6316
 5874SOL     OW18199   9.189   6.295   5.678 -0.6195  0.2372 -0.8219
 5874SOL    HW118200   9.228   6.222   5.629  0.9532  0.3749  0.1552
 5874SOL    HW218201   9.181   6.263   5.768 -0.2886  1.1205 -0.4659
 5875SOL     OW18202   5.240   9.182   0.696 -0.4802  0.1288 -0.0475
 5875SOL    HW118203   5.263   9.240   0.624 -2.2674  0.7306 -0.1749
 5875SOL    HW218204   5.161   9.136   0.667 -1.8029  1.0550  1.8169
 5876SOL     OW18205   1.904   0.621   4.401 -0.2917  0.3648  0.6616
 5876SOL    HW118206   1.865   0.559   4.462  0.5425  0.8223  1.6891
 5876SOL    HW218207   1.912   0.572   4.319  0.1936 -0.8381  1.3966
 5877SOL     OW18208   9.080   6.703   5.465  0.8309  0.1711 -0.1487
 5877SOL    HW118209   9.071   6.782   5.412  0.4538 -0.1803 -0.6185
 5877SOL    HW218210   9.055   6.632   5.407  0.7578 -0.2573  0.3959
 5878SOL     OW18211   0.759   4.400   8.259  0.5174 -0.3686  0.2310
 5878SOL    HW118212   0.734   4.419   8.350 -0.2028  0.2423 -0.0838
 5878SOL    HW218213   0.751   4.484   8.214 -1.8381 -1.1667 -1.0015
 5879SOL     OW18214   1.151   2.791   5.699  0.0611 -0.5427 -0.3486
 5879SOL    HW118215   1.178   2.774   5.609 -2.4610 -0.8266 -1.1556
 5879SOL    HW218216   1.157   2.706   5.743  0.7673 -0.5190 -0.3928
 5880SOL     OW18217   8.051   7.825   0.397  0.0679 -0.6081 -0.4684
 5880SOL    HW118218   8.063   7.769   0.320  0.5256 -2.0154  0.5858
 5880SOL    HW218219   8.138   7.863   0.412 -0.3561  0.8543 -1.4841
 5881SOL     OW18220   0.008   0.929   1.160  0.0707 -0.4388 -0.0729
 5881SOL    HW118221   0.024   0.932   1.254 -0.4312  1.0069 -0.0098
 5881SOL    HW218222   0.093   0.948   1.121  0.2015 -0.6827  0.0901
 5882SOL     OW18223   4.988   0.257   6.451  0.4915 -0.3596  0.2579
 5882SOL    HW118224   4.976   0.235   6.543 -0.3492  1.6989  0.7008
 5882SOL    HW218225   5.080   0.280   6.443  1.0908 -2.6446  0.0523
 5883SOL     OW18226   7.532   8.972   9.214  0.6982  0.4283  0.1040
 5883SOL    HW118227   7.577   9.011   9.289  1.7691 -0.1409 -0.2250
 5883SOL    HW218228   7.492   8.892   9.248 -0.6197  1.2439  0.5389
 5884SOL     OW18229   9.516   8.944   7.179 -0.2154  0.0745 -0.4686
 5884SOL    HW118230   9.457   8.880   7.138 -1.3547  0.6091  0.2694
 5884SOL    HW218231   9.569   8.892   7.239 -1.7836 -0.1123  0.8403
 5885SOL     OW18232   0.970   4.562   4.721  0.3010  0.2800  0.1074
 5885SOL    HW118233   1.001   4.479   4.756 -0.1029 -0.1046 -0.4303
 5885SOL    HW218234   0.971   4.550   4.626 -2.1865 -0.0279  0.0491
 5886SOL     OW18235   8.967   6.402   3.641 -0.2577  0.3095 -0.2586
 5886SOL    HW118236   8.989   6.314   3.609 -1.2008 -0.1587  0.3172
 5886SOL    HW218237   9.041   6.426   3.696 -0.5931 -0.7301  0.6948
 5887SOL     OW18238   6.614   6.341   9.599  0.0148  0.1032  0.4426
 5887SOL    HW118239   6.626   6.252   9.632  1.9337  0.4961  0.9008
 5887SOL    HW218240   6.661   6.343   9.516 -0.2510  0.6166  0.3002
 5888SOL     OW18241   0.151   0.384   5.217  0.2164 -0.0005  0.1291
 5888SOL    HW118242   0.233   0.343   5.189 -0.1077 -1.3195  1.0153
 5888SOL    HW218243   0.087   0.313   5.217 -0.7730  0.8629  0.1287
 5889SOL     OW18244   0.417   1.850   8.231 -0.0997 -0.4115  0.4370
 5889SOL    HW118245   0.500   1.841   8.184 -0.2347 -0.4585  0.2094
 5889SOL    HW218246   0.373   1.923   8.188  0.2231  0.2300  1.1474
 5890SOL     OW18247   9.416   1.464   7.465  0.6627  0.2432 -0.5128
 5890SOL    HW118248   9.501   1.426   7.440  1.8962  2.6922 -0.3992
 5890SOL    HW218249   9.374   1.485   7.381  0.1439 -0.9492 -0.5693
 5891SOL     OW18250   8.621   9.594   1.153 -0.7787 -0.2296 -0.0034
 5891SOL    HW118251   8.526   9.590   1.144 -0.7115  0.0375 -1.0059
 5891SOL    HW218252   8.651   9.505   1.134 -0.8263 -0.3139  0.3129
 5892SOL     OW18253   0.497   8.755   0.220  0.3516  0.8419 -0.4191
 5892SOL    HW118254   0.487   8.705   0.140 -1.4289  0.0531  0.2303
 5892SOL    HW218255   0.581   8.729   0.256 -0.8003 -2.3380  0.2676
 5893SOL     OW18256   4.494   7.110   1.776 -0.1098 -0.9625  0.6754
 5893SOL    HW118257   4.476   7.057   1.698  0.3890 -0.8570  0.4821
 5893SOL    HW218258   4.539   7.188   1.743  1.3183 -1.5249  1.1729
 5894SOL     OW18259   8.048   5.312   2.000  0.2097  0.2934  0.2211
 5894SOL    HW118260   7.976   5.331   2.060  0.2651 -1.4913  0.9112
 5894SOL    HW218261   8.121   5.287   2.057  0.2056 -1.6297 -0.5258
 5895SOL     OW18262   0.358   4.137   9.675 -0.5143  0.2833  0.3521
 5895SOL    HW118263   0.438   4.180   9.645 -1.6003  1.8019 -0.4859
 5895SOL    HW218264   0.386   4.082   9.748  1.5754 -0.5957 -1.0235
 5896SOL     OW18265   4.479   1.557   6.598 -0.0372  0.6259 -0.1861
 5896SOL    HW118266   4.510   1.546   6.687 -0.7876 -0.3781 -0.0183
 5896SOL    HW218267   4.391   1.594   6.607  1.2925  4.3455 -0.6769
 5897SOL     OW18268   0.280   6.926   8.682 -0.1501  0.1238  0.3355
 5897SOL    HW118269   0.306   6.871   8.755 -1.5885 -1.2283 -0.1079
 5897SOL    HW218270   0.229   6.998   8.721 -0.7529 -0.4889  0.6926
 5898SOL     OW18271   8.845   4.238   7.517 -0.4717  0.3798 -0.7865
 5898SOL    HW118272   8.907   4.172   7.488  0.5807  2.2135 -3.1279
 5898SOL    HW218273   8.840   4.300   7.443 -2.5151  2.1054  0.6580
 5899SOL     OW18274   7.761   1.835   9.354 -0.1782 -0.0814 -0.0745
 5899SOL    HW118275   7.667   1.815   9.348 -0.2105  0.1980 -0.4873
 5899SOL    HW218276   7.777   1.840   9.448  0.1245 -3.4046  0.1769
 5900SOL     OW18277   6.561   2.301   7.482 -0.3354  0.0166 -0.1768
 5900SOL    HW118278   6.504   2.377   7.480 -0.8521 -0.3681 -0.3779
 5900SOL    HW218279   6.649   2.337   7.482 -0.5711  0.6535  1.3053
 5901SOL     OW18280   3.454   8.871   5.640  0.3649 -0.2856  0.2440
 5901SOL    HW118281   3.521   8.810   5.609  0.5721 -0.2453  0.6093
 5901SOL    HW218282   3.413   8.826   5.714  0.9980  0.3011  0.9722
 5902SOL     OW18283   6.490   8.776   7.432 -0.8307 -0.1225 -0.0318
 5902SOL    HW118284   6.566   8.722   7.409 -1.4548 -1.1694  0.3182
 5902SOL    HW218285   6.436   8.719   7.488 -2.8906 -0.1340 -1.9129
 5903SOL     OW18286   0.477   0.214   3.214 -0.3271  0.7032 -0.1695
 5903SOL    HW118287   0.493   0.151   3.144 -2.3077  1.7928 -1.7099
 5903SOL    HW218288   0.381   0.215   3.224 -0.4972  4.1805 -0.9879
 5904SOL     OW18289   3.988   1.230   6.154  0.4204 -0.0449 -0.3616
 5904SOL    HW118290   3.913   1.268   6.200 -1.6032 -0.6336 -2.9430
 5904SOL    HW218291   4.046   1.201   6.224 -2.8092 -1.6518  1.9460
 5905SOL     OW18292   0.258   7.371   6.552 -0.3883 -0.7119 -0.1475
 5905SOL    HW118293   0.286   7.429   6.482 -0.5644 -0.1474  0.2401
 5905SOL    HW218294   0.197   7.310   6.511 -1.1528  0.1492 -0.3238
 5906SOL     OW18295   6.728   9.390   6.134  0.4101  0.1034 -0.4339
 5906SOL    HW118296   6.754   9.481   6.150 -1.2272  0.5573 -0.2584
 5906SOL    HW218297   6.648   9.378   6.184  0.8082 -1.5761 -0.1496
 5907SOL     OW18298   1.163   4.326   0.741  0.0036  0.4043  0.3743
 5907SOL    HW118299   1.119   4.244   0.764 -3.0554  0.7185 -3.3342
 5907SOL    HW218300   1.177   4.319   0.646  0.2593  3.8673  0.0454
 5908SOL     OW18301   8.659   0.796   0.504  0.1693  0.0033 -0.2407
 5908SOL    HW118302   8.654   0.729   0.435  1.9727 -0.6497  0.2300
 5908SOL    HW218303   8.567   0.817   0.522 -0.4032 -1.2974 -1.3956
 5909SOL     OW18304   8.097   0.826   1.252  0.3256 -0.1352  0.3305
 5909SOL    HW118305   8.046   0.846   1.330  0.9555  1.1117  0.4411
 5909SOL    HW218306   8.184   0.862   1.270  0.1834  1.1443 -1.3580
 5910SOL     OW18307   7.623   2.894   1.262 -0.0307  0.9075  0.0068
 5910SOL    HW118308   7.584   2.939   1.336  0.1806  0.3019  0.4909
 5910SOL    HW218309   7.622   2.802   1.286 -1.0157  0.5701 -1.2264
 5911SOL     OW18310   8.356   4.671   0.867 -0.4997  0.1249  0.2159
 5911SOL    HW118311   8.285   4.682   0.805  0.4295 -1.4534 -1.2131
 5911SOL    HW218312   8.412   4.603   0.829  1.8376  1.3534  1.2221
 5912SOL     OW18313   6.907   0.843   6.963  0.2952  0.8956  0.2524
 5912SOL    HW118314   6.911   0.899   7.041  1.5546 -1.0645  1.6902
 5912SOL    HW218315   6.986   0.789   6.969 -1.0369 -1.2862 -0.8310
 5913SOL     OW18316   7.967   2.533   8.640 -0.3676 -0.1913  0.1143
 5913SOL    HW118317   8.016   2.471   8.694 -1.3697 -0.3876  0.8407
 5913SOL    HW218318   8.034   2.577   8.588  0.3096 -2.5262 -1.1509
 5914SOL     OW18319   6.837   2.992   7.479  0.2725  0.2038  0.0707
 5914SOL    HW118320   6.771   3.001   7.411  0.2228 -0.7324 -0.0186
 5914SOL    HW218321   6.787   2.986   7.561  0.3485  1.8084  0.2665
 5915SOL     OW18322   8.183   1.917   1.163  0.0465 -0.3863 -0.0121
 5915SOL    HW118323   8.166   1.823   1.158 -0.4316 -0.2613 -0.8379
 5915SOL    HW218324   8.179   1.937   1.257 -3.8522 -0.4915  0.0160
 5916SOL     OW18325   1.352   3.041   8.296  0.2013 -0.3347 -0.7288
 5916SOL    HW118326   1.325   3.046   8.205 -2.0991 -0.1373 -0.0798
 5916SOL    HW218327   1.271   3.032   8.345  1.4418 -1.3616  1.2543
 5917SOL     OW18328   9.581   4.300   3.608 -0.0532  0.0945  0.2401
 5917SOL    HW118329   9.578   4.206   3.625  0.6210  0.2583  1.3444
 5917SOL    HW218330   9.669   4.316   3.576  0.0723  0.4503  0.7494
 5918SOL     OW18331   9.297   8.573   5.242 -0.1199  0.1335  0.0961
 5918SOL    HW118332   9.219   8.595   5.292 -0.6186 -0.8370 -0.2217
 5918SOL    HW218333   9.360   8.640   5.265 -1.4649  1.7376 -0.6428
 5919SOL     OW18334   0.292   0.023   2.650  0.1248  0.6710  0.0483
 5919SOL    HW118335   0.344  -0.052   2.620  1.6275  1.3218  0.9133
 5919SOL    HW218336   0.283   0.077   2.572  2.3222  1.3970  0.2112
 5920SOL     OW18337   2.539   6.184   6.993 -0.1886  0.1424  0.3040
 5920SOL    HW118338   2.587   6.118   6.943 -1.4893  0.3312 -1.2699
 5920SOL    HW218339   2.607   6.236   7.035  0.9027 -1.1997  0.2624
 5921SOL     OW18340   4.134   4.449   4.179 -0.1793  0.1954 -0.2940
 5921SOL    HW118341   4.116   4.355   4.182 -2.4933  0.6099 -0.0367
 5921SOL    HW218342   4.207   4.457   4.117 -1.5133 -1.5743 -2.2021
 5922SOL     OW18343   7.879   0.435   9.633  0.2346  0.4366 -0.0456
 5922SOL    HW118344   7.868   0.469   9.545 -1.4007 -0.1602 -0.1038
 5922SOL    HW218345   7.795   0.395   9.654  0.4282  0.9624  1.9559
 5923SOL     OW18346   1.407   4.232   1.060 -0.2479 -0.0277 -0.3554
 5923SOL    HW118347   1.354   4.191   1.128  1.3908 -0.6915  0.5944
 5923SOL    HW218348   1.476   4.168   1.042  0.7314  1.1424 -0.9074
 5924SOL     OW18349   3.125   6.156   9.597 -0.2294 -0.1590 -0.1659
 5924SOL    HW118350   3.164   6.070   9.606 -1.1463 -0.5236  0.4119
 5924SOL    HW218351   3.039   6.140   9.558  0.5794  0.7305 -2.5264
 5925SOL     OW18352   4.263   4.074   1.438  0.4678 -0.0565 -0.2185
 5925SOL    HW118353   4.288   4.136   1.369 -2.0359 -0.4217 -1.5881
 5925SOL    HW218354   4.269   3.988   1.396 -0.9862 -0.2912 -0.0232
 5926SOL     OW18355   5.807   2.956  -0.010 -0.2258  0.1711 -0.2516
 5926SOL    HW118356   5.877   3.021  -0.021 -0.2385 -0.0854 -2.3744
 5926SOL    HW218357   5.737   3.003   0.035  0.4445  1.1283 -0.1908
 5927SOL     OW18358   4.696   0.984   0.529  0.2005 -0.1604 -0.2901
 5927SOL    HW118359   4.605   1.005   0.549  0.3142 -1.4187  1.9324
 5927SOL    HW218360   4.697   0.964   0.436 -1.8634 -0.4364 -0.2836
 5928SOL     OW18361   8.256   8.041   2.577  0.4716  0.0943  0.0385
 5928SOL    HW118362   8.255   8.008   2.487  1.0457 -0.0068  0.0691
 5928SOL    HW218363   8.260   8.136   2.568 -4.1785  0.5006 -0.1135
 5929SOL     OW18364   4.049   3.442   6.690 -0.4436  0.3140 -0.4025
 5929SOL    HW118365   4.032   3.473   6.779 -1.3066  0.2693 -0.5436
 5929SOL    HW218366   4.005   3.358   6.685  1.0959 -0.5363 -0.3294
 5930SOL     OW18367   7.619   4.188   0.143  0.5401  0.5800  0.5289
 5930SOL    HW118368   7.531   4.188   0.106  0.4374 -0.7643  0.7182
 5930SOL    HW218369   7.674   4.147   0.076  0.3794 -1.7324  1.7064
 5931SOL     OW18370   4.835   3.773   2.925  0.3754  0.0439 -0.0034
 5931SOL    HW118371   4.797   3.688   2.907 -1.4484  0.8124  0.0363
 5931SOL    HW218372   4.824   3.784   3.020 -0.8417  0.9468 -0.2227
 5932SOL     OW18373   5.359   9.695   8.731  0.7939 -0.1941  0.0643
 5932SOL    HW118374   5.391   9.716   8.819  0.8274 -0.2183  0.0578
 5932SOL    HW218375   5.289   9.759   8.716  1.5013  0.5158 -0.3114
 5933SOL     OW18376   0.007   5.583   0.902 -0.3645 -0.1931  0.0364
 5933SOL    HW118377  -0.044   5.550   0.975  1.5450  0.5236  1.7873
 5933SOL    HW218378   0.059   5.509   0.872 -0.6662 -0.3165 -0.1953
 5934SOL     OW18379   4.345   3.397   8.361  0.3724 -0.6767 -0.2433
 5934SOL    HW118380   4.366   3.432   8.275  0.5935  1.6159  0.6841
 5934SOL    HW218381   4.255   3.364   8.352 -0.6186  1.9288 -0.7410
 5935SOL     OW18382   6.381   8.139   3.220  0.5636  0.3473  0.4435
 5935SOL    HW118383   6.444   8.070   3.198  1.1190  0.7586  0.7050
 5935SOL    HW218384   6.432   8.220   3.214 -0.1053  0.7431  0.0485
 5936SOL     OW18385   1.501   2.627   6.042 -0.0963  0.0625  0.0477
 5936SOL    HW118386   1.500   2.684   5.965  1.3182  0.0940  0.0233
 5936SOL    HW218387   1.569   2.562   6.023 -1.1930 -1.2222  0.3847
 5937SOL     OW18388   3.242   6.462   8.228 -0.3040  0.0161 -0.2134
 5937SOL    HW118389   3.334   6.439   8.213 -0.0736  1.5879 -1.6441
 5937SOL    HW218390   3.205   6.388   8.275  1.2227 -1.5199 -1.3106
 5938SOL     OW18391   6.304   5.991   5.222  0.3548  0.0840  0.2545
 5938SOL    HW118392   6.283   6.071   5.174  0.4393 -0.0422  0.0081
 5938SOL    HW218393   6.273   6.008   5.311  1.8944  1.0831  0.6573
 5939SOL     OW18394   8.530   0.001   6.732 -0.3275 -0.6981  0.2143
 5939SOL    HW118395   8.531   0.093   6.759 -1.3302 -0.7102  0.3371
 5939SOL    HW218396   8.576  -0.000   6.648  0.4494 -0.2253  0.6264
 5940SOL     OW18397   2.332   1.111   1.715  0.1437  0.1373  0.0271
 5940SOL    HW118398   2.417   1.091   1.753  0.7575 -1.2411 -1.8745
 5940SOL    HW218399   2.270   1.055   1.762  0.5824 -0.1811  0.2326
 5941SOL     OW18400   8.196   8.256   4.627 -0.4889  0.5377 -0.3455
 5941SOL    HW118401   8.152   8.341   4.633 -1.0574  0.1900  0.6529
 5941SOL    HW218402   8.277   8.274   4.579  0.4903  2.0683  1.7226
 5942SOL     OW18403   9.087   6.489   4.047  0.2304  0.1915  0.0522
 5942SOL    HW118404   9.179   6.507   4.028  0.7689 -0.8689  1.4685
 5942SOL    HW218405   9.050   6.575   4.068  1.1068  0.5223  0.2833
 5943SOL     OW18406   5.156   9.340   5.792 -0.0365 -0.1607 -0.4388
 5943SOL    HW118407   5.098   9.411   5.767 -1.2279 -1.4707 -1.5977
 5943SOL    HW218408   5.242   9.380   5.800 -0.7880  1.5087 -0.4125
 5944SOL     OW18409   9.068   4.432   6.667 -0.4617 -0.2456 -0.7012
 5944SOL    HW118410   9.088   4.484   6.746  1.6770  0.5733 -1.7069
 5944SOL    HW218411   9.012   4.489   6.615 -1.0907 -0.4091 -0.2191
 5945SOL     OW18412   4.316   0.502   2.831 -0.3912 -0.2136  0.1562
 5945SOL    HW118413   4.268   0.551   2.898 -0.8223 -0.7103  0.2231
 5945SOL    HW218414   4.380   0.564   2.796  0.3874 -0.1689  1.5770
 5946SOL     OW18415   8.965   9.526   3.993 -0.8304 -0.1043  0.4980
 5946SOL    HW118416   8.914   9.449   3.968 -0.1779 -1.0452  1.9826
 5946SOL    HW218417   9.034   9.531   3.926 -0.4408 -1.2508  0.7896
 5947SOL     OW18418   4.073   6.818   6.580 -0.2283 -0.4386  0.1542
 5947SOL    HW118419   4.040   6.746   6.526 -1.4955  0.7121 -0.6726
 5947SOL    HW218420   4.136   6.776   6.639  0.0646 -1.9975 -1.1734
 5948SOL     OW18421   7.171   3.829   6.819 -0.2356 -0.2493  0.4791
 5948SOL    HW118422   7.178   3.786   6.904 -0.5710  0.8320  1.0699
 5948SOL    HW218423   7.146   3.759   6.759  1.7967 -1.4029  0.8898
 5949SOL     OW18424   5.284   2.009   2.208 -0.3871  0.4549 -0.7037
 5949SOL    HW118425   5.305   1.916   2.202 -0.4703  0.4631 -1.1182
 5949SOL    HW218426   5.203   2.019   2.159 -1.1888  0.4829  0.5852
 5950SOL     OW18427   4.991   2.769   8.240  0.1908 -0.6669  0.2134
 5950SOL    HW118428   4.914   2.748   8.293  0.4688 -0.1295  0.8478
 5950SOL    HW218429   4.968   2.850   8.195  0.2519 -0.6979  0.1256
 5951SOL     OW18430   6.315   1.250   1.292  0.3516 -0.4773 -0.4735
 5951SOL    HW118431   6.407   1.227   1.278  0.4821  0.0649 -0.5287
 5951SOL    HW218432   6.292   1.206   1.374  0.4285 -1.2563 -0.8593
 5952SOL     OW18433   0.243   6.800   4.634 -0.1687  0.1585 -0.0480
 5952SOL    HW118434   0.163   6.851   4.620 -1.6057 -1.6464  1.2072
 5952SOL    HW218435   0.296   6.817   4.556  0.4148  5.1135  1.0801
 5953SOL     OW18436   7.181   1.239   4.401  0.1176 -0.6961 -0.3605
 5953SOL    HW118437   7.136   1.232   4.486  2.8347  1.7673  1.4781
 5953SOL    HW218438   7.185   1.149   4.369 -2.9983 -1.4345  0.9228
 5954SOL     OW18439   7.510   8.303   7.832 -0.5598 -0.1754 -0.2101
 5954SOL    HW118440   7.585   8.293   7.891 -0.3985  0.0251 -0.3813
 5954SOL    HW218441   7.449   8.359   7.880  0.0893  1.0051 -0.7129
 5955SOL     OW18442   5.670   6.696   6.054 -0.1001  0.0332  0.2961
 5955SOL    HW118443   5.579   6.668   6.040 -0.6533  1.7934  0.1229
 5955SOL    HW218444   5.711   6.622   6.098 -1.5416 -0.9177  0.1310
 5956SOL     OW18445   5.047   6.069   3.695 -0.5767 -0.1986  0.6306
 5956SOL    HW118446   5.130   6.108   3.721 -0.2944 -0.9301  0.8541
 5956SOL    HW218447   5.051   5.979   3.728 -0.9881 -0.5814 -0.3175
 5957SOL     OW18448   2.371   6.683   2.140 -0.5732 -0.1608  0.0600
 5957SOL    HW118449   2.345   6.774   2.155  0.0699  0.3066 -1.3947
 5957SOL    HW218450   2.467   6.686   2.139 -0.4477 -1.3135  2.3700
 5958SOL     OW18451   2.037   4.126   9.760  0.6724  0.2510  0.1424
 5958SOL    HW118452   2.128   4.127   9.789  0.5480 -0.7962  0.5907
 5958SOL    HW218453   2.043   4.119   9.664  1.1044 -2.5129  0.2906
 5959SOL     OW18454   2.939   9.980   4.002 -0.0123  0.0435 -0.4642
 5959SOL    HW118455   2.955  10.016   3.915  0.0619 -0.7026 -0.7697
 5959SOL    HW218456   3.002   9.909   4.010  0.9089  0.9657  0.7483
 5960SOL     OW18457   5.114   8.830   9.748  0.1179  0.3376 -0.5923
 5960SOL    HW118458   5.195   8.787   9.721  0.2589  0.5370 -0.4857
 5960SOL    HW218459   5.075   8.770   9.811 -0.5489 -0.4534 -1.7245
 5961SOL     OW18460   9.938   5.083   2.101  0.3833 -0.4252 -0.0918
 5961SOL    HW118461   9.903   5.011   2.154 -1.5816  0.4078 -0.1451
 5961SOL    HW218462   9.980   5.141   2.164 -0.0900 -0.4786  0.2850
 5962SOL     OW18463   6.129   2.192   2.775 -0.4028 -0.7095  0.7085
 5962SOL    HW118464   6.181   2.137   2.716 -1.1652  0.4321 -1.1244
 5962SOL    HW218465   6.126   2.143   2.857  1.5900 -1.8830  0.1496
 5963SOL     OW18466   3.533   8.816   6.446 -0.3808  0.0100  0.1516
 5963SOL    HW118467   3.623   8.806   6.477 -0.0173  0.7387 -0.6375
 5963SOL    HW218468   3.520   8.910   6.440 -0.6322 -0.0988 -1.3147
 5964SOL     OW18469   1.682   6.432   7.383  0.2919 -0.8634 -0.0104
 5964SOL    HW118470   1.681   6.343   7.417  0.5568 -0.0577  2.2780
 5964SOL    HW218471   1.590   6.459   7.383  0.3954 -0.4705  1.2500
 5965SOL     OW18472   6.262   3.844   8.900 -0.2640 -0.5526 -0.3718
 5965SOL    HW118473   6.230   3.828   8.989  1.4670  1.3890  0.6668
 5965SOL    HW218474   6.187   3.824   8.844 -1.2937 -2.1622  1.4633
 5966SOL     OW18475   6.990   3.982   6.684 -0.3230 -0.2297 -0.1275
 5966SOL    HW118476   6.919   3.983   6.748 -0.2321  1.0211 -0.0206
 5966SOL    HW218477   7.062   3.937   6.728 -0.7594 -0.7411  0.0728
 5967SOL     OW18478   9.244   7.944   0.096  0.0941  0.4175  0.1217
 5967SOL    HW118479   9.223   7.952   0.189 -1.3956  1.2980 -0.2530
 5967SOL    HW218480   9.331   7.982   0.087 -0.4354  1.8732  0.9112
 5968SOL     OW18481   3.882   5.754   1.584 -0.3366  0.5656  0.4025
 5968SOL    HW118482   3.858   5.723   1.497 -0.3625  0.0356  0.5930
 5968SOL    HW218483   3.908   5.675   1.631 -1.1287  0.7211  1.1398
 5969SOL     OW18484   3.324   8.654   8.867  0.0677  0.3497 -0.4928
 5969SOL    HW118485   3.287   8.665   8.955  0.1767 -0.0125 -0.3987
 5969SOL    HW218486   3.257   8.607   8.818  0.7233 -1.0492 -0.0825
 5970SOL     OW18487   0.035   7.557   1.036  0.4057  0.3690 -0.0656
 5970SOL    HW118488   0.095   7.528   1.104 -0.9071 -1.3807  0.4252
 5970SOL    HW218489  -0.048   7.514   1.058 -0.0293 -0.3718 -2.8124
 5971SOL     OW18490   7.017   2.657   4.478 -0.1892 -0.1831 -0.6865
 5971SOL    HW118491   6.947   2.712   4.514 -1.7518 -2.7907  0.5170
 5971SOL    HW218492   6.988   2.637   4.389 -0.9897 -1.1733 -0.2254
 5972SOL     OW18493   3.017   1.727   3.083  0.1531  0.2132  0.1401
 5972SOL    HW118494   3.001   1.769   2.998  1.5981  0.3565 -0.0988
 5972SOL    HW218495   3.077   1.655   3.062 -0.2514 -0.3472  0.9089
 5973SOL     OW18496   3.013   4.838   8.851  0.2716 -0.2570  0.2293
 5973SOL    HW118497   3.085   4.876   8.901  1.5728 -3.3264  0.9833
 5973SOL    HW218498   2.951   4.808   8.918 -0.2954 -0.1967 -0.2635
 5974SOL     OW18499   5.066   7.147   1.339 -0.0613  0.3622 -0.5694
 5974SOL    HW118500   5.012   7.118   1.413 -0.2873 -1.2086 -1.2984
 5974SOL    HW218501   5.154   7.118   1.361 -0.3367 -1.3013 -1.4341
 5975SOL     OW18502   9.330   4.301   6.290  0.0920  0.2161  0.5023
 5975SOL    HW118503   9.244   4.282   6.253  0.7334 -3.6454  0.5926
 5975SOL    HW218504   9.387   4.315   6.215 -0.3108  1.5076  0.4115
 5976SOL     OW18505   0.431   0.947   1.676 -0.4530  0.2443 -0.0004
 5976SOL    HW118506   0.517   0.914   1.647 -1.3765 -1.0986 -1.3396
 5976SOL    HW218507   0.450   0.989   1.759  1.9400  2.1653 -1.3640
 5977SOL     OW18508   2.699   8.677   2.450  0.4345  0.0952  0.0461
 5977SOL    HW118509   2.785   8.695   2.489  0.4259  0.8649 -0.2589
 5977SOL    HW218510   2.709   8.703   2.359  0.1008 -0.5471 -0.1735
 5978SOL     OW18511   7.459   3.233   8.193  0.7923 -0.2165 -0.0342
 5978SOL    HW118512   7.548   3.263   8.209  1.2971 -0.4645 -2.0882
 5978SOL    HW218513   7.464   3.186   8.109 -0.9670 -1.5968  0.5731
 5979SOL     OW18514   9.437   4.046   1.705 -0.3673  0.1236  0.3696
 5979SOL    HW118515   9.399   4.099   1.775 -0.3113 -0.4806  0.8646
 5979SOL    HW218516   9.525   4.083   1.692 -0.2115 -0.0465  0.9280
 5980SOL     OW18517   6.019   8.335   4.767  0.5747 -0.2788 -0.1270
 5980SOL    HW118518   6.005   8.269   4.700 -2.2581  0.0224  0.0599
 5980SOL    HW218519   5.955   8.403   4.748  0.5577  0.4243  2.1086
 5981SOL     OW18520   9.547   4.986   1.933  0.3902  0.2919  0.0238
 5981SOL    HW118521   9.590   5.024   2.009  0.8213 -0.2054  0.0306
 5981SOL    HW218522   9.532   5.060   1.874 -0.0099  0.6874  0.6172
 5982SOL     OW18523   4.757   0.885   9.968  0.0129  0.2051  0.0088
 5982SOL    HW118524   4.700   0.936   9.910  0.2914  0.1550 -0.3114
 5982SOL    HW218525   4.822   0.948   9.998 -0.9919  0.6077  1.4701
 5983SOL     OW18526   2.929   8.735   7.461 -0.1626 -0.1338  0.1864
 5983SOL    HW118527   2.862   8.668   7.475  2.1120 -2.3436  1.5816
 5983SOL    HW218528   3.009   8.685   7.443  1.5467  2.2421  0.6539
 5984SOL     OW18529   1.680   1.610   7.376 -0.5306  0.2027 -0.4393
 5984SOL    HW118530   1.688   1.706   7.374 -0.5237  0.2814  1.4860
 5984SOL    HW218531   1.605   1.593   7.432 -0.0248 -0.9383 -0.0752
 5985SOL     OW18532   2.480   8.107   5.874 -0.1727 -0.5177  0.1371
 5985SOL    HW118533   2.474   8.168   5.800  0.7955 -0.6730 -0.0866
 5985SOL    HW218534   2.495   8.021   5.833 -0.9767 -0.8255  0.4704
 5986SOL     OW18535   6.255   1.638   8.918  0.2542 -0.1174 -0.2104
 5986SOL    HW118536   6.350   1.640   8.912  0.3684  0.4237  1.3023
 5986SOL    HW218537   6.225   1.650   8.827  1.5813 -3.3318 -1.1975
 5987SOL     OW18538   1.442   8.806   3.052 -0.1635  0.1937  0.1011
 5987SOL    HW118539   1.519   8.750   3.058  0.6947  1.2317 -0.8200
 5987SOL    HW218540   1.473   8.893   3.075 -1.4389  0.3660  1.3421
 5988SOL     OW18541   4.019   0.487   1.023  0.0343 -0.1652 -0.2172
 5988SOL    HW118542   3.997   0.432   0.948 -0.2426 -0.6949  0.2439
 5988SOL    HW218543   4.112   0.506   1.012  0.5656 -2.1055  0.4703
 5989SOL     OW18544   1.992   8.943   7.123  0.3280 -0.5809 -0.2332
 5989SOL    HW118545   2.058   8.906   7.182  1.0528 -0.1003 -0.7265
 5989SOL    HW218546   1.908   8.915   7.160  0.7925 -0.8576  0.6358
 5990SOL     OW18547   3.047   4.236   7.898 -0.0593 -0.1384 -0.2485
 5990SOL    HW118548   2.955   4.219   7.918 -0.0077  0.5741  0.6423
 5990SOL    HW218549   3.045   4.321   7.853  0.1202 -0.3612 -0.6823
 5991SOL     OW18550   7.874   6.534   8.348  0.2816 -0.7351  0.3426
 5991SOL    HW118551   7.851   6.596   8.278 -0.4487  1.8759  2.7150
 5991SOL    HW218552   7.838   6.573   8.428  1.6982 -3.1978  2.3356
 5992SOL     OW18553   8.275   8.469   4.340  0.0013  0.3561 -0.8951
 5992SOL    HW118554   8.279   8.498   4.431  0.3883  2.1933 -1.4696
 5992SOL    HW218555   8.186   8.435   4.330  0.5446 -1.7745  0.6626
 5993SOL     OW18556   8.832   8.185   5.316  0.4229  0.0530 -0.2710
 5993SOL    HW118557   8.775   8.258   5.340  0.8018 -0.3208  2.0042
 5993SOL    HW218558   8.885   8.218   5.244 -1.7323  0.8472 -1.5673
 5994SOL     OW18559   4.612   7.444   4.315  0.2365 -0.3988 -0.3794
 5994SOL    HW118560   4.574   7.362   4.283 -0.4398  0.2788 -1.3984
 5994SOL    HW218561   4.586   7.448   4.407 -2.6874  0.2446 -1.1171
 5995SOL     OW18562   5.055   7.599   1.048 -0.2992  0.0115 -0.0160
 5995SOL    HW118563   4.979   7.627   0.998 -0.9370 -1.5681 -0.0086
 5995SOL    HW218564   5.022   7.527   1.102  1.4355 -1.5418 -0.9021
 5996SOL     OW18565   8.851   5.301   4.709 -0.1950 -0.2877 -0.3743
 5996SOL    HW118566   8.895   5.253   4.639 -0.1034  0.3361 -0.7499
 5996SOL    HW218567   8.917   5.308   4.778 -0.1427 -0.5166 -0.3998
 5997SOL     OW18568   8.769   0.450   0.689 -0.1035  0.2738  0.0523
 5997SOL    HW118569   8.810   0.363   0.689  0.6036  0.5936  1.0081
 5997SOL    HW218570   8.791   0.486   0.603  0.1066 -0.2597 -0.1267
 5998SOL     OW18571   7.968   8.114   3.036 -0.1458 -0.0366  0.2771
 5998SOL    HW118572   8.045   8.170   3.033 -0.0609 -0.2023 -0.8316
 5998SOL    HW218573   7.906   8.162   3.092  0.2353  0.7516  0.0377
 5999SOL     OW18574   6.630   0.685   4.061  0.1909  0.4289 -0.0488
 5999SOL    HW118575   6.657   0.751   4.125 -0.1384  0.1730  0.3631
 5999SOL    HW218576   6.704   0.625   4.055 -0.0963 -0.0205  0.7376
 6000SOL     OW18577   0.936   8.507   0.169 -0.7246  0.2237  0.1932
 6000SOL    HW118578   0.965   8.568   0.102 -1.6569  0.2147 -0.2301
 6000SOL    HW218579   1.017   8.478   0.212  0.0666 -0.9642 -1.9432
 6001SOL     OW18580   1.652   7.470   1.710  0.3965  0.0831  0.2327
 6001SOL    HW118581   1.586   7.446   1.775  0.2665 -0.8963 -0.2432
 6001SOL    HW218582   1.717   7.519   1.760 -0.3610  0.5112  0.8344
 6002SOL     OW18583   3.286   8.807   6.741  0.1412 -0.3513  0.1587
 6002SOL    HW118584   3.290   8.751   6.664 -2.0842 -0.8136  0.3119
 6002SOL    HW218585   3.198   8.794   6.775  0.4231  1.3356  1.6653
 6003SOL     OW18586   5.451   5.415   1.571 -0.1596  0.6645  0.4689
 6003SOL    HW118587   5.419   5.382   1.655 -0.6092  1.9749  0.8355
 6003SOL    HW218588   5.470   5.507   1.587 -0.7325  1.0667 -0.9838
 6004SOL     OW18589   8.242   2.406   1.261  0.6155  0.0524 -0.6226
 6004SOL    HW118590   8.245   2.369   1.349 -0.1569 -0.3945 -0.7770
 6004SOL    HW218591   8.273   2.336   1.204  1.0828  0.3305 -0.7170
 6005SOL     OW18592   1.709   9.486   7.524  0.7045  0.0995  0.2071
 6005SOL    HW118593   1.723   9.500   7.617 -1.0604 -0.2880  0.5693
 6005SOL    HW218594   1.747   9.400   7.506 -0.0529 -0.3813  0.8570
 6006SOL     OW18595   8.486   1.710   5.212 -0.0258  0.2131  0.2518
 6006SOL    HW118596   8.440   1.663   5.143 -1.0517  1.8477 -0.2389
 6006SOL    HW218597   8.427   1.707   5.288 -0.3620  1.1594  0.0406
 6007SOL     OW18598   5.207   6.008   3.229 -0.1935  0.1757  0.6664
 6007SOL    HW118599   5.261   5.960   3.292  1.2604 -0.2764 -0.8577
 6007SOL    HW218600   5.141   5.944   3.201 -0.5461  0.2303  1.3498
 6008SOL     OW18601   2.126   5.857   4.489  0.5772  0.9740  0.4613
 6008SOL    HW118602   2.193   5.914   4.526  1.1769  0.6946 -0.1828
 6008SOL    HW218603   2.142   5.858   4.395  2.9006 -2.9860  0.5802
 6009SOL     OW18604   3.846   4.514   0.655 -0.3527  0.2475  0.0493
 6009SOL    HW118605   3.763   4.561   0.658  0.3386  1.4951  0.0811
 6009SOL    HW218606   3.856   4.478   0.743 -0.4341  0.8472  0.3108
 6010SOL     OW18607   6.225   1.610   9.766 -0.0887  0.0780  0.1644
 6010SOL    HW118608   6.170   1.532   9.757  0.2587 -0.0836 -0.6052
 6010SOL    HW218609   6.163   1.681   9.785 -0.6009 -0.0718 -0.8714
 6011SOL     OW18610   3.470   3.651   1.622  0.0845 -0.1774 -0.5369
 6011SOL    HW118611   3.415   3.699   1.560  0.3935 -0.7228 -1.2399
 6011SOL    HW218612   3.435   3.675   1.708 -1.7384 -1.0502 -0.9820
 6012SOL     OW18613   8.622   7.117   2.836 -0.6062 -0.6363 -0.8410
 6012SOL    HW118614   8.605   7.066   2.916 -0.5264  0.3911 -0.1443
 6012SOL    HW218615   8.550   7.095   2.778 -0.9080 -1.0750 -0.3154
 6013SOL     OW18616   3.052   4.333   3.631  0.3054  0.2110 -0.1336
 6013SOL    HW118617   3.073   4.379   3.549 -1.2287 -2.3434 -2.1268
 6013SOL    HW218618   3.111   4.257   3.631 -1.3473 -1.1279 -0.1886
 6014SOL     OW18619   6.877   4.528   1.350  0.1210 -0.3267 -0.2090
 6014SOL    HW118620   6.805   4.554   1.407  1.2932 -1.3714  1.8570
 6014SOL    HW218621   6.842   4.454   1.300 -0.0933 -1.1963  1.1912
 6015SOL     OW18622   2.868   9.574   8.723  0.1771 -0.0962 -0.1736
 6015SOL    HW118623   2.873   9.486   8.760 -0.1468  0.2921  0.8098
 6015SOL    HW218624   2.882   9.632   8.797 -1.0485  0.7059 -0.5411
 6016SOL     OW18625   6.964   8.105   6.157  0.1661 -0.1691 -0.0170
 6016SOL    HW118626   7.053   8.126   6.127  0.5649 -0.9239  0.5914
 6016SOL    HW218627   6.950   8.015   6.128 -0.7892  0.2606 -0.9472
 6017SOL     OW18628   9.384   3.981   0.042  0.1962 -0.0445 -0.2199
 6017SOL    HW118629   9.367   3.921  -0.030  0.0542  0.2181 -0.4047
 6017SOL    HW218630   9.479   3.979   0.053  0.2501  0.1800 -0.6414
 6018SOL     OW18631   4.414   3.539   3.128 -0.3961 -0.3042 -0.0865
 6018SOL    HW118632   4.334   3.589   3.140 -0.2055  0.0441 -0.2503
 6018SOL    HW218633   4.454   3.576   3.049 -0.0805 -0.4829 -0.0117
 6019SOL     OW18634   9.664   8.622   3.794  0.4726  0.7559  0.2516
 6019SOL    HW118635   9.715   8.628   3.875  0.9669  2.3945 -0.1426
 6019SOL    HW218636   9.710   8.557   3.742  1.3740  1.1974  0.4693
 6020SOL     OW18637   0.894   7.306   1.785  0.1925  0.0484 -0.2791
 6020SOL    HW118638   0.946   7.231   1.815 -0.7629 -0.7032 -0.4654
 6020SOL    HW218639   0.857   7.278   1.701 -3.4241 -0.8780  1.4350
 6021SOL     OW18640   6.848   4.600   0.880 -0.5434  0.1846  0.2963
 6021SOL    HW118641   6.819   4.660   0.949 -0.8326 -0.3038  0.6089
 6021SOL    HW218642   6.822   4.643   0.798  1.9889  1.9853  0.3025
 6022SOL     OW18643   7.312   6.261   2.856  0.1829 -0.1938 -0.1064
 6022SOL    HW118644   7.356   6.254   2.941 -0.2726  1.0451  0.2431
 6022SOL    HW218645   7.254   6.336   2.865  1.0210  0.7178 -1.9287
 6023SOL     OW18646   6.827   5.313   9.177 -0.0972 -0.4330 -0.1051
 6023SOL    HW118647   6.917   5.327   9.206 -0.7026  0.1789  1.6507
 6023SOL    HW218648   6.825   5.343   9.086  0.9558  1.7012  0.5129
 6024SOL     OW18649   6.419   1.063   3.956  0.2979  0.2163  0.3580
 6024SOL    HW118650   6.332   1.029   3.932  0.2069  0.3809  0.4540
 6024SOL    HW218651   6.443   1.121   3.883  0.9353 -0.8917 -0.3457
 6025SOL     OW18652   3.874   7.203   8.703 -0.6222  0.4494  0.1038
 6025SOL    HW118653   3.790   7.160   8.714  0.2494 -1.5276 -0.3714
 6025SOL    HW218654   3.937   7.142   8.742  0.6946  1.3008 -0.6120
 6026SOL     OW18655   6.946   2.922   3.959 -0.1961 -0.9300 -0.6475
 6026SOL    HW118656   6.917   2.988   4.021 -0.5061  0.0414 -1.7986
 6026SOL    HW218657   7.041   2.937   3.951 -0.1499 -1.0801 -0.3847
 6027SOL     OW18658   2.232   8.781   4.267 -0.3713  0.3342  0.1037
 6027SOL    HW118659   2.290   8.837   4.215  3.5663 -1.3302  2.2699
 6027SOL    HW218660   2.205   8.837   4.340 -0.1952  0.6906 -0.1008
 6028SOL     OW18661   8.522   2.383   5.576  0.1252 -0.1661 -0.0605
 6028SOL    HW118662   8.498   2.459   5.524  0.6685 -0.6249 -0.9939
 6028SOL    HW218663   8.611   2.401   5.606  0.6707 -0.8918 -1.1844
 6029SOL     OW18664   5.368   8.946   3.565 -0.5615 -0.9210 -0.5973
 6029SOL    HW118665   5.309   8.873   3.545  0.6998 -1.9066 -0.8542
 6029SOL    HW218666   5.390   8.984   3.480  0.7041 -1.8179 -0.6997
 6030SOL     OW18667   7.558   2.722   9.449  0.4070  0.3653 -0.1754
 6030SOL    HW118668   7.493   2.662   9.485  0.0332  0.7268 -0.2305
 6030SOL    HW218669   7.508   2.777   9.388  0.6887  0.8996  0.0700
 6031SOL     OW18670   4.094   8.787   2.862  0.2630  0.4020 -0.3460
 6031SOL    HW118671   4.090   8.774   2.767  0.0616  0.5991 -0.3680
 6031SOL    HW218672   4.185   8.810   2.880  0.3457  0.1622 -0.4651
 6032SOL     OW18673   6.696   7.248   8.066 -0.0333  0.2632  0.0299
 6032SOL    HW118674   6.655   7.239   7.979  0.2926 -0.9482 -0.0220
 6032SOL    HW218675   6.686   7.340   8.088  0.5796  0.7657 -1.6419
 6033SOL     OW18676   2.117   8.846   0.811 -0.0730  0.3808 -0.1326
 6033SOL    HW118677   2.050   8.909   0.785  0.1360  0.5441 -0.2683
 6033SOL    HW218678   2.093   8.823   0.901  0.7072  1.7855  0.4667
 6034SOL     OW18679   3.116   4.521   2.696  0.0436 -0.5894  0.1018
 6034SOL    HW118680   3.165   4.587   2.647  0.9265 -2.3306 -1.5013
 6034SOL    HW218681   3.080   4.568   2.771  1.3419  1.4982 -0.5056
 6035SOL     OW18682   0.673   0.686   7.574  0.1115 -0.0255  0.0512
 6035SOL    HW118683   0.755   0.716   7.535  0.1661 -0.7436 -0.4206
 6035SOL    HW218684   0.696   0.602   7.615 -0.7083 -1.0729 -1.5168
 6036SOL     OW18685   3.988   6.199   3.944  0.3427 -0.0305  0.4480
 6036SOL    HW118686   3.924   6.135   3.913 -0.4560  0.3463  1.2738
 6036SOL    HW218687   3.938   6.258   4.001  1.6254 -0.3647  1.9939
 6037SOL     OW18688   6.378   9.384   4.962 -0.2627 -0.5378  0.2091
 6037SOL    HW118689   6.372   9.291   4.981  1.3662 -0.3015  2.3109
 6037SOL    HW218690   6.432   9.389   4.883 -1.0013 -1.3771 -0.3602
 6038SOL     OW18691   7.470   4.718   0.757 -0.0141 -0.0540  0.2260
 6038SOL    HW118692   7.545   4.769   0.786 -0.6614  0.4153  1.0948
 6038SOL    HW218693   7.396   4.779   0.759 -0.4272 -0.5134 -0.6022
 6039SOL     OW18694   5.398   7.198   8.210  0.5535 -0.4342  0.4420
 6039SOL    HW118695   5.435   7.287   8.209 -0.0596 -0.1257 -2.3358
 6039SOL    HW218696   5.304   7.212   8.226  0.3171 -0.4554 -0.7996
 6040SOL     OW18697   2.548   2.017   4.462 -0.2950 -0.8156 -0.0287
 6040SOL    HW118698   2.495   2.097   4.462  1.3548  0.3554 -1.6112
 6040SOL    HW218699   2.630   2.043   4.504 -0.0527 -1.9369  0.2249
 6041SOL     OW18700   8.218   3.386   4.830 -0.1100 -0.1233 -0.0248
 6041SOL    HW118701   8.123   3.376   4.837 -0.5255  2.5404 -0.6620
 6041SOL    HW218702   8.242   3.437   4.908  0.5309  0.5214 -0.6332
 6042SOL     OW18703   4.082   5.187   3.001  0.4593 -0.0368  0.5811
 6042SOL    HW118704   4.003   5.134   3.016 -0.3185  1.3522  1.6524
 6042SOL    HW218705   4.083   5.202   2.907  0.5459 -1.6829  0.2850
 6043SOL     OW18706   9.271   5.841   2.427 -0.5708  0.3190  0.1999
 6043SOL    HW118707   9.237   5.908   2.487  1.7717  0.1658  1.8543
 6043SOL    HW218708   9.333   5.888   2.372  0.3348 -0.2640  0.6949
 6044SOL     OW18709   0.234   2.464   2.714  0.0807 -0.0861  0.1375
 6044SOL    HW118710   0.218   2.408   2.638 -2.7568  0.5308  0.1865
 6044SOL    HW218711   0.323   2.497   2.701  0.1150 -0.9665 -2.2843
 6045SOL     OW18712   1.108   0.529   6.830 -0.0699 -0.3517 -0.3668
 6045SOL    HW118713   1.029   0.509   6.880  0.4898  2.0872  1.7041
 6045SOL    HW218714   1.109   0.465   6.759 -2.8180 -1.7132  0.7024
 6046SOL     OW18715   6.879   0.210   7.786 -0.2648  0.4726 -0.5917
 6046SOL    HW118716   6.952   0.173   7.836 -0.7143  1.1190  0.5876
 6046SOL    HW218717   6.862   0.146   7.717  1.7412  0.5560 -1.2299
 6047SOL     OW18718   8.710   5.339   8.309 -0.3537  0.0728  0.2123
 6047SOL    HW118719   8.781   5.277   8.291 -0.3616 -0.0647  0.6567
 6047SOL    HW218720   8.754   5.424   8.315 -0.2503  0.0140  0.2914
 6048SOL     OW18721   9.944   3.140   2.182  1.2472  0.6191  0.1113
 6048SOL    HW118722   9.887   3.072   2.147  0.6221  0.4491  1.4033
 6048SOL    HW218723  10.028   3.125   2.139  1.0243 -0.7637  0.1184
 6049SOL     OW18724   0.146   1.274   5.276 -0.1615 -0.2722 -0.6429
 6049SOL    HW118725   0.125   1.361   5.309 -0.7947 -0.4346 -0.6152
 6049SOL    HW218726   0.216   1.243   5.334  2.4325  1.4702 -2.5710
 6050SOL     OW18727   5.091   6.581   0.353 -0.0078 -0.3339 -0.1207
 6050SOL    HW118728   5.179   6.552   0.327  0.2110  1.6787 -1.9709
 6050SOL    HW218729   5.107   6.642   0.426  0.1639  0.0211 -0.4473
 6051SOL     OW18730   8.841   1.925   7.178  0.0198 -0.3506 -0.0499
 6051SOL    HW118731   8.790   1.882   7.247 -0.3152 -1.1632 -0.7906
 6051SOL    HW218732   8.919   1.957   7.223 -1.2505  1.2123  1.1959
 6052SOL     OW18733   6.849   6.816   1.326 -0.0142 -0.4164  0.7074
 6052SOL    HW118734   6.902   6.895   1.334  0.5231 -0.5465 -1.0153
 6052SOL    HW218735   6.833   6.808   1.232 -0.9869 -1.7608  0.9593
 6053SOL     OW18736   2.483   1.132   3.844 -0.1501 -0.6026  0.2045
 6053SOL    HW118737   2.395   1.145   3.879 -0.7703  0.7347 -1.6649
 6053SOL    HW218738   2.469   1.111   3.752  1.4611  1.7005 -0.6686
 6054SOL     OW18739   0.631   2.295   1.564  0.7581 -0.0338 -0.5468
 6054SOL    HW118740   0.565   2.350   1.607  2.6430  1.5464  0.5096
 6054SOL    HW218741   0.588   2.262   1.486 -1.7530 -0.3274  0.8663
 6055SOL     OW18742   9.330   9.254   4.595 -0.2274  0.5453 -0.0065
 6055SOL    HW118743   9.399   9.198   4.559  0.8410  1.7298  0.1305
 6055SOL    HW218744   9.375   9.306   4.661 -0.8221  2.6858 -1.2207
 6056SOL     OW18745   1.700   4.191   9.378 -0.3777 -0.2065  0.4851
 6056SOL    HW118746   1.776   4.249   9.375 -0.8120  0.5697  2.7300
 6056SOL    HW218747   1.730   4.109   9.338  1.2275  0.5071  0.1639
 6057SOL     OW18748   9.124   1.119   2.218 -1.2086  0.0476  0.6635
 6057SOL    HW118749   9.205   1.157   2.184 -1.0754 -0.4764  0.3894
 6057SOL    HW218750   9.128   1.136   2.312 -0.4184 -0.6191  0.7649
 6058SOL     OW18751   9.732   6.804   9.567 -0.1725  0.2744 -0.0467
 6058SOL    HW118752   9.663   6.823   9.631 -0.2699  2.1253 -0.6433
 6058SOL    HW218753   9.688   6.806   9.483  0.3433 -0.0603 -0.3292
 6059SOL     OW18754   7.080   3.891   8.994 -0.6853 -0.1229  0.3604
 6059SOL    HW118755   7.052   3.955   9.060 -1.1074  0.7732 -0.6583
 6059SOL    HW218756   7.029   3.812   9.014 -0.4341 -0.0328  1.4037
 6060SOL     OW18757   1.595   5.209   6.441  0.1257 -0.2393  0.7233
 6060SOL    HW118758   1.682   5.170   6.444 -0.2023 -1.0428  3.5965
 6060SOL    HW218759   1.536   5.135   6.427 -0.2350 -0.1944  1.8563
 6061SOL     OW18760   0.823   8.970   9.021 -0.5281  0.0877 -0.7463
 6061SOL    HW118761   0.777   8.999   9.099 -2.9761 -1.1788 -1.6059
 6061SOL    HW218762   0.895   8.916   9.054 -0.1828  1.3391  0.6371
 6062SOL     OW18763   1.674   6.020   0.149  0.1965  0.2398 -0.1100
 6062SOL    HW118764   1.700   6.000   0.059  1.2067  2.1819 -0.2879
 6062SOL    HW218765   1.611   5.951   0.171  2.2886 -2.1894 -1.1546
 6063SOL     OW18766   3.852   1.812   8.634 -0.0782  0.3566 -0.0140
 6063SOL    HW118767   3.942   1.844   8.627 -0.1268  1.0005  1.7660
 6063SOL    HW218768   3.801   1.890   8.658 -0.5557 -0.5884  2.2468
 6064SOL     OW18769   0.920   2.690   8.064  0.1160 -0.3324  0.0526
 6064SOL    HW118770   0.836   2.733   8.050  0.9373  1.5413  0.5770
 6064SOL    HW218771   0.930   2.632   7.989 -0.9874  0.5026 -0.7753
 6065SOL     OW18772   3.778   9.231   3.658  0.3423  0.2834 -0.2985
 6065SOL    HW118773   3.695   9.274   3.678 -0.1741  0.1892 -2.0376
 6065SOL    HW218774   3.801   9.184   3.738 -1.1079  0.5907  0.3304
 6066SOL     OW18775   2.181   6.960   5.125  0.3697  0.3731 -0.4547
 6066SOL    HW118776   2.227   7.036   5.161 -0.4044  0.4770  0.3397
 6066SOL    HW218777   2.248   6.911   5.079  1.3326  0.3934  0.8797
 6067SOL     OW18778   5.602   2.833   7.617  0.1360  0.3534 -0.2225
 6067SOL    HW118779   5.523   2.814   7.668 -0.4094 -1.7268 -1.7255
 6067SOL    HW218780   5.626   2.750   7.578  1.8942  1.3922 -1.4867
 6068SOL     OW18781   1.469   2.724   9.050 -0.3827 -0.2642 -0.6832
 6068SOL    HW118782   1.481   2.660   8.979 -0.9744 -0.4485 -0.6268
 6068SOL    HW218783   1.442   2.804   9.005 -2.3537 -0.8136 -0.5940
 6069SOL     OW18784   7.468   6.686   6.785 -0.1936  0.6599  0.4925
 6069SOL    HW118785   7.419   6.619   6.738 -0.0406  0.9787 -0.1369
 6069SOL    HW218786   7.472   6.760   6.724  2.0380  0.2471  0.0306
 6070SOL     OW18787   8.208   1.963   9.063 -0.2038  0.2515 -0.7291
 6070SOL    HW118788   8.129   1.969   9.118  1.4345  0.0673  1.7891
 6070SOL    HW218789   8.270   1.913   9.116  1.8886  1.0808 -2.2950
 6071SOL     OW18790   3.071   9.972   7.105  0.0182  0.1633 -0.1620
 6071SOL    HW118791   3.093   9.883   7.078  1.6393  1.1461 -2.4487
 6071SOL    HW218792   3.105   9.980   7.194 -1.6494 -1.9463  0.7437
 6072SOL     OW18793   9.737   0.816   2.564 -0.0931 -0.0086 -0.2781
 6072SOL    HW118794   9.664   0.766   2.526  0.3550  0.2297 -1.5085
 6072SOL    HW218795   9.744   0.894   2.508 -0.0945  0.9117  0.9696
 6073SOL     OW18796   2.632   6.316   3.870 -0.1112 -0.0125  0.4437
 6073SOL    HW118797   2.710   6.260   3.879 -0.0909 -0.1555 -0.5584
 6073SOL    HW218798   2.641   6.356   3.784 -1.5497 -0.6635 -0.0383
 6074SOL     OW18799   3.653   1.280   5.836  0.3590 -0.0092  0.0075
 6074SOL    HW118800   3.559   1.296   5.843  0.4520  0.6489 -0.1950
 6074SOL    HW218801   3.678   1.318   5.752  0.8069 -0.1977  0.0492
 6075SOL     OW18802   2.849   7.423   6.397 -0.3663 -0.2503  0.0923
 6075SOL    HW118803   2.780   7.465   6.449  0.7663 -2.7308  4.0886
 6075SOL    HW218804   2.913   7.492   6.382 -1.1070  0.7876  1.4390
 6076SOL     OW18805   8.141   6.913   5.999 -0.1866 -0.0870 -0.2622
 6076SOL    HW118806   8.071   6.956   6.049  0.6536 -0.4673  1.3010
 6076SOL    HW218807   8.129   6.820   6.016  1.7402 -0.0684  1.5153
 6077SOL     OW18808   7.270   3.986   8.454 -0.6788  0.3798  0.0440
 6077SOL    HW118809   7.361   4.003   8.429  0.3482 -3.0105  1.0088
 6077SOL    HW218810   7.276   3.935   8.534 -3.3480 -1.6046 -0.8882
 6078SOL     OW18811   2.725   1.785   7.698  0.6223  0.0702  0.3087
 6078SOL    HW118812   2.815   1.807   7.724  1.3766 -1.3056 -0.9445
 6078SOL    HW218813   2.699   1.856   7.639  1.3883 -0.1544 -0.3215
 6079SOL     OW18814   0.009   6.455   0.515  0.1762 -0.0039 -0.3388
 6079SOL    HW118815   0.073   6.478   0.447  0.8205  0.6599  0.4617
 6079SOL    HW218816  -0.074   6.447   0.468  0.9838 -1.8157 -1.5488
 6080SOL     OW18817   9.734   8.358   8.618 -0.6659 -0.4780 -0.0346
 6080SOL    HW118818   9.665   8.311   8.572  0.4985 -2.4126  0.0966
 6080SOL    HW218819   9.795   8.384   8.549 -1.2866  0.9201 -0.1071
 6081SOL     OW18820   8.094   8.532   8.688  0.5035  0.1853 -0.2230
 6081SOL    HW118821   8.018   8.543   8.632  0.2915  0.5655  0.1416
 6081SOL    HW218822   8.058   8.512   8.774  0.8174 -2.5716 -0.6204
 6082SOL     OW18823   9.453   9.606   2.145 -0.4526  0.2831 -0.4177
 6082SOL    HW118824   9.533   9.559   2.170 -1.1777  0.4627  2.6814
 6082SOL    HW218825   9.484   9.693   2.120  0.4848 -0.3120 -1.3906
 6083SOL     OW18826   6.708   3.219   1.666  0.0212 -0.0177 -0.0813
 6083SOL    HW118827   6.751   3.135   1.647  0.4764 -0.4581  2.4929
 6083SOL    HW218828   6.655   3.201   1.744 -2.4891  1.3117 -1.3950
 6084SOL     OW18829   6.911   1.091   1.665 -0.6341 -0.3026 -0.6053
 6084SOL    HW118830   6.936   0.998   1.657  0.2554 -0.0342 -1.0879
 6084SOL    HW218831   6.993   1.139   1.651 -1.1897  0.5791 -0.9297
 6085SOL     OW18832   3.690   8.757   6.081 -0.4558 -0.2888  0.6830
 6085SOL    HW118833   3.725   8.726   6.164  0.2342 -1.2172  0.0711
 6085SOL    HW218834   3.762   8.807   6.041  0.5949 -2.9005 -0.9556
 6086SOL     OW18835   7.796   6.919   0.889 -0.0934 -0.4669  1.1377
 6086SOL    HW118836   7.883   6.959   0.890  0.3194 -1.3466  1.2122
 6086SOL    HW218837   7.792   6.869   0.971  0.6533 -3.1704 -0.3365
 6087SOL     OW18838   6.447   5.374   0.346 -0.2762 -0.1520 -0.5767
 6087SOL    HW118839   6.476   5.288   0.318  1.0753  0.1542 -0.2023
 6087SOL    HW218840   6.381   5.357   0.413  0.1034 -0.9062 -0.3843
 6088SOL     OW18841   5.153   4.497   7.365  0.6743  0.0314 -0.1613
 6088SOL    HW118842   5.078   4.521   7.310  0.6202 -1.5343 -0.8320
 6088SOL    HW218843   5.223   4.479   7.302  1.2309  0.1942  0.4049
 6089SOL     OW18844   5.394   2.615   6.340  0.0576  0.6728 -0.7552
 6089SOL    HW118845   5.424   2.706   6.331 -0.2983  1.0871  1.5327
 6089SOL    HW218846   5.311   2.613   6.293 -1.3132  2.3483  1.3969
 6090SOL     OW18847   9.813   8.141   2.929  0.0900 -0.5779  0.1272
 6090SOL    HW118848   9.720   8.163   2.941 -0.3623 -0.6646 -2.6164
 6090SOL    HW218849   9.822   8.054   2.968 -1.2546 -1.0046 -0.4324
 6091SOL     OW18850   2.212   5.846   8.631 -0.3844 -0.7339  0.1614
 6091SOL    HW118851   2.287   5.842   8.690 -0.6145 -0.1968  0.4981
 6091SOL    HW218852   2.183   5.937   8.635 -1.0091 -0.9187 -0.0152
 6092SOL     OW18853   2.864   5.424   9.838  0.4354 -0.1072  0.0983
 6092SOL    HW118854   2.775   5.401   9.861  0.8363 -0.2792  1.5680
 6092SOL    HW218855   2.871   5.517   9.858 -0.1117  0.5380 -2.3894
 6093SOL     OW18856   7.762   5.978   4.584  0.7624 -0.6120 -0.9991
 6093SOL    HW118857   7.776   6.052   4.525 -0.2690 -0.7564 -1.4574
 6093SOL    HW218858   7.764   5.901   4.528 -2.2907 -0.6075 -1.2821
 6094SOL     OW18859   0.441   2.125   7.638  0.2490  0.9523 -0.0294
 6094SOL    HW118860   0.453   2.201   7.582  0.0998  1.3814  0.5222
 6094SOL    HW218861   0.383   2.067   7.588  1.5037  0.5347 -1.0851
 6095SOL     OW18862   2.447   0.915   5.467  0.1100  0.6836  0.0668
 6095SOL    HW118863   2.391   0.856   5.516  0.2780 -1.8770 -2.5507
 6095SOL    HW218864   2.532   0.872   5.465  0.9111  2.1889  0.0268
 6096SOL     OW18865   7.898   5.314   8.671  0.4819 -0.3761 -0.1207
 6096SOL    HW118866   7.943   5.395   8.696 -1.1034  0.3806  0.4062
 6096SOL    HW218867   7.899   5.261   8.751  1.7424 -1.0163 -0.5350
 6097SOL     OW18868   4.080   2.080   0.029  0.1086 -0.1512  0.2307
 6097SOL    HW118869   4.000   2.110   0.072  0.7305  1.3325  0.4160
 6097SOL    HW218870   4.073   1.984   0.029 -1.0555 -0.0888  1.3901
 6098SOL     OW18871   7.428   2.374   8.583 -0.2744 -0.2800  0.0594
 6098SOL    HW118872   7.371   2.305   8.617 -1.0055 -0.2772 -1.1118
 6098SOL    HW218873   7.390   2.397   8.498 -0.4303  2.0236  0.7049
 6099SOL     OW18874   6.339   0.901   2.370 -0.2528  0.4071 -0.1993
 6099SOL    HW118875   6.304   0.978   2.415  1.9426  0.5023  1.5243
 6099SOL    HW218876   6.401   0.864   2.432  1.1637 -0.8746 -2.2753
 6100SOL     OW18877   2.557   2.085   9.125 -0.0743  0.2426  0.3402
 6100SOL    HW118878   2.557   1.989   9.119  0.1021  0.1461  1.6002
 6100SOL    HW218879   2.642   2.111   9.090 -0.0332 -0.0713  0.1983
 6101SOL     OW18880   4.866   3.266   1.602 -0.6652 -0.5671 -0.0151
 6101SOL    HW118881   4.932   3.326   1.566 -1.0275 -0.6297 -0.8096
 6101SOL    HW218882   4.874   3.276   1.696 -0.5070  0.5097 -0.1294
 6102SOL     OW18883   4.569   5.673   1.065  0.6642 -0.3608 -0.0742
 6102SOL    HW118884   4.493   5.619   1.045  1.1193 -0.7231 -0.8942
 6102SOL    HW218885   4.584   5.661   1.158 -0.8441  0.4545  0.3045
 6103SOL     OW18886   8.758   8.510   5.062 -0.0386  0.1620  0.4595
 6103SOL    HW118887   8.736   8.473   4.977  0.2537 -0.7116  0.7538
 6103SOL    HW218888   8.689   8.574   5.079 -1.0738 -0.8937  0.3476
 6104SOL     OW18889   8.794   9.760   6.397 -0.2477  0.6101  0.3504
 6104SOL    HW118890   8.763   9.744   6.487  0.1087  2.7811  0.9238
 6104SOL    HW218891   8.829   9.676   6.368 -1.0277 -0.3236  1.9759
 6105SOL     OW18892   4.736   5.152   0.641 -0.4981  0.4427  0.2367
 6105SOL    HW118893   4.770   5.176   0.555  0.0803  0.9864  0.6051
 6105SOL    HW218894   4.808   5.105   0.683 -0.5098  0.8329  0.6963
 6106SOL     OW18895   6.314   9.062   5.239  0.3100 -0.0861  0.6049
 6106SOL    HW118896   6.387   9.019   5.283  0.5756 -0.1238  0.1275
 6106SOL    HW218897   6.346   9.080   5.151  0.1189  0.8538  0.7164
 6107SOL     OW18898   0.191   9.135   6.062 -0.4905  0.0062 -0.5825
 6107SOL    HW118899   0.271   9.183   6.040 -1.0790  1.5871  0.4914
 6107SOL    HW218900   0.212   9.088   6.142 -1.0788  1.8386  0.7256
 6108SOL     OW18901   9.661   8.121   1.669 -0.1342 -0.6749 -0.1872
 6108SOL    HW118902   9.622   8.146   1.753  0.3271 -0.6622  0.0252
 6108SOL    HW218903   9.589   8.127   1.606 -0.3505 -0.1516  0.1081
 6109SOL     OW18904   6.977   3.127   7.775  0.0797 -0.0052 -0.2158
 6109SOL    HW118905   6.958   3.033   7.780  1.9722 -0.4037  0.4587
 6109SOL    HW218906   6.995   3.153   7.865 -0.3181  0.9908 -0.4143
 6110SOL     OW18907   4.586   7.092   3.080  0.2314  0.5650  0.9098
 6110SOL    HW118908   4.641   7.164   3.111 -1.3422  1.3328  2.0671
 6110SOL    HW218909   4.576   7.035   3.157  0.1411 -0.0351  0.4555
 6111SOL     OW18910   6.787   3.854   5.850 -0.4149 -0.6561 -0.8568
 6111SOL    HW118911   6.879   3.845   5.873 -0.5717 -1.8685 -0.6160
 6111SOL    HW218912   6.740   3.823   5.927 -0.9877 -1.6274 -1.5607
 6112SOL     OW18913   5.764   9.070   0.064  0.0331 -0.4081  0.3546
 6112SOL    HW118914   5.683   9.116   0.044  0.0759  0.5292  2.1443
 6112SOL    HW218915   5.737   8.997   0.121  0.4102 -0.2154  0.7879
 6113SOL     OW18916   7.148   4.636   9.403 -0.2764 -0.2356 -0.3807
 6113SOL    HW118917   7.081   4.694   9.367  2.0096  1.7469 -1.7029
 6113SOL    HW218918   7.108   4.597   9.481 -2.6988  1.3402 -0.7637
 6114SOL     OW18919   0.276   1.113   8.972 -0.1707  0.1799  0.6026
 6114SOL    HW118920   0.349   1.076   8.922 -0.2725 -1.1880  1.4437
 6114SOL    HW218921   0.318   1.162   9.043 -0.0328  1.9397 -0.6030
 6115SOL     OW18922   5.551   9.214  -0.003 -0.5617 -0.2809 -0.2216
 6115SOL    HW118923   5.546   9.222   0.092 -0.5055 -0.1217 -0.2307
 6115SOL    HW218924   5.462   9.231  -0.033 -0.4722  0.1789 -0.2302
 6116SOL     OW18925   5.072   2.011   3.898 -0.5772 -0.4012  0.7706
 6116SOL    HW118926   5.067   2.025   3.804 -0.4326  0.7590  0.9222
 6116SOL    HW218927   4.983   1.988   3.924 -1.0419  1.1396  0.6180
 6117SOL     OW18928   9.690   1.218   8.513 -0.2834 -0.1859  0.2851
 6117SOL    HW118929   9.705   1.131   8.551 -1.6416 -0.3173  0.5475
 6117SOL    HW218930   9.602   1.214   8.476  0.0117  0.7820 -0.5693
 6118SOL     OW18931   6.313   2.917   6.698  0.0734  0.0303 -0.2615
 6118SOL    HW118932   6.244   2.924   6.764  0.9069 -2.2161  0.9604
 6118SOL    HW218933   6.385   2.969   6.734  1.3521 -2.9492  1.9014
 6119SOL     OW18934   3.160   8.607   5.088  0.4422 -0.4325  0.4459
 6119SOL    HW118935   3.084   8.664   5.096  1.5563  0.9856  1.2451
 6119SOL    HW218936   3.167   8.564   5.174  0.7059 -0.3612  0.4603
 6120SOL     OW18937   3.583   2.721   9.554  0.1189 -0.3567 -0.3094
 6120SOL    HW118938   3.612   2.810   9.576 -0.6381 -0.2797  0.4261
 6120SOL    HW218939   3.664   2.673   9.538  0.5157  0.5766 -1.1568
 6121SOL     OW18940   4.713   3.935   9.358  0.2285 -0.3367 -0.8907
 6121SOL    HW118941   4.697   3.843   9.375 -2.2039  0.0498 -0.7337
 6121SOL    HW218942   4.808   3.946   9.368  0.3134 -2.3664  1.1672
 6122SOL     OW18943   4.067   4.074   9.134 -0.0816 -0.6698  0.2310
 6122SOL    HW118944   4.087   4.024   9.213 -0.2332 -0.9714  0.0798
 6122SOL    HW218945   4.148   4.121   9.114 -0.5931  0.9204  1.6507
 6123SOL     OW18946   9.326   3.158   5.042 -0.3439 -0.0033  0.5475
 6123SOL    HW118947   9.395   3.093   5.055 -1.8048 -1.4666  1.5454
 6123SOL    HW218948   9.256   3.130   5.103 -1.9520  1.1493 -0.6891
 6124SOL     OW18949   7.335   6.084   7.473  0.4302  0.4854  0.0310
 6124SOL    HW118950   7.321   6.143   7.399  0.6727  0.1470 -0.2848
 6124SOL    HW218951   7.249   6.075   7.513  0.5925  2.0097  0.8072
 6125SOL     OW18952   9.748   4.834   3.140  0.0834  0.3814  0.7894
 6125SOL    HW118953   9.672   4.873   3.184 -0.9117 -0.1037 -0.4329
 6125SOL    HW218954   9.713   4.755   3.098  1.4126 -0.1985  0.7266
 6126SOL     OW18955   0.519   2.181   9.829  0.4462 -0.9119 -0.1646
 6126SOL    HW118956   0.582   2.164   9.899 -0.3262 -0.6392  0.6212
 6126SOL    HW218957   0.550   2.262   9.789 -0.6434  0.5469  1.7449
 6127SOL     OW18958   0.487   8.614   8.491 -0.1268  0.1596  0.2741
 6127SOL    HW118959   0.443   8.553   8.432  0.3974  0.2617 -0.2210
 6127SOL    HW218960   0.567   8.568   8.518  0.1631  0.5374  0.0656
 6128SOL     OW18961   7.017   3.444   6.725  0.2153 -0.1615 -0.0609
 6128SOL    HW118962   7.107   3.425   6.699  0.3145  0.9130 -0.5782
 6128SOL    HW218963   6.962   3.394   6.664  0.4621  0.8412 -1.1383
 6129SOL     OW18964   8.532   5.657   6.135  0.3760  0.1410  0.2595
 6129SOL    HW118965   8.466   5.679   6.201  0.2091  0.3285  0.0307
 6129SOL    HW218966   8.613   5.647   6.185  0.2035  0.0449  0.5232
 6130SOL     OW18967   8.560   2.248   6.060  0.3796 -0.5515  0.0613
 6130SOL    HW118968   8.643   2.273   6.100  0.3673 -1.2731  0.5578
 6130SOL    HW218969   8.496   2.309   6.096  0.6362 -0.2223 -0.0437
 6131SOL     OW18970   1.107   8.140   1.128 -0.1757 -0.0305  0.0411
 6131SOL    HW118971   1.132   8.211   1.070 -1.1882  1.9917  1.9233
 6131SOL    HW218972   1.065   8.183   1.202 -0.2958 -2.5721  1.5828
 6132SOL     OW18973   7.314   8.223   4.451  0.0863  0.2835  0.2199
 6132SOL    HW118974   7.407   8.202   4.444 -0.5901 -2.6785 -2.0340
 6132SOL    HW218975   7.282   8.167   4.522 -0.2999 -0.1596 -0.2998
 6133SOL     OW18976   1.103   0.225   6.198 -0.6957  0.0847  0.0157
 6133SOL    HW118977   1.030   0.241   6.258  1.1529  1.7571  2.0279
 6133SOL    HW218978   1.091   0.288   6.127 -0.1240  1.9157  1.4701
 6134SOL     OW18979   4.470   9.637   1.878  0.1710 -0.3811  0.4018
 6134SOL    HW118980   4.447   9.544   1.886 -2.0561 -0.0288 -1.0084
 6134SOL    HW218981   4.483   9.650   1.785 -2.4815  1.2530  0.1541
 6135SOL     OW18982   2.174   3.442   1.524 -0.0948 -0.0958  0.2350
 6135SOL    HW118983   2.151   3.431   1.431  1.7494 -0.0459 -0.2670
 6135SOL    HW218984   2.125   3.519   1.552  0.5429  0.8632 -1.1683
 6136SOL     OW18985   8.661   2.380   3.198 -0.1095 -0.2399 -0.3161
 6136SOL    HW118986   8.629   2.290   3.204  0.1711 -0.2912  0.5693
 6136SOL    HW218987   8.746   2.378   3.242  1.1104 -0.0790 -2.4991
 6137SOL     OW18988   0.956   3.354   5.428  0.3119 -0.3516  0.0179
 6137SOL    HW118989   0.985   3.283   5.371  0.1343 -0.5884  0.2216
 6137SOL    HW218990   0.867   3.373   5.399 -0.5098 -1.7600  1.4305
 6138SOL     OW18991   8.535   7.504   5.027  0.0558 -0.0464  0.0761
 6138SOL    HW118992   8.521   7.455   5.108  2.2483 -0.1481  0.4437
 6138SOL    HW218993   8.447   7.514   4.990 -0.6150 -3.2241  0.5553
 6139SOL     OW18994   1.439   4.005   8.613  0.1106 -0.6792 -0.1832
 6139SOL    HW118995   1.478   4.028   8.698 -0.5946 -0.1777  0.0180
 6139SOL    HW218996   1.394   4.085   8.586  0.1232 -0.9178 -0.9179
 6140SOL     OW18997   7.503   9.839   7.214  0.6235  0.3576 -0.1478
 6140SOL    HW118998   7.467   9.762   7.169 -1.1299  0.6684  0.6197
 6140SOL    HW218999   7.591   9.849   7.179 -0.3331  0.0760 -2.8335
 6141SOL     OW19000   5.539   2.790   6.061  0.2195 -0.0185  0.2474
 6141SOL    HW119001   5.584   2.801   5.977  0.0422  0.0593  0.1614
 6141SOL    HW219002   5.601   2.741   6.115  0.6751  0.6429  0.3401
 6142SOL     OW19003   6.264   5.297   9.073  0.0700 -0.6769  0.0660
 6142SOL    HW119004   6.226   5.364   9.129 -1.6206 -1.3282 -0.2521
 6142SOL    HW219005   6.358   5.313   9.078 -0.2267  1.1094  0.7367
 6143SOL     OW19006   6.702   1.894   6.140  0.3845 -0.2556  0.3418
 6143SOL    HW119007   6.763   1.913   6.069  0.0543 -0.9615 -0.1371
 6143SOL    HW219008   6.616   1.915   6.105  0.2130 -0.6815  0.5072
 6144SOL     OW19009   8.217   6.347   9.812  0.8902  0.0978  0.5071
 6144SOL    HW119010   8.216   6.365   9.906 -1.7304 -0.3896  0.6510
 6144SOL    HW219011   8.155   6.410   9.775  0.7690 -0.6758 -0.6630
 6145SOL     OW19012   5.972   4.034   1.286 -0.2271 -0.4087  0.5186
 6145SOL    HW119013   5.961   4.045   1.381  2.6832  1.8779  0.7484
 6145SOL    HW219014   5.962   3.940   1.271 -1.3320 -0.7737  2.9634
 6146SOL     OW19015   7.688   3.437   8.484 -0.0778  0.2152 -0.4353
 6146SOL    HW119016   7.628   3.395   8.545 -0.3462  1.0028 -0.1457
 6146SOL    HW219017   7.759   3.471   8.538  1.1373 -1.4978 -0.8668
 6147SOL     OW19018   5.838   8.617   6.628  0.2505  0.1920  0.5342
 6147SOL    HW119019   5.864   8.575   6.710  0.4314 -0.4306  0.1659
 6147SOL    HW219020   5.916   8.612   6.573 -0.8317 -2.5452 -0.9332
 6148SOL     OW19021   4.713   1.293   3.578  0.1920  0.6796 -0.1650
 6148SOL    HW119022   4.629   1.319   3.541 -0.4493 -0.9755  0.0133
 6148SOL    HW219023   4.764   1.262   3.504 -0.8910 -2.1136  0.1258
 6149SOL     OW19024   0.166   8.138   1.082  0.3756  0.2542 -0.2743
 6149SOL    HW119025   0.231   8.187   1.132 -0.3250 -0.5279  1.4497
 6149SOL    HW219026   0.161   8.184   0.998 -0.0465  2.9446  1.1479
 6150SOL     OW19027   8.774   9.087   2.255 -0.0815  0.0405  0.2718
 6150SOL    HW119028   8.778   9.181   2.242 -2.1791 -0.0666 -1.7210
 6150SOL    HW219029   8.863   9.056   2.237  0.5066  1.5553  0.4555
 6151SOL     OW19030   7.918   7.994   0.215 -0.1420 -0.1287 -0.1278
 6151SOL    HW119031   7.832   7.955   0.227  0.2352 -0.9337  0.0685
 6151SOL    HW219032   7.976   7.943   0.272 -0.0626  2.4964  2.3588
 6152SOL     OW19033   0.690   5.653   0.015  0.1313  0.5377 -0.4134
 6152SOL    HW119034   0.734   5.607   0.087 -0.3655  1.1528  0.3033
 6152SOL    HW219035   0.691   5.591  -0.058 -0.2162 -0.4801  0.4206
 6153SOL     OW19036   8.680   6.377   4.125 -0.0343  0.5272  0.0137
 6153SOL    HW119037   8.656   6.469   4.113  1.2348  0.7923 -0.6252
 6153SOL    HW219038   8.720   6.352   4.042  0.3071 -0.3888  0.4462
 6154SOL     OW19039   2.498   4.630   0.981  0.1524 -0.4772 -0.4577
 6154SOL    HW119040   2.538   4.589   0.904  0.4494 -0.4204 -0.3327
 6154SOL    HW219041   2.508   4.564   1.050 -0.9642 -0.9203 -0.7006
 6155SOL     OW19042   7.471   9.109   2.858  0.0835 -0.1492 -0.2013
 6155SOL    HW119043   7.551   9.094   2.908  0.4161  1.0698 -0.3352
 6155SOL    HW219044   7.401   9.102   2.923  0.6074  3.1826  0.9548
 6156SOL     OW19045   3.337   0.981   9.921 -0.0235  0.0627 -0.2630
 6156SOL    HW119046   3.248   0.945   9.912 -0.0876  0.2894 -0.5497
 6156SOL    HW219047   3.337   1.023  10.007  0.0103 -0.5073  0.0198
 6157SOL     OW19048   2.815   3.887   2.959 -0.2765 -0.0547  0.2624
 6157SOL    HW119049   2.773   3.893   2.873 -0.5696  0.3048  0.4268
 6157SOL    HW219050   2.830   3.794   2.972  1.5040  0.0008 -1.0035
 6158SOL     OW19051   1.064   9.061   7.884 -0.1931  0.2575 -0.3976
 6158SOL    HW119052   1.154   9.093   7.895 -0.2468  0.4630 -0.5581
 6158SOL    HW219053   1.023   9.077   7.969  0.2853 -1.0143  0.0957
 6159SOL     OW19054   2.825   7.766   4.507 -0.3204 -0.3480 -0.0650
 6159SOL    HW119055   2.871   7.771   4.422 -0.9723  1.3726 -0.3649
 6159SOL    HW219056   2.736   7.740   4.484 -0.1182 -1.3858  0.2768
 6160SOL     OW19057   7.467   8.677   7.452 -0.5372  0.0587  0.4515
 6160SOL    HW119058   7.558   8.650   7.441 -1.3221 -2.0624 -1.9865
 6160SOL    HW219059   7.431   8.615   7.516 -0.4598  0.3747  0.8004
 6161SOL     OW19060   2.083   0.030   3.927  0.3566 -0.2399 -0.0034
 6161SOL    HW119061   2.043   0.076   4.001  0.2373 -1.0665  0.4615
 6161SOL    HW219062   2.014   0.027   3.861 -0.2917 -1.4352  0.6990
 6162SOL     OW19063   9.546   2.159   7.100 -0.3025 -0.1116 -0.0334
 6162SOL    HW119064   9.590   2.124   7.178  0.1050 -0.4152 -0.3935
 6162SOL    HW219065   9.570   2.098   7.030  0.3809  0.8523 -0.6629
 6163SOL     OW19066   3.173   2.698   9.923  0.4343  0.0228 -0.5986
 6163SOL    HW119067   3.264   2.685   9.893  0.9390 -1.3280  1.3407
 6163SOL    HW219068   3.141   2.609   9.939 -0.0229  0.5919  2.0308
 6164SOL     OW19069   2.015   6.590   0.407  0.3029  0.2551 -0.3024
 6164SOL    HW119070   2.065   6.649   0.463 -1.8503  2.5416 -0.6126
 6164SOL    HW219071   2.064   6.587   0.325  0.5877  1.4023 -0.1856
 6165SOL     OW19072   2.538   0.775   6.336  0.2066 -0.7549  0.6749
 6165SOL    HW119073   2.451   0.813   6.345  0.6154  0.3746  0.0661
 6165SOL    HW219074   2.543   0.747   6.244  0.9850  0.5287  0.2978
 6166SOL     OW19075   5.164   8.251   2.630  0.1622  0.0281 -0.1767
 6166SOL    HW119076   5.159   8.343   2.656 -0.7952 -0.7871  2.8780
 6166SOL    HW219077   5.081   8.234   2.586 -0.0892  0.3989  0.1441
 6167SOL     OW19078   6.891   9.315   5.849 -0.2014 -0.7130 -0.2095
 6167SOL    HW119079   6.865   9.253   5.782 -2.9913  1.2405 -1.1114
 6167SOL    HW219080   6.810   9.339   5.894  1.2467 -0.2059  2.3615
 6168SOL     OW19081   5.427   1.683   1.198  0.1948 -0.2083  0.1833
 6168SOL    HW119082   5.420   1.593   1.163  0.5592  0.0692 -0.6429
 6168SOL    HW219083   5.455   1.735   1.122  0.6013  0.4970  0.8103
 6169SOL     OW19084   9.115   3.762   2.567 -0.2981  0.3297 -0.1981
 6169SOL    HW119085   9.087   3.733   2.480  0.1918  0.4295 -0.3920
 6169SOL    HW219086   9.051   3.723   2.627  0.1055 -0.8125 -0.4872
 6170SOL     OW19087   4.102   7.692   6.826 -0.2837  0.1279  0.5786
 6170SOL    HW119088   4.166   7.709   6.756 -2.2265 -0.4981 -1.4391
 6170SOL    HW219089   4.111   7.768   6.884  3.4845 -0.7347  1.4440
 6171SOL     OW19090   7.418   6.198   7.740  0.4165 -0.1424 -0.1201
 6171SOL    HW119091   7.409   6.125   7.679  1.6084 -0.2595 -0.1731
 6171SOL    HW219092   7.356   6.264   7.708  1.9098  0.3146 -2.2358
 6172SOL     OW19093   1.382   6.311   9.859 -0.3271  0.2614 -0.1159
 6172SOL    HW119094   1.289   6.303   9.839 -0.0884 -0.2353 -1.0671
 6172SOL    HW219095   1.397   6.248   9.930 -1.1900  2.0945  1.8229
 6173SOL     OW19096   7.529   6.262   1.783  0.0051 -0.0705  0.3017
 6173SOL    HW119097   7.606   6.305   1.747 -0.1627  0.3982  0.4894
 6173SOL    HW219098   7.548   6.168   1.778 -0.1793 -0.0550 -1.3847
 6174SOL     OW19099   4.623   3.953   4.290 -0.1728  0.5620 -0.1722
 6174SOL    HW119100   4.594   3.862   4.289 -3.1761  1.4307 -0.8911
 6174SOL    HW219101   4.704   3.951   4.342  0.4045 -2.6076 -0.9345
 6175SOL     OW19102   0.806   6.592   0.458 -0.5962  0.1463  0.3455
 6175SOL    HW119103   0.843   6.671   0.418  1.9806 -1.6041 -0.9894
 6175SOL    HW219104   0.746   6.557   0.392  0.2731 -0.3880 -0.1701
 6176SOL     OW19105   5.611   4.018   6.406 -0.2073 -0.2445 -0.1913
 6176SOL    HW119106   5.637   3.978   6.323  1.2525  0.2189  0.0170
 6176SOL    HW219107   5.576   4.104   6.382 -0.9448 -0.5978 -0.4167
 6177SOL     OW19108   1.631   9.349   5.928 -0.2903  0.4301 -0.6485
 6177SOL    HW119109   1.684   9.280   5.887  0.8570  1.0412 -0.2562
 6177SOL    HW219110   1.566   9.372   5.862 -0.5969 -0.9129 -0.8414
 6178SOL     OW19111   4.203   6.542   6.101  0.4673 -0.0952  0.5841
 6178SOL    HW119112   4.139   6.532   6.031  2.6192  0.0519 -1.5545
 6178SOL    HW219113   4.225   6.453   6.127  2.6635 -0.4388 -1.9963
 6179SOL     OW19114   5.777   0.208   1.765  0.1919  0.1504 -0.4028
 6179SOL    HW119115   5.865   0.198   1.802 -0.0204 -1.0115 -0.1783
 6179SOL    HW219116   5.786   0.180   1.674 -0.1152 -0.7573 -0.1565
 6180SOL     OW19117   0.610   4.309   1.894  0.1338 -0.1521 -0.4473
 6180SOL    HW119118   0.544   4.333   1.959 -0.3634  0.0580 -1.0204
 6180SOL    HW219119   0.559   4.278   1.819  0.7302 -2.8086  0.1471
 6181SOL     OW19120   8.669   4.934   1.566  0.3368 -0.1690 -0.1372
 6181SOL    HW119121   8.756   4.922   1.604 -0.1704 -1.7140  0.6019
 6181SOL    HW219122   8.613   4.871   1.612 -1.0537  0.3769 -1.0073
 6182SOL     OW19123   0.513   8.462   2.221 -0.2566 -0.3926  0.4323
 6182SOL    HW119124   0.434   8.445   2.170  0.0220 -1.0454  0.2142
 6182SOL    HW219125   0.585   8.449   2.160  0.0895 -1.3501  1.0193
 6183SOL     OW19126   3.108   3.290   8.011 -0.0482 -0.3989  0.1754
 6183SOL    HW119127   3.175   3.251   7.954  0.4964  0.4028  0.2448
 6183SOL    HW219128   3.036   3.228   8.009  0.8300 -1.4733  0.3747
 6184SOL     OW19129   4.281   7.026   1.591  0.4912  0.4469  0.4360
 6184SOL    HW119130   4.298   7.120   1.596  1.2013  0.3150  0.5850
 6184SOL    HW219131   4.229   7.015   1.511 -0.7310  1.1218  1.0902
 6185SOL     OW19132   6.043   6.669   9.918 -0.5831 -0.0165 -0.6463
 6185SOL    HW119133   6.105   6.717   9.864 -1.0154  0.9839 -0.2790
 6185SOL    HW219134   5.961   6.672   9.868 -1.1459  1.4308  0.2759
 6186SOL     OW19135   9.849   6.989   6.949 -0.0768  0.4995 -0.2780
 6186SOL    HW119136   9.842   7.013   7.041 -0.0903  1.0948 -0.4338
 6186SOL    HW219137   9.892   6.903   6.951 -1.6708 -0.3244  0.3612
 6187SOL     OW19138   8.496   0.910   2.549 -0.3541 -0.2752 -0.3706
 6187SOL    HW119139   8.548   0.833   2.528  1.3664  0.5651  0.5255
 6187SOL    HW219140   8.460   0.892   2.636 -0.9084 -0.5326 -0.6520
 6188SOL     OW19141   3.207   7.074   4.571  0.2419  0.1192 -0.1738
 6188SOL    HW119142   3.212   7.075   4.475  3.0875 -1.2965 -0.1589
 6188SOL    HW219143   3.161   7.155   4.594 -1.9597 -0.2734 -2.7233
 6189SOL     OW19144   5.100   9.237   1.135  0.1885 -0.3704  0.3200
 6189SOL    HW119145   5.191   9.241   1.105  0.3779  0.3837  0.9562
 6189SOL    HW219146   5.104   9.256   1.229 -0.6333 -0.2793  0.3481
 6190SOL     OW19147   7.868   6.478   4.332 -0.5424  0.1564  0.0892
 6190SOL    HW119148   7.918   6.551   4.370 -1.9032  0.1962  1.9380
 6190SOL    HW219149   7.776   6.502   4.345 -1.0331 -1.3255 -0.4261
 6191SOL     OW19150   2.970   1.248   1.373  0.1703  0.4732  0.1068
 6191SOL    HW119151   2.978   1.153   1.385 -0.9681  0.2233 -0.8942
 6191SOL    HW219152   2.893   1.272   1.425 -0.5023  0.5691 -0.9186
 6192SOL     OW19153   5.046   5.776   8.542  0.3240 -0.1668 -0.5786
 6192SOL    HW119154   4.975   5.838   8.557  0.5788 -0.6288  3.4554
 6192SOL    HW219155   5.120   5.830   8.515 -0.0163  1.1015  0.8871
 6193SOL     OW19156   3.010   3.600   2.006  0.7434 -0.0229 -0.3586
 6193SOL    HW119157   3.100   3.569   2.006  1.6239  2.3340 -1.0343
 6193SOL    HW219158   2.986   3.604   2.099  2.1781  1.4571  0.0055
 6194SOL     OW19159   9.255   8.910   5.675  0.1231 -1.0699 -0.3539
 6194SOL    HW119160   9.180   8.879   5.625 -0.4409  0.8120 -0.7286
 6194SOL    HW219161   9.331   8.876   5.628 -0.4447 -1.5013 -0.9750
 6195SOL     OW19162   4.650   8.880   4.975  0.1047 -0.3551 -0.2910
 6195SOL    HW119163   4.662   8.969   5.007  0.6718  0.0079 -1.4538
 6195SOL    HW219164   4.658   8.825   5.053  1.0474  0.5207  0.2510
 6196SOL     OW19165   7.223   3.012   2.227  0.2530  0.3682 -0.3791
 6196SOL    HW119166   7.296   3.008   2.289 -0.4856 -0.5388  0.4669
 6196SOL    HW219167   7.186   3.099   2.238  0.2711  0.2956  0.3029
 6197SOL     OW19168   3.597   9.143   5.463  0.5115  0.6721 -0.1646
 6197SOL    HW119169   3.644   9.226   5.471  1.1863  0.2354  0.7162
 6197SOL    HW219170   3.667   9.077   5.460  0.0020 -0.0870  2.3927
 6198SOL     OW19171   8.944   7.629   2.430 -0.2180  0.0167  0.2408
 6198SOL    HW119172   8.948   7.661   2.520 -2.4404  1.2274 -0.0207
 6198SOL    HW219173   8.915   7.705   2.379 -2.1769 -1.4658 -0.9690
 6199SOL     OW19174   0.519   9.291   3.686 -0.6028 -0.0181 -0.2599
 6199SOL    HW119175   0.605   9.332   3.674 -0.9769  0.8649  0.0278
 6199SOL    HW219176   0.518   9.219   3.622  0.0274  0.4787 -0.8398
 6200SOL     OW19177   0.405   0.807   8.187  0.2615  0.1691 -0.4671
 6200SOL    HW119178   0.355   0.777   8.263 -0.2848 -0.1122 -0.9234
 6200SOL    HW219179   0.460   0.732   8.163 -1.2037 -0.5955 -1.6914
 6201SOL     OW19180   7.114   2.431   6.023 -0.2169  0.7382 -0.2040
 6201SOL    HW119181   7.133   2.450   6.115 -0.9735 -0.4448  0.2139
 6201SOL    HW219182   7.193   2.386   5.991 -0.4788 -0.0635  0.2537
 6202SOL     OW19183   7.408   4.974   1.662  0.1618 -0.3516 -0.2354
 6202SOL    HW119184   7.332   5.032   1.664  0.9636  0.7326  0.1493
 6202SOL    HW219185   7.448   4.984   1.749  0.0549 -1.8786  0.0173
 6203SOL     OW19186   7.897   4.462   2.146 -0.3310 -0.4632  0.1126
 6203SOL    HW119187   7.890   4.460   2.051  0.9362 -0.7623  0.0083
 6203SOL    HW219188   7.896   4.556   2.168  0.5340 -0.3411 -0.3132
 6204SOL     OW19189   4.042   6.522   7.848  0.9629  0.2154  0.3569
 6204SOL    HW119190   3.988   6.472   7.909  1.3058  0.3293  0.7636
 6204SOL    HW219191   4.066   6.601   7.897  1.8795 -0.0527  0.3590
 6205SOL     OW19192   1.346   7.516   8.066 -0.0165 -0.3897 -0.4653
 6205SOL    HW119193   1.377   7.449   8.005  1.8010 -1.3859  1.4548
 6205SOL    HW219194   1.419   7.531   8.125 -1.1565  1.7145  0.5235
 6206SOL     OW19195   1.266   4.543   6.358 -0.1710  0.0924  0.0186
 6206SOL    HW119196   1.340   4.514   6.411 -0.0893  1.1385  0.5153
 6206SOL    HW219197   1.206   4.469   6.358  0.7368 -0.6596 -0.1344
 6207SOL     OW19198   5.413   9.240   9.681 -0.1401 -0.1534 -0.3613
 6207SOL    HW119199   5.447   9.256   9.593  2.2087  0.8500  0.6739
 6207SOL    HW219200   5.430   9.320   9.730 -0.4842 -1.0414  1.3049
 6208SOL     OW19201   3.635   2.710   6.598 -0.2598 -0.4139 -0.0649
 6208SOL    HW119202   3.727   2.723   6.624 -0.0905  0.1211 -0.9034
 6208SOL    HW219203   3.634   2.729   6.504 -1.1423 -0.8927 -0.1567
 6209SOL     OW19204   3.298   8.220   8.214  0.0552 -0.0687 -0.9455
 6209SOL    HW119205   3.384   8.209   8.254 -1.1377 -2.0104  1.3697
 6209SOL    HW219206   3.270   8.131   8.193 -1.5171  0.4825 -1.3528
 6210SOL     OW19207   8.449   1.720   7.057 -0.3345  0.3579 -0.2212
 6210SOL    HW119208   8.526   1.764   7.020 -0.8056 -0.2124 -1.9721
 6210SOL    HW219209   8.374   1.769   7.021 -0.8152 -0.1453  0.0803
 6211SOL     OW19210   7.396   3.650   3.564 -0.0485 -0.4063 -0.2614
 6211SOL    HW119211   7.480   3.605   3.556 -0.6249 -1.4007 -0.8854
 6211SOL    HW219212   7.400   3.720   3.500  0.4530 -0.1951 -0.0062
 6212SOL     OW19213   3.030   5.913   0.506  0.3965 -0.0875  0.0457
 6212SOL    HW119214   2.943   5.878   0.486 -0.2376  0.2968  1.8735
 6212SOL    HW219215   3.029   6.002   0.471 -1.4175  1.2948  3.1692
 6213SOL     OW19216   6.909   0.136   9.347  0.3047 -0.2103  0.2379
 6213SOL    HW119217   6.962   0.104   9.273  1.2513  1.5759  0.0959
 6213SOL    HW219218   6.939   0.085   9.422  0.0801 -1.3082 -0.3960
 6214SOL     OW19219   5.792   7.616   9.733 -0.0454 -0.3140  0.6221
 6214SOL    HW119220   5.779   7.546   9.797 -1.8100 -0.8645 -0.2862
 6214SOL    HW219221   5.723   7.680   9.752 -0.0567 -0.0696 -0.1952
 6215SOL     OW19222   0.535   4.617   8.288 -0.0646  0.4409  0.3136
 6215SOL    HW119223   0.554   4.699   8.333  1.7282 -0.1628  0.7106
 6215SOL    HW219224   0.514   4.555   8.358  0.0145  0.1849  0.1147
 6216SOL     OW19225   3.568   4.755   1.029 -0.2181 -0.3509 -0.3556
 6216SOL    HW119226   3.475   4.755   1.006 -0.1491 -2.4881 -0.7695
 6216SOL    HW219227   3.595   4.664   1.023  2.1866  0.3390 -1.2613
 6217SOL     OW19228   1.286   2.211   4.476 -0.0748  0.3909 -0.5670
 6217SOL    HW119229   1.272   2.148   4.406  1.5084 -0.5476 -0.1009
 6217SOL    HW219230   1.337   2.281   4.435 -0.7064  0.7362 -0.7720
 6218SOL     OW19231   5.188   4.599   2.967  0.2448  0.0626 -0.6912
 6218SOL    HW119232   5.279   4.627   2.976  0.3712 -0.9813  2.8524
 6218SOL    HW219233   5.194   4.503   2.960 -0.5600  0.0251 -0.9174
 6219SOL     OW19234   8.904   5.011   9.509  0.0674 -0.0682 -0.3270
 6219SOL    HW119235   8.999   5.014   9.500  0.2360 -1.2320  0.6919
 6219SOL    HW219236   8.889   4.937   9.568 -1.3333  1.5215  1.4247
 6220SOL     OW19237   4.486   4.810   6.708  0.1031 -0.0472  0.1157
 6220SOL    HW119238   4.514   4.724   6.740 -0.0619 -0.4806 -0.8656
 6220SOL    HW219239   4.441   4.849   6.783  0.4050 -0.7080  0.6593
 6221SOL     OW19240   0.916   3.761   6.929  0.1816 -0.1447  0.3085
 6221SOL    HW119241   0.945   3.844   6.966  1.2598 -0.2790 -0.1705
 6221SOL    HW219242   0.994   3.727   6.883 -0.2720 -1.3489  0.3846
 6222SOL     OW19243   7.895   3.726   1.575  0.0669  0.0264 -0.4802
 6222SOL    HW119244   7.917   3.714   1.482 -0.5524  0.3334 -0.6719
 6222SOL    HW219245   7.962   3.787   1.606  0.5628 -0.4426 -0.5990
 6223SOL     OW19246   9.286   2.285   5.461  0.0210  0.1134  0.2240
 6223SOL    HW119247   9.336   2.274   5.380 -0.9655 -2.4306 -0.1204
 6223SOL    HW219248   9.200   2.249   5.442 -0.7323  0.8477  1.9790
 6224SOL     OW19249   4.671   3.497   5.275  0.9873  0.6762 -0.0337
 6224SOL    HW119250   4.586   3.531   5.248  1.3732  1.8797  0.2035
 6224SOL    HW219251   4.713   3.471   5.193  0.4496  0.2172 -0.1647
 6225SOL     OW19252   7.261   7.165   6.941  0.0202 -0.6504  0.4555
 6225SOL    HW119253   7.229   7.077   6.921 -0.3565 -0.2523 -0.8108
 6225SOL    HW219254   7.353   7.153   6.963 -0.5822 -1.6400  2.7178
 6226SOL     OW19255   6.140   9.905   2.492  0.0144  0.5406 -0.5777
 6226SOL    HW119256   6.227   9.928   2.460  0.8800  0.0552  1.2357
 6226SOL    HW219257   6.106   9.844   2.427  1.6549 -0.3882 -0.6389
 6227SOL     OW19258   1.155   6.943   0.227  0.5427  0.0222  0.3429
 6227SOL    HW119259   1.206   6.899   0.294  1.6649  1.0406  0.1906
 6227SOL    HW219260   1.166   7.037   0.245  1.7587  0.3717 -1.8431
 6228SOL     OW19261   4.470   9.212   2.936  0.3846  0.5931 -0.0635
 6228SOL    HW119262   4.409   9.151   2.979  0.7948  0.0001 -0.3109
 6228SOL    HW219263   4.432   9.226   2.849  1.1215 -0.6102 -0.6122
 6229SOL     OW19264   0.273   7.311   8.867 -0.7111  0.7927  0.3678
 6229SOL    HW119265   0.369   7.309   8.865 -0.7266 -1.2447 -1.2513
 6229SOL    HW219266   0.252   7.404   8.875  1.3732  1.2056  2.2085
 6230SOL     OW19267   1.128   0.090   8.611  0.5358 -0.4718  0.3633
 6230SOL    HW119268   1.210   0.139   8.612  1.1612 -1.2872 -2.1651
 6230SOL    HW219269   1.067   0.147   8.565  0.3535 -0.7724  0.2301
 6231SOL     OW19270   9.260   2.346   5.111 -0.2647  0.5288 -0.6339
 6231SOL    HW119271   9.328   2.390   5.061 -0.1725 -0.0307 -1.0142
 6231SOL    HW219272   9.276   2.253   5.096 -0.5785  0.3686 -0.0175
 6232SOL     OW19273   1.907   0.672   6.294 -0.5197  0.7160 -0.1757
 6232SOL    HW119274   1.848   0.725   6.348  0.0478  1.3003 -0.1307
 6232SOL    HW219275   1.966   0.735   6.253 -0.7367  0.2468 -1.2348
 6233SOL     OW19276   5.028   8.342   3.440  0.6606  0.3968  0.5470
 6233SOL    HW119277   5.084   8.314   3.368 -1.1426  1.6580 -1.4360
 6233SOL    HW219278   4.946   8.294   3.428  0.4723  0.2769  2.0526
 6234SOL     OW19279   9.477   8.708   8.572 -0.1246 -0.2233 -0.1259
 6234SOL    HW119280   9.542   8.778   8.564  1.1406 -1.5187 -1.9340
 6234SOL    HW219281   9.405   8.737   8.516  1.0034 -0.9283 -2.0628
 6235SOL     OW19282   1.525   7.233   4.402 -0.0861 -0.0844 -0.1786
 6235SOL    HW119283   1.432   7.247   4.388 -0.5799  0.1196  2.7772
 6235SOL    HW219284   1.531   7.144   4.437  0.8614 -0.1072 -0.3582
 6236SOL     OW19285   9.421   0.624   7.396 -0.3840  0.9704  1.0117
 6236SOL    HW119286   9.458   0.701   7.354 -0.5787 -0.9450 -3.1894
 6236SOL    HW219287   9.497   0.579   7.433  0.2174  1.5622  0.5263
 6237SOL     OW19288   8.194   3.407   6.743 -0.6338 -0.5080  0.1704
 6237SOL    HW119289   8.289   3.421   6.747 -0.1176 -3.6560  2.3012
 6237SOL    HW219290   8.160   3.490   6.709  2.7378  1.2328  0.5442
 6238SOL     OW19291   5.894   0.154   6.454  0.6219 -0.4338 -0.2528
 6238SOL    HW119292   5.966   0.214   6.474  0.3277 -0.0315 -0.4025
 6238SOL    HW219293   5.817   0.192   6.496  0.5656 -1.0764  0.2557
 6239SOL     OW19294   7.990   2.461   7.198  0.1017  0.0097 -0.0715
 6239SOL    HW119295   8.030   2.386   7.240  1.0951  0.8242  0.4671
 6239SOL    HW219296   8.063   2.514   7.168 -0.5768  0.0607 -1.7634
 6240SOL     OW19297   0.308   6.463   3.101 -0.0389 -0.0452  0.3645
 6240SOL    HW119298   0.299   6.370   3.123 -0.4816 -0.0229  0.2850
 6240SOL    HW219299   0.400   6.482   3.117 -0.1066 -0.3090  1.1105
 6241SOL     OW19300   4.169   4.634   9.463 -0.1014 -0.1945  0.8184
 6241SOL    HW119301   4.139   4.660   9.376 -0.7725  0.3607  1.1993
 6241SOL    HW219302   4.248   4.687   9.478  1.0159 -1.5165 -0.1068
 6242SOL     OW19303   4.057   2.253   2.123 -0.4899  0.4536 -0.3516
 6242SOL    HW119304   4.062   2.344   2.152 -2.1093  0.5285 -0.2080
 6242SOL    HW219305   3.967   2.226   2.142 -0.3699 -0.8376 -1.4037
 6243SOL     OW19306   8.712   2.394   7.737 -0.4795 -0.3986 -0.5270
 6243SOL    HW119307   8.684   2.344   7.660  0.4907  0.2137 -1.3052
 6243SOL    HW219308   8.669   2.351   7.810  0.6060 -2.6240 -1.0961
 6244SOL     OW19309   1.095   1.764   2.565 -0.0304  0.1179 -0.3866
 6244SOL    HW119310   1.087   1.831   2.498  2.1517  0.2539 -0.6060
 6244SOL    HW219311   1.141   1.692   2.522  2.3788  0.6178  1.1046
 6245SOL     OW19312   1.487   2.085   4.655  0.1912  0.0728 -0.2797
 6245SOL    HW119313   1.510   2.145   4.726 -1.6406  0.4987  0.0063
 6245SOL    HW219314   1.422   2.134   4.603  1.9516  0.0622 -2.6831
 6246SOL     OW19315   1.656   4.414   8.590  0.2848 -0.0064  0.9899
 6246SOL    HW119316   1.735   4.396   8.641 -0.2749 -0.3602  1.7552
 6246SOL    HW219317   1.661   4.354   8.516  1.1351  0.5501  0.5787
 6247SOL     OW19318   6.305   7.450   2.020  0.2215  0.1646  0.1745
 6247SOL    HW119319   6.363   7.380   2.049  0.4835 -0.2830 -1.3868
 6247SOL    HW219320   6.234   7.449   2.084  0.7260 -0.8423  0.7530
 6248SOL     OW19321   9.592   1.484   9.007 -0.2962  0.0081  0.1744
 6248SOL    HW119322   9.497   1.489   9.017 -0.2822  1.1354 -0.2063
 6248SOL    HW219323   9.626   1.556   9.060  0.4402 -1.0847  1.2821
 6249SOL     OW19324   4.680   6.461   3.227  0.4742 -0.5782  0.0466
 6249SOL    HW119325   4.677   6.401   3.153 -1.3089  1.5648 -1.7629
 6249SOL    HW219326   4.607   6.434   3.283  0.0222 -0.4865 -0.4819
 6250SOL     OW19327   3.624   8.298   1.000  0.1503 -0.4448  0.2112
 6250SOL    HW119328   3.719   8.303   0.987  0.3076 -4.4880 -1.4319
 6250SOL    HW219329   3.614   8.266   1.089  0.4076 -1.3047 -0.0633
 6251SOL     OW19330   7.086   9.761   2.018 -0.3181  0.4340 -0.0826
 6251SOL    HW119331   7.036   9.710   2.083 -0.1204  0.5037  0.1232
 6251SOL    HW219332   7.071   9.852   2.043  2.7802  0.4852  2.2154
 6252SOL     OW19333   5.799   4.174   8.172 -0.1846 -0.6198  0.3057
 6252SOL    HW119334   5.794   4.184   8.267 -0.8432 -1.0452  0.3209
 6252SOL    HW219335   5.891   4.153   8.155  0.4292  1.5700  0.6300
 6253SOL     OW19336   8.340   3.381   7.658  0.7079  0.5012 -0.0709
 6253SOL    HW119337   8.420   3.394   7.607  0.1289  2.2752 -0.6272
 6253SOL    HW219338   8.271   3.377   7.592  0.3104 -0.9750  0.4058
 6254SOL     OW19339   5.919   9.537   6.398 -0.0744 -0.1986  0.4186
 6254SOL    HW119340   5.925   9.603   6.328  0.9365 -0.8240 -0.0931
 6254SOL    HW219341   5.981   9.469   6.373  1.9230  0.5373  2.9936
 6255SOL     OW19342   4.273   2.676   0.559 -0.0967 -0.0738 -0.7114
 6255SOL    HW119343   4.310   2.607   0.615 -1.8149  1.7179  3.0107
 6255SOL    HW219344   4.342   2.695   0.496  1.1542 -3.8103 -0.6939
 6256SOL     OW19345   9.203   6.268   7.463  0.1407 -0.4430 -0.1628
 6256SOL    HW119346   9.202   6.267   7.559  1.2436 -0.4407 -0.1345
 6256SOL    HW219347   9.226   6.358   7.440 -0.4610 -0.3551 -0.4450
 6257SOL     OW19348   6.800   1.658   8.665 -0.0913  0.0154 -0.0855
 6257SOL    HW119349   6.877   1.715   8.670 -0.4010  0.4795 -0.4773
 6257SOL    HW219350   6.747   1.696   8.595  0.1087 -1.2794 -0.9734
 6258SOL     OW19351   8.871   2.305   2.510  0.7919 -0.8641 -0.4906
 6258SOL    HW119352   8.845   2.216   2.531  0.8974 -1.2067 -1.7241
 6258SOL    HW219353   8.962   2.298   2.483  1.0007 -0.2722  0.0305
 6259SOL     OW19354   8.698   0.052   6.469 -0.0307  0.0221  0.3266
 6259SOL    HW119355   8.714  -0.036   6.435 -1.3717  0.0503 -0.4190
 6259SOL    HW219356   8.710   0.110   6.394 -0.4652  0.3462  0.5008
 6260SOL     OW19357   1.622   7.637   3.087  0.5108  0.0402  0.0996
 6260SOL    HW119358   1.586   7.600   3.007 -0.6762 -0.2079  0.7318
 6260SOL    HW219359   1.713   7.606   3.088  0.5852  0.1733 -1.2084
 6261SOL     OW19360   3.453   8.396   0.292  0.4916  0.0674  0.2624
 6261SOL    HW119361   3.525   8.416   0.352  3.4125  0.9234 -3.1329
 6261SOL    HW219362   3.414   8.482   0.273  1.0728  0.1360 -0.6817
 6262SOL     OW19363   9.599   5.838   9.777 -0.5147  0.0972 -0.5142
 6262SOL    HW119364   9.684   5.853   9.818  0.3366 -0.3513 -2.0526
 6262SOL    HW219365   9.590   5.908   9.713 -0.0736 -1.3116 -2.2003
 6263SOL     OW19366   8.949   6.646   3.809 -0.3684  0.4262 -0.3895
 6263SOL    HW119367   8.973   6.701   3.883 -1.9311  0.5182  0.0780
 6263SOL    HW219368   9.029   6.596   3.789 -0.1302 -0.1984  1.8638
 6264SOL     OW19369   2.970   0.678   4.660  0.1221 -0.1137  0.0068
 6264SOL    HW119370   2.998   0.605   4.605 -1.0292  0.1409 -0.9712
 6264SOL    HW219371   2.999   0.655   4.748  1.3334 -0.9045 -0.5715
 6265SOL     OW19372   3.696   7.907   4.143 -0.0832 -0.3731  0.3391
 6265SOL    HW119373   3.710   7.858   4.062  0.1776  1.0692 -0.5247
 6265SOL    HW219374   3.691   7.998   4.115  2.0853  0.3880  2.1674
 6266SOL     OW19375   7.209   6.926   6.530 -0.1434 -0.4269 -0.4372
 6266SOL    HW119376   7.159   6.889   6.602 -0.6322 -0.6817 -0.9000
 6266SOL    HW219377   7.251   7.005   6.567  0.2196 -0.9622  0.3187
 6267SOL     OW19378   2.508   7.261   8.608  0.6868  0.3008  0.6111
 6267SOL    HW119379   2.517   7.181   8.660 -0.5950  0.6880  1.4746
 6267SOL    HW219380   2.505   7.231   8.517 -1.0133 -0.7789  0.9807
 6268SOL     OW19381   6.045   1.449   2.853 -0.6888  0.2647 -0.2367
 6268SOL    HW119382   5.965   1.475   2.899 -0.3519 -0.9329  1.1141
 6268SOL    HW219383   6.113   1.453   2.921 -0.1948 -1.7041 -0.5504
 6269SOL     OW19384   8.184   1.027   0.760 -0.3707  0.0666  0.8313
 6269SOL    HW119385   8.175   0.935   0.734 -1.0653  0.4699 -0.4415
 6269SOL    HW219386   8.186   1.024   0.856  1.5467 -1.4296  0.8326
 6270SOL     OW19387   1.806   2.541   4.736  0.1544  0.2961  0.4038
 6270SOL    HW119388   1.826   2.455   4.773 -1.8208 -0.4428 -0.1294
 6270SOL    HW219389   1.798   2.598   4.812  1.3914  0.0226  0.7674
 6271SOL     OW19390   0.995   5.994   3.533  0.0844  0.2072 -0.0344
 6271SOL    HW119391   0.939   5.952   3.599 -0.6796 -0.7263 -1.2278
 6271SOL    HW219392   1.084   5.976   3.563 -0.2539 -0.1132  0.8038
 6272SOL     OW19393   7.995   5.094   9.636 -0.0611  0.0860 -0.3588
 6272SOL    HW119394   8.053   5.108   9.710 -0.3289  0.6235 -0.2424
 6272SOL    HW219395   7.924   5.157   9.649 -0.4973 -0.3312 -0.6752
 6273SOL     OW19396   4.716   0.105   1.630  0.1065 -0.4512  0.3317
 6273SOL    HW119397   4.759   0.145   1.555  0.2462  1.1882  1.2437
 6273SOL    HW219398   4.671   0.029   1.594 -0.8491  0.9691 -1.6481
 6274SOL     OW19399   9.177   1.822   5.643  0.5102  0.2424 -0.1319
 6274SOL    HW119400   9.083   1.808   5.639  0.5291  0.4815 -1.8552
 6274SOL    HW219401   9.212   1.775   5.567  1.4553  2.4636 -1.1545
 6275SOL     OW19402   7.310   7.683   6.664 -0.3920 -0.5451  0.2987
 6275SOL    HW119403   7.284   7.755   6.722  1.0826  0.8743 -0.7093
 6275SOL    HW219404   7.403   7.670   6.682 -0.2055 -0.9340 -0.8502
 6276SOL     OW19405   8.480   9.100   7.764 -0.1668 -0.2708  0.1959
 6276SOL    HW119406   8.410   9.151   7.721  1.6063  2.5518  0.3897
 6276SOL    HW219407   8.533   9.066   7.692 -0.1256  0.0213  0.0883
 6277SOL     OW19408   7.658   2.439   9.358 -0.5755  0.2703  0.2347
 6277SOL    HW119409   7.747   2.436   9.393 -0.3204 -0.3608 -0.4380
 6277SOL    HW219410   7.604   2.468   9.431  0.1769  0.6405  0.6570
 6278SOL     OW19411   9.781   4.410   8.587 -0.4599  0.1083 -0.2362
 6278SOL    HW119412   9.755   4.497   8.615  0.4656  0.5151 -0.5946
 6278SOL    HW219413   9.876   4.407   8.602 -0.6172 -1.1865  0.7011
 6279SOL     OW19414   8.755   8.286   4.062  0.0096 -0.2261 -0.2414
 6279SOL    HW119415   8.834   8.286   4.116  1.0666 -2.2148 -1.6789
 6279SOL    HW219416   8.768   8.358   4.000  1.6067 -1.6572 -1.6489
 6280SOL     OW19417   7.751   0.543   1.618 -0.5115  0.1801 -1.0103
 6280SOL    HW119418   7.695   0.599   1.671 -1.3865  0.5357 -2.2534
 6280SOL    HW219419   7.725   0.454   1.641  0.0897  0.2889  0.1417
 6281SOL     OW19420   5.724   4.438   5.339  0.1401 -0.1920 -0.7895
 6281SOL    HW119421   5.660   4.410   5.272 -0.7473 -0.4734  0.1484
 6281SOL    HW219422   5.754   4.356   5.379  0.0017  0.0159 -0.2521
 6282SOL     OW19423   4.515   1.469   1.436  0.1286 -0.0370 -0.3122
 6282SOL    HW119424   4.453   1.398   1.455  1.7195 -1.1441  1.0530
 6282SOL    HW219425   4.516   1.476   1.341 -1.2048 -0.7884 -0.4027
 6283SOL     OW19426   8.350   2.963   5.002  0.1122  0.7098 -1.0449
 6283SOL    HW119427   8.312   2.965   4.914 -2.0695  1.1420 -0.1363
 6283SOL    HW219428   8.362   3.055   5.025 -0.8615  0.6633 -0.2847
 6284SOL     OW19429   3.103   0.869   9.941 -0.2852 -0.2988 -0.0859
 6284SOL    HW119430   3.123   0.857  10.034 -0.4717  1.2537  0.1887
 6284SOL    HW219431   3.021   0.822   9.928 -0.2850 -0.4878  0.5493
 6285SOL     OW19432   8.332   8.714   1.604 -0.0698 -0.2602 -0.2467
 6285SOL    HW119433   8.343   8.788   1.545  1.6886  0.8636  1.3707
 6285SOL    HW219434   8.242   8.721   1.636 -0.6727 -0.2420 -1.8878
 6286SOL     OW19435   4.618   3.104   0.720 -0.1148 -0.0796 -0.4088
 6286SOL    HW119436   4.558   3.051   0.668 -0.9853  2.1002 -1.7428
 6286SOL    HW219437   4.701   3.056   0.717 -0.9670 -1.5692 -1.1533
 6287SOL     OW19438   0.544   5.009   4.982  0.2235  0.2191 -0.1824
 6287SOL    HW119439   0.560   5.098   4.951 -0.1690  0.1947 -0.4610
 6287SOL    HW219440   0.516   5.021   5.073 -3.5275  0.7477 -1.2193
 6288SOL     OW19441   4.482   2.648   7.585  0.1299  0.6276 -0.2458
 6288SOL    HW119442   4.390   2.644   7.557 -0.4302  1.2605  1.3910
 6288SOL    HW219443   4.524   2.575   7.539 -1.5552 -0.7062  0.2131
 6289SOL     OW19444   4.930   4.585   3.430 -0.6157 -0.2333 -0.0652
 6289SOL    HW119445   5.014   4.569   3.473 -1.2223  0.1927  1.3025
 6289SOL    HW219446   4.917   4.507   3.375  0.2200 -0.7467  0.4380
 6290SOL     OW19447   1.378   5.473   6.354  0.3658  0.6766 -0.4091
 6290SOL    HW119448   1.358   5.381   6.371 -0.6104  0.8715 -0.4442
 6290SOL    HW219449   1.336   5.492   6.270  2.4304  0.5818 -1.5480
 6291SOL     OW19450   9.785   5.882   9.124 -0.1680  0.2042  0.7986
 6291SOL    HW119451   9.867   5.894   9.171 -0.0579 -0.0882  0.6832
 6291SOL    HW219452   9.730   5.832   9.184 -0.1232  0.0636  0.7222
 6292SOL     OW19453   1.501   5.190   8.373  1.1357 -0.3883  0.0655
 6292SOL    HW119454   1.421   5.176   8.321  1.7135  1.9013 -1.6051
 6292SOL    HW219455   1.543   5.104   8.375  0.7329 -0.7481 -2.7255
 6293SOL     OW19456   4.475   6.143   6.325  0.1170  1.2756  0.0446
 6293SOL    HW119457   4.547   6.082   6.339 -0.1543  0.8704 -0.3138
 6293SOL    HW219458   4.396   6.093   6.348  0.0308  2.1666  1.9073
 6294SOL     OW19459   0.685   1.962   5.036 -0.1885  0.2649  0.5370
 6294SOL    HW119460   0.672   1.914   5.117  0.4903 -0.1010  0.4360
 6294SOL    HW219461   0.597   1.983   5.006 -0.4446  0.3655  1.3425
 6295SOL     OW19462   3.777   8.621   8.992  0.5444  0.1155  0.5291
 6295SOL    HW119463   3.706   8.610   8.930  1.9113  2.0879 -1.5519
 6295SOL    HW219464   3.782   8.537   9.038 -3.1098 -0.0778  0.8764
 6296SOL     OW19465   5.611   7.194   3.393 -0.2342  0.1938  0.2160
 6296SOL    HW119466   5.526   7.221   3.427 -0.6478 -0.2309 -0.4506
 6296SOL    HW219467   5.594   7.172   3.301  0.5637 -0.0350  0.1144
 6297SOL     OW19468   8.874   7.440   3.837 -0.3119  0.2473 -0.0116
 6297SOL    HW119469   8.952   7.496   3.836 -0.5983  0.6649  0.4639
 6297SOL    HW219470   8.828   7.466   3.916 -0.6539 -0.3917 -0.0022
 6298SOL     OW19471   2.355   6.088   4.295  0.4164 -0.2626 -0.7126
 6298SOL    HW119472   2.262   6.102   4.315  0.2929  0.4023 -1.6865
 6298SOL    HW219473   2.391   6.176   4.286  1.0298 -0.5219 -0.8342
 6299SOL     OW19474   7.514   8.785   4.953 -0.1277  0.3911 -0.0706
 6299SOL    HW119475   7.539   8.868   4.992  1.4799  0.0259 -0.2787
 6299SOL    HW219476   7.539   8.793   4.861 -1.3972  0.2371 -0.4508
 6300SOL     OW19477   9.211   1.970   1.667  0.1329  0.1775 -0.0554
 6300SOL    HW119478   9.211   2.027   1.590 -1.2364  1.0431  0.5519
 6300SOL    HW219479   9.194   2.029   1.740  1.7432 -0.5750  0.9908
 6301SOL     OW19480   0.499   2.772   0.369 -0.0510  0.1052 -0.1003
 6301SOL    HW119481   0.486   2.837   0.300 -1.1088  0.3942  0.3536
 6301SOL    HW219482   0.476   2.689   0.327  1.9093 -0.1047 -0.8680
 6302SOL     OW19483   1.442   6.114   4.294 -0.4718 -0.1375 -0.0564
 6302SOL    HW119484   1.414   6.068   4.215 -0.6138  1.0698 -0.7245
 6302SOL    HW219485   1.537   6.101   4.296 -0.7559 -2.5767  1.1563
 6303SOL     OW19486   3.296   3.228   7.808 -0.0641  0.0856 -0.6394
 6303SOL    HW119487   3.356   3.235   7.734  0.8524  1.3682  0.1750
 6303SOL    HW219488   3.259   3.140   7.802  2.1595 -0.8861 -0.9674
 6304SOL     OW19489   0.540   4.881   9.928  0.0216 -0.3649 -0.3415
 6304SOL    HW119490   0.571   4.791   9.923 -0.6430 -0.5743 -0.8471
 6304SOL    HW219491   0.608   4.927   9.978 -0.0744 -1.3350  0.7242
 6305SOL     OW19492   8.948   6.773   2.594 -0.6332  0.1639 -0.0037
 6305SOL    HW119493   9.040   6.792   2.609 -0.6896 -0.7334  1.7513
 6305SOL    HW219494   8.947   6.719   2.515  0.3164  0.4029 -0.1908
 6306SOL     OW19495   6.002   7.736   2.096 -0.4968 -0.0075  0.0194
 6306SOL    HW119496   6.082   7.788   2.096  0.1351 -0.9598 -0.5188
 6306SOL    HW219497   5.994   7.703   2.007 -1.6109  0.2373  0.0100
 6307SOL     OW19498   0.088   7.081   2.131 -0.0076 -0.6167  0.1350
 6307SOL    HW119499   0.082   7.118   2.043  0.3066 -0.7325  0.0661
 6307SOL    HW219500   0.056   7.151   2.189 -0.3615 -0.5952 -0.0810
 6308SOL     OW19501   3.215  -0.007   5.320  0.1918  0.3299  0.2611
 6308SOL    HW119502   3.153   0.032   5.381 -2.7280 -1.3248 -1.4444
 6308SOL    HW219503   3.233   0.063   5.257 -1.6712  0.2383 -0.4171
 6309SOL     OW19504   0.073   7.843   0.512  0.6077 -0.3872 -0.2740
 6309SOL    HW119505   0.071   7.776   0.580  1.0875  0.0095  0.1454
 6309SOL    HW219506  -0.018   7.852   0.484  0.1622  0.3758  1.2625
 6310SOL     OW19507   9.557   6.243   7.998  0.1557  0.1499  0.0315
 6310SOL    HW119508   9.463   6.258   7.989  0.1571  0.9717  1.1965
 6310SOL    HW219509   9.573   6.162   7.949 -1.3573 -0.6401  0.7635
 6311SOL     OW19510   8.588   5.191   9.659  0.0208 -0.4490  0.2180
 6311SOL    HW119511   8.673   5.223   9.628 -0.5116  0.3711 -0.4453
 6311SOL    HW219512   8.554   5.140   9.585 -1.5423  2.0429 -0.9289
 6312SOL     OW19513   0.631   5.615   9.595 -0.3919  0.3760  0.1545
 6312SOL    HW119514   0.645   5.520   9.597 -1.4864  0.1826  3.0304
 6312SOL    HW219515   0.711   5.652   9.632  0.7728  0.8040 -2.5399
 6313SOL     OW19516   6.500   1.685   7.687 -0.0539  0.7876  0.5537
 6313SOL    HW119517   6.410   1.705   7.659  0.3196  3.1953  0.8296
 6313SOL    HW219518   6.555   1.730   7.623  0.9214  0.4190  1.1273
 6314SOL     OW19519   8.924   0.364   2.021 -0.3366  0.1571  0.7177
 6314SOL    HW119520   8.951   0.345   1.932 -1.9142 -1.9133  0.6031
 6314SOL    HW219521   8.995   0.331   2.076 -0.4624 -0.8944  0.2731
 6315SOL     OW19522   0.786   0.841   3.333 -0.0414  0.2505  0.3176
 6315SOL    HW119523   0.715   0.856   3.270  0.2230  0.4481  0.0615
 6315SOL    HW219524   0.742   0.822   3.416 -0.4146  2.1676  0.6003
 6316SOL     OW19525   9.355   7.989   8.699  0.5803 -0.2601  0.3129
 6316SOL    HW119526   9.412   7.931   8.749  0.2173  0.6422  1.8533
 6316SOL    HW219527   9.339   8.063   8.757 -2.5293 -0.6730  0.1789
 6317SOL     OW19528   7.126   9.610   3.856 -0.2257 -0.4101  0.7963
 6317SOL    HW119529   7.122   9.591   3.950 -0.3798 -0.0244  0.8693
 6317SOL    HW219530   7.216   9.636   3.841 -0.2781 -0.1700  0.8959
 6318SOL     OW19531   6.515   8.449   2.422 -0.2020  0.0078  0.1125
 6318SOL    HW119532   6.420   8.436   2.425 -0.0575 -1.6888 -1.0191
 6318SOL    HW219533   6.534   8.466   2.330  0.7355 -1.2867  0.0332
 6319SOL     OW19534   8.309   7.229   4.771 -0.3521 -0.1372  0.2036
 6319SOL    HW119535   8.308   7.191   4.858 -0.7392 -0.4643  0.0596
 6319SOL    HW219536   8.383   7.187   4.727 -0.1007  0.0971  0.4038
 6320SOL     OW19537   5.768   6.694   8.225  0.2547 -0.1237  0.4422
 6320SOL    HW119538   5.850   6.664   8.186 -0.2578 -0.5231 -0.3558
 6320SOL    HW219539   5.793   6.725   8.312  1.7238  2.4848 -0.8138
 6321SOL     OW19540   3.703   0.141   8.101 -0.5735 -0.0166  0.3907
 6321SOL    HW119541   3.791   0.115   8.072 -0.3407  0.3996  0.7080
 6321SOL    HW219542   3.692   0.097   8.186  0.7192  2.5812  2.0362
 6322SOL     OW19543   7.221   8.334   2.144  0.6311  0.3865 -0.3749
 6322SOL    HW119544   7.218   8.426   2.115  0.7695  0.3976 -0.3560
 6322SOL    HW219545   7.144   8.324   2.199  0.6132  0.4917 -0.3801
 6323SOL     OW19546   1.887   5.638   0.777 -0.5915  0.7180 -0.3699
 6323SOL    HW119547   1.845   5.616   0.694  0.4333 -2.4137 -0.1696
 6323SOL    HW219548   1.977   5.660   0.752  0.0082 -1.2272 -0.0857
 6324SOL     OW19549   2.102   9.522   5.723  0.8087  0.6165  0.0581
 6324SOL    HW119550   2.060   9.562   5.799 -1.1879  0.9237 -1.1515
 6324SOL    HW219551   2.191   9.555   5.725 -0.2268  3.6679  0.1666
 6325SOL     OW19552   1.500   6.688   1.506 -0.0541  0.2818  0.1619
 6325SOL    HW119553   1.471   6.601   1.531  0.3786 -0.1772 -0.8648
 6325SOL    HW219554   1.430   6.722   1.449  0.5714 -0.1190 -0.8737
 6326SOL     OW19555   1.773   2.104   2.483 -0.1735  0.0592  0.5341
 6326SOL    HW119556   1.679   2.086   2.475  0.2265 -2.7730  1.3275
 6326SOL    HW219557   1.815   2.037   2.430  1.4553  1.5587 -0.1752
 6327SOL     OW19558   4.265   2.337   1.060  0.4298 -0.0887  0.3997
 6327SOL    HW119559   4.193   2.393   1.089  0.7692 -0.6645  2.5141
 6327SOL    HW219560   4.338   2.398   1.045  0.1513  0.2631  0.4490
 6328SOL     OW19561   5.429   0.159   1.404  0.1361  0.0025  0.0228
 6328SOL    HW119562   5.407   0.066   1.409  0.5507 -0.0495  1.4900
 6328SOL    HW219563   5.481   0.168   1.324 -0.7106 -0.8436 -0.6372
 6329SOL     OW19564   8.507   9.109   4.163  0.1180  0.1118  0.4222
 6329SOL    HW119565   8.485   9.198   4.192 -0.3938 -0.0853  0.6416
 6329SOL    HW219566   8.449   9.052   4.212  0.8052 -0.3923  0.6737
 6330SOL     OW19567   2.086   9.791   9.974  0.9506 -0.0330  0.3562
 6330SOL    HW119568   2.090   9.761   9.883 -3.4594 -0.9591  0.2128
 6330SOL    HW219569   2.084   9.886   9.968 -1.2052 -0.0792 -0.8480
 6331SOL     OW19570   4.852   4.420   8.465 -0.0839 -0.2614  0.3289
 6331SOL    HW119571   4.833   4.330   8.437  0.5292  0.1793 -1.6751
 6331SOL    HW219572   4.936   4.413   8.512 -0.7665 -0.9191  1.4974
 6332SOL     OW19573   1.410   2.310   8.057  0.1152  0.1154 -0.7005
 6332SOL    HW119574   1.442   2.394   8.090 -0.0951  0.5462 -1.5602
 6332SOL    HW219575   1.331   2.332   8.008 -1.9448 -1.0002  1.9136
 6333SOL     OW19576   8.139   6.117   4.438  0.0902  0.2298  0.5716
 6333SOL    HW119577   8.211   6.157   4.389  1.7160 -0.5932  2.1588
 6333SOL    HW219578   8.097   6.058   4.376  0.9679  0.5294 -0.3336
 6334SOL     OW19579   9.519   3.797   0.288 -0.0031 -0.4476  0.1626
 6334SOL    HW119580   9.425   3.780   0.278 -0.2441  0.9928 -0.3926
 6334SOL    HW219581   9.523   3.885   0.324  1.1446 -0.6077  0.4528
 6335SOL     OW19582   9.836   2.837   2.697  0.1180  0.0253 -0.0223
 6335SOL    HW119583   9.764   2.774   2.692 -0.0691  0.1964  0.3956
 6335SOL    HW219584   9.843   2.874   2.609 -0.0740 -0.2465 -0.1523
 6336SOL     OW19585   2.007   8.403   5.628  0.1007 -0.2006  0.5706
 6336SOL    HW119586   2.023   8.346   5.704 -1.1859 -0.1396  0.9118
 6336SOL    HW219587   2.092   8.409   5.584  0.6966 -0.8388  1.5935
 6337SOL     OW19588   7.531   0.449   3.562 -0.1426 -0.2419 -0.4770
 6337SOL    HW119589   7.529   0.389   3.636  1.2653 -0.1149 -0.3086
 6337SOL    HW219590   7.475   0.522   3.589  0.0946 -0.3465  0.3157
 6338SOL     OW19591   5.798   2.277   5.675 -0.0286 -0.0227 -0.3797
 6338SOL    HW119592   5.863   2.327   5.725 -1.2028  0.5643  0.6263
 6338SOL    HW219593   5.819   2.185   5.693 -1.5611  0.1228  2.9191
 6339SOL     OW19594   2.867   5.338   7.045  0.5080 -0.4643  0.6295
 6339SOL    HW119595   2.945   5.392   7.033 -0.6507  0.9722 -1.1092
 6339SOL    HW219596   2.806   5.394   7.093 -0.5992 -0.2851 -0.9166
 6340SOL     OW19597   4.689   1.410   4.089  0.1996 -0.2303  0.3117
 6340SOL    HW119598   4.611   1.425   4.142 -0.5274  1.1339 -1.0578
 6340SOL    HW219599   4.703   1.492   4.043  2.6326 -0.3502  0.7070
 6341SOL     OW19600   7.247   9.343   2.466  0.8052  0.2755 -0.1558
 6341SOL    HW119601   7.298   9.309   2.540  0.0612 -1.2642 -0.3022
 6341SOL    HW219602   7.174   9.390   2.507 -0.4091 -1.7612  0.2156
 6342SOL     OW19603   2.393   7.951   1.737  0.1318 -0.4143 -0.1323
 6342SOL    HW119604   2.483   7.918   1.742  0.5349  0.7467  0.6334
 6342SOL    HW219605   2.402   8.043   1.714 -0.8306 -0.1383  0.5159
 6343SOL     OW19606   7.336   1.340   5.160  0.3692 -0.3299  0.1469
 6343SOL    HW119607   7.372   1.256   5.133  1.4941  0.2640 -0.2965
 6343SOL    HW219608   7.241   1.329   5.154  0.5056 -1.4792 -0.1460
 6344SOL     OW19609   5.499   9.034   6.954 -0.2154  0.0936 -0.0916
 6344SOL    HW119610   5.444   9.029   7.033 -0.2130 -2.0105 -0.1732
 6344SOL    HW219611   5.478   8.955   6.905  3.8191 -1.6227  0.5374
 6345SOL     OW19612   6.088   5.789   5.147 -0.0917  0.0415 -0.2550
 6345SOL    HW119613   6.158   5.855   5.141 -1.7434  1.7600 -1.5694
 6345SOL    HW219614   6.039   5.814   5.225  1.2698 -1.7920  1.2845
 6346SOL     OW19615   1.626   4.706   5.525 -0.1139 -0.0066 -0.3935
 6346SOL    HW119616   1.536   4.726   5.499 -0.0452  1.1606  0.2032
 6346SOL    HW219617   1.618   4.674   5.615  0.0489 -0.1626 -0.4346
 6347SOL     OW19618   7.235   1.314   0.915  0.4651  0.0999  0.3261
 6347SOL    HW119619   7.301   1.247   0.934  0.2293  0.2455  1.7319
 6347SOL    HW219620   7.254   1.341   0.825  2.6272  0.4639  0.8352
 6348SOL     OW19621   3.147   7.451   8.443  0.0641  0.7199  0.4537
 6348SOL    HW119622   3.091   7.410   8.509 -0.4367  0.2043 -0.2717
 6348SOL    HW219623   3.218   7.389   8.429  0.1667  0.8263  0.4954
 6349SOL     OW19624   9.983   3.532   3.848  0.0312 -0.9951 -0.4101
 6349SOL    HW119625   9.999   3.612   3.798 -1.3883  0.1122  0.8051
 6349SOL    HW219626   9.934   3.476   3.789 -0.7431 -0.1201 -0.6198
 6350SOL     OW19627   2.742   3.508   7.466 -0.0753 -0.2498 -0.0661
 6350SOL    HW119628   2.732   3.553   7.550 -0.6507 -1.7803  0.7227
 6350SOL    HW219629   2.835   3.487   7.461 -0.3354 -1.9262  1.1900
 6351SOL     OW19630   8.851   7.867   0.458 -0.1436  0.2442  0.2340
 6351SOL    HW119631   8.851   7.776   0.487  2.1798 -0.0897 -0.6515
 6351SOL    HW219632   8.915   7.910   0.515  1.1332  0.5721 -1.3681
 6352SOL     OW19633   9.342   4.579   6.314  0.4175  0.5249 -0.0810
 6352SOL    HW119634   9.306   4.495   6.284 -2.3444  1.4667  0.2936
 6352SOL    HW219635   9.380   4.618   6.235  2.7201 -1.4609 -0.0426
 6353SOL     OW19636   4.708   5.074   9.064  0.5096  0.3813 -0.1794
 6353SOL    HW119637   4.736   5.164   9.077  1.6508  0.6306 -3.4681
 6353SOL    HW219638   4.614   5.075   9.084  0.7385  1.9533  1.0449
 6354SOL     OW19639   6.617   7.470   7.676 -0.2095 -0.5359 -0.3729
 6354SOL    HW119640   6.648   7.470   7.586  0.0392 -0.4052 -0.2893
 6354SOL    HW219641   6.522   7.484   7.670 -0.0971  0.1417 -0.5824
 6355SOL     OW19642   1.550   0.901   9.864  0.6117  0.1279 -0.2904
 6355SOL    HW119643   1.508   0.847   9.798 -0.2846  0.6790 -0.1870
 6355SOL    HW219644   1.612   0.956   9.815  2.4271 -1.7722 -0.2673
 6356SOL     OW19645   8.670   7.828   0.861  0.7342  0.1305 -0.1859
 6356SOL    HW119646   8.697   7.787   0.780 -0.7418  0.4416 -0.8795
 6356SOL    HW219647   8.613   7.900   0.834  1.0044  0.8653  1.0952
 6357SOL     OW19648   0.360   5.218   2.410 -0.0374  0.1319  0.0296
 6357SOL    HW119649   0.361   5.314   2.407  1.1997  0.1263 -1.3930
 6357SOL    HW219650   0.452   5.194   2.402 -0.4621 -1.1756 -1.3890
 6358SOL     OW19651   0.318   3.797   0.698  0.4319  0.2746  0.5067
 6358SOL    HW119652   0.389   3.845   0.741  0.2368 -0.5206  1.7848
 6358SOL    HW219653   0.302   3.722   0.756 -1.7044  0.6341  0.4543
 6359SOL     OW19654   8.971   3.420   5.283  0.2677  0.3697  0.3431
 6359SOL    HW119655   8.915   3.356   5.325  2.8098 -1.7834  0.7114
 6359SOL    HW219656   9.013   3.372   5.211  3.4123  1.0601  1.5505
 6360SOL     OW19657   3.177   8.547   9.582  0.3490 -0.0928 -0.1704
 6360SOL    HW119658   3.161   8.495   9.502 -2.2547  0.8201 -0.3541
 6360SOL    HW219659   3.221   8.626   9.551 -1.0991  0.4875 -0.8453
 6361SOL     OW19660   6.906   5.324   8.200 -0.3846 -0.0405  0.2979
 6361SOL    HW119661   6.896   5.292   8.289 -2.3311  0.8514  0.4633
 6361SOL    HW219662   6.891   5.418   8.207 -0.4110  0.0634 -0.9389
 6362SOL     OW19663   8.562   9.131   5.052 -0.1371 -0.3739  0.3677
 6362SOL    HW119664   8.653   9.145   5.026 -0.4695  0.1696 -0.5469
 6362SOL    HW219665   8.512   9.135   4.970 -1.1027  0.3748  0.9527
 6363SOL     OW19666   7.926   8.541   9.243  0.4497 -0.0336  0.0519
 6363SOL    HW119667   7.874   8.507   9.170  0.5819 -0.4341  0.1417
 6363SOL    HW219668   7.892   8.495   9.320  0.8775 -0.2352  0.1233
 6364SOL     OW19669   9.450   9.795   7.676  0.6217 -0.4606  0.0870
 6364SOL    HW119670   9.482   9.749   7.599  0.0751 -0.5966 -0.0607
 6364SOL    HW219671   9.518   9.859   7.696  0.8156 -0.5019 -0.4424
 6365SOL     OW19672   8.263   3.290   9.684 -0.6695 -0.6015  0.2687
 6365SOL    HW119673   8.207   3.334   9.621 -0.5546 -1.7454 -0.6630
 6365SOL    HW219674   8.281   3.357   9.750 -1.1022  0.5141 -0.6982
 6366SOL     OW19675   1.776   1.467   0.678  0.3696  0.2035  0.4180
 6366SOL    HW119676   1.826   1.532   0.629 -0.4306  0.7477  0.3095
 6366SOL    HW219677   1.807   1.477   0.769  1.4280 -0.4091  0.1445
 6367SOL     OW19678   6.045   4.064   2.437 -0.0863 -0.2333  0.1471
 6367SOL    HW119679   5.992   4.142   2.452  1.8848  1.2960 -0.3831
 6367SOL    HW219680   6.118   4.095   2.382  1.3040 -2.2267  0.7617
 6368SOL     OW19681   9.262   5.901   5.790 -0.0994  0.3154 -0.4219
 6368SOL    HW119682   9.351   5.870   5.774  0.3351  0.8226  0.8421
 6368SOL    HW219683   9.254   5.980   5.737  0.3458  0.4854 -0.2425
 6369SOL     OW19684   4.877   0.291   9.733  0.3079 -0.4076 -0.0025
 6369SOL    HW119685   4.908   0.380   9.749 -2.8369  1.2790 -2.0938
 6369SOL    HW219686   4.894   0.276   9.640 -1.0081 -1.0992 -0.1620
 6370SOL     OW19687   0.298   0.888   6.413  0.2410 -0.1121 -0.9008
 6370SOL    HW119688   0.316   0.835   6.335 -1.5830 -1.6286 -0.3510
 6370SOL    HW219689   0.229   0.949   6.386  0.9181  0.6614 -0.9536
 6371SOL     OW19690   6.126   6.354   5.375  0.0887 -0.0715 -0.0129
 6371SOL    HW119691   6.139   6.287   5.442 -0.8676  0.1517  0.4139
 6371SOL    HW219692   6.158   6.435   5.415  0.8279 -0.1919 -0.3593
 6372SOL     OW19693   3.835   5.754   9.189 -0.0425 -0.1846 -1.2793
 6372SOL    HW119694   3.909   5.771   9.132  1.1743 -0.8520  0.0277
 6372SOL    HW219695   3.867   5.774   9.277 -1.4205 -0.4717 -0.6812
 6373SOL     OW19696   5.652   4.501   4.720  0.4122 -0.5251 -0.1589
 6373SOL    HW119697   5.706   4.501   4.799 -0.0952  1.4544  0.2429
 6373SOL    HW219698   5.573   4.549   4.745 -0.2454 -0.8332 -1.5595
 6374SOL     OW19699   0.455   0.782   3.490 -0.3701  0.0397 -0.2738
 6374SOL    HW119700   0.477   0.851   3.552  1.6894 -0.6874 -0.1132
 6374SOL    HW219701   0.415   0.714   3.543 -0.7698  0.3778 -0.1392
 6375SOL     OW19702   5.124   1.879   4.458  0.0670 -0.2778  0.2802
 6375SOL    HW119703   5.133   1.784   4.464 -1.7487 -0.4800  0.4771
 6375SOL    HW219704   5.053   1.900   4.519  0.3044  1.1791  0.0842
 6376SOL     OW19705   3.718   3.198   2.149  0.0181 -0.1929  0.0581
 6376SOL    HW119706   3.730   3.192   2.244 -1.4339 -0.3130  0.2536
 6376SOL    HW219707   3.807   3.206   2.114  0.5421  0.3804  1.4598
 6377SOL     OW19708   6.919   7.241   8.218 -0.2365  0.1923 -0.3640
 6377SOL    HW119709   6.833   7.224   8.179  0.8982 -0.8363 -2.5915
 6377SOL    HW219710   6.946   7.325   8.181 -0.0882  0.2915 -0.0330
 6378SOL     OW19711   6.857   8.450   1.964  1.4204  0.3735  0.4957
 6378SOL    HW119712   6.842   8.530   2.013  0.6440  1.3617 -1.2706
 6378SOL    HW219713   6.910   8.477   1.889 -0.9819 -0.1577 -1.5519
 6379SOL     OW19714   3.574   7.718   8.512  0.1813  0.0964  0.2855
 6379SOL    HW119715   3.492   7.736   8.558  1.1147  0.2382  1.9961
 6379SOL    HW219716   3.571   7.773   8.434 -1.3378  0.0956  0.3186
 6380SOL     OW19717   6.732   8.076   7.244  0.0139 -0.3339 -0.1820
 6380SOL    HW119718   6.700   8.141   7.306  0.3669  1.5709 -1.8965
 6380SOL    HW219719   6.657   8.018   7.228 -1.6467  2.0581 -1.6219
 6381SOL     OW19720   1.159   5.277   9.260 -0.2177  0.1367  0.4705
 6381SOL    HW119721   1.163   5.373   9.263  0.4082  0.1813 -1.1163
 6381SOL    HW219722   1.167   5.255   9.167  0.0673 -1.4714  0.8464
 6382SOL     OW19723   2.248   7.577   8.876  0.5074  0.0389  0.1900
 6382SOL    HW119724   2.219   7.621   8.796  0.0155 -0.7760 -0.0970
 6382SOL    HW219725   2.270   7.649   8.936 -1.5160  0.7197  0.1970
 6383SOL     OW19726   3.278   7.352   7.794  0.3989 -0.1120  0.3346
 6383SOL    HW119727   3.253   7.306   7.874  0.0533 -1.2409 -0.3892
 6383SOL    HW219728   3.318   7.285   7.739  1.4631  0.8426 -0.0918
 6384SOL     OW19729   5.073   4.933   9.030 -0.3191  0.8185 -0.3003
 6384SOL    HW119730   5.120   4.970   8.955 -0.2725  0.9728 -0.1945
 6384SOL    HW219731   4.988   4.909   8.995  0.6015 -1.5949 -1.0733
 6385SOL     OW19732   7.152   5.356   9.772 -0.0219  0.0071 -0.2641
 6385SOL    HW119733   7.095   5.414   9.721 -1.5500  0.2614  1.6273
 6385SOL    HW219734   7.106   5.343   9.855  2.6608  0.1705  1.3743
 6386SOL     OW19735   0.921   3.729   7.334  0.4702  0.2729 -0.2726
 6386SOL    HW119736   0.833   3.698   7.316  0.7921 -0.4934 -0.5599
 6386SOL    HW219737   0.977   3.652   7.323  0.9939  0.3685  1.4406
 6387SOL     OW19738   2.611   7.632   2.376 -0.2433 -0.0611  0.2235
 6387SOL    HW119739   2.707   7.633   2.371 -0.2646 -0.0836 -0.2327
 6387SOL    HW219740   2.582   7.623   2.285 -0.6915  0.4924  0.3029
 6388SOL     OW19741   3.454   9.209   8.145 -0.0633  0.1614 -0.4079
 6388SOL    HW119742   3.491   9.130   8.185  0.3434  1.2564  1.5160
 6388SOL    HW219743   3.530   9.261   8.119 -0.2889  0.6126 -0.1843
 6389SOL     OW19744   5.219   5.776   0.660 -0.1446  0.3224  0.5669
 6389SOL    HW119745   5.273   5.848   0.693  0.1799  0.0527  0.6300
 6389SOL    HW219746   5.138   5.781   0.712 -0.3463  0.9616  0.2116
 6390SOL     OW19747   1.032   6.336   6.407  0.4336 -0.1156  0.2678
 6390SOL    HW119748   1.103   6.361   6.348  2.0788 -0.3912  1.9936
 6390SOL    HW219749   0.952   6.344   6.355  1.7964 -0.5500 -2.0035
 6391SOL     OW19750   3.300   7.127   4.298  0.4183  0.1016 -0.3197
 6391SOL    HW119751   3.236   7.114   4.228  0.8050 -2.2611 -0.3120
 6391SOL    HW219752   3.372   7.174   4.255  0.3140 -0.6147 -1.3077
 6392SOL     OW19753   6.478   7.628   7.047  0.4901  0.2815 -0.1901
 6392SOL    HW119754   6.508   7.537   7.049 -1.6366 -0.5350 -1.2897
 6392SOL    HW219755   6.390   7.623   7.009 -1.0757  2.4176  2.7150
 6393SOL     OW19756   9.743   9.550   2.499  0.7082  0.6153 -0.1316
 6393SOL    HW119757   9.788   9.582   2.420  1.3951 -1.1170 -0.4995
 6393SOL    HW219758   9.650   9.566   2.482  0.9890  2.0895 -0.4026
 6394SOL     OW19759   4.344   3.624   1.585  0.0184  0.3101  1.0842
 6394SOL    HW119760   4.425   3.573   1.591  0.5667  1.2338  1.8103
 6394SOL    HW219761   4.330   3.659   1.673 -0.6333  0.9737  0.7379
 6395SOL     OW19762   7.521   4.971   4.103  0.3021 -0.5037 -0.7781
 6395SOL    HW119763   7.489   5.033   4.168  0.0762 -1.7746  0.3577
 6395SOL    HW219764   7.450   4.907   4.094  0.4453 -0.5077 -2.0834
 6396SOL     OW19765   2.680   7.188   4.420 -0.1003 -0.1498  0.2971
 6396SOL    HW119766   2.666   7.176   4.514  1.3036 -0.8565  0.4367
 6396SOL    HW219767   2.766   7.229   4.413  0.2152 -0.9337 -0.7030
 6397SOL     OW19768   0.044   3.058   0.632  0.0252  0.1281 -0.2820
 6397SOL    HW119769   0.089   3.122   0.578  0.0704  0.8590  0.5993
 6397SOL    HW219770  -0.041   3.098   0.651  0.5635  0.5600  1.3920
 6398SOL     OW19771   5.557   1.607   5.990  0.2434  0.1887 -0.1145
 6398SOL    HW119772   5.485   1.640   6.043 -0.0373 -0.6250  0.0260
 6398SOL    HW219773   5.520   1.596   5.902  0.0698 -0.6492  0.0600
 6399SOL     OW19774   2.158   4.446   6.774  0.2206  0.4495 -0.1678
 6399SOL    HW119775   2.117   4.439   6.860  0.7748 -0.2531  0.0536
 6399SOL    HW219776   2.098   4.399   6.715 -0.2574  1.0998 -0.2139
 6400SOL     OW19777   5.008   4.385   9.925 -0.2163  0.0607  0.0692
 6400SOL    HW119778   4.930   4.396   9.871 -0.4854  0.2436  0.4911
 6400SOL    HW219779   5.064   4.459   9.901 -1.1729  1.2654  1.4479
 6401SOL     OW19780   7.258   8.656   0.667 -0.0904 -0.3004  0.0177
 6401SOL    HW119781   7.198   8.730   0.660  0.5716  0.2159 -0.3250
 6401SOL    HW219782   7.308   8.658   0.586  0.1471 -0.9386  0.1415
 6402SOL     OW19783   1.778   5.065   9.693 -0.0364 -0.5876  0.5411
 6402SOL    HW119784   1.841   5.135   9.677 -0.4977 -0.0781  0.9208
 6402SOL    HW219785   1.799   5.034   9.781 -0.0879 -0.6583  0.5288
 6403SOL     OW19786   7.420   0.252   3.785 -0.2594  0.3650 -0.2530
 6403SOL    HW119787   7.349   0.232   3.724 -0.5065 -0.6938  0.3438
 6403SOL    HW219788   7.377   0.263   3.870  0.2094  0.5288 -0.0288
 6404SOL     OW19789   5.565   0.488   7.919 -0.1893 -0.3738  0.4620
 6404SOL    HW119790   5.550   0.418   7.982  1.3516 -0.7609  0.4489
 6404SOL    HW219791   5.660   0.498   7.917 -0.1215 -0.7313 -2.1316
 6405SOL     OW19792   5.339   1.110   7.597 -0.1631  0.2082 -0.2238
 6405SOL    HW119793   5.317   1.020   7.573 -1.8018  0.4178  0.3180
 6405SOL    HW219794   5.309   1.118   7.688  0.3795  1.1702 -0.1132
 6406SOL     OW19795   4.870   7.825   8.079 -0.6529  0.3537 -0.0601
 6406SOL    HW119796   4.807   7.884   8.039 -1.1770  1.2896  2.0310
 6406SOL    HW219797   4.931   7.883   8.125 -0.7785 -0.6626  1.4598
 6407SOL     OW19798   0.274   7.526   9.597  0.5862 -0.1636  0.3793
 6407SOL    HW119799   0.313   7.609   9.624  0.1493  0.2209 -0.1293
 6407SOL    HW219800   0.215   7.503   9.668 -0.6542  0.9026 -0.2471
 6408SOL     OW19801   7.847   2.196   3.096  0.0874 -0.2261 -0.1869
 6408SOL    HW119802   7.780   2.144   3.140  1.2950 -2.0136 -0.3517
 6408SOL    HW219803   7.930   2.153   3.120  1.0266  0.7540 -1.5309
 6409SOL     OW19804   3.234   5.271   2.421  0.6765  0.0432  0.2141
 6409SOL    HW119805   3.305   5.275   2.485  0.3235 -0.7403  0.6676
 6409SOL    HW219806   3.207   5.179   2.421  0.5907  0.0490 -0.9802
 6410SOL     OW19807   3.984   5.212   0.099  0.5227 -0.2982 -0.1177
 6410SOL    HW119808   3.969   5.305   0.118  3.1971  0.7753 -2.4161
 6410SOL    HW219809   3.951   5.166   0.175 -1.2291  2.5042  0.9852
 6411SOL     OW19810   4.757   6.563   8.498  0.1395 -0.5469  0.0287
 6411SOL    HW119811   4.698   6.555   8.423 -0.1182 -1.2057  0.2936
 6411SOL    HW219812   4.745   6.481   8.547  0.6921 -0.3506  0.5067
 6412SOL     OW19813   4.981   4.905   2.072  0.3521  0.4467 -0.2283
 6412SOL    HW119814   5.006   4.975   2.133 -0.7079  2.1062 -1.6230
 6412SOL    HW219815   4.888   4.919   2.055  0.1171 -1.2894 -0.6079
 6413SOL     OW19816   2.676   2.028   7.570  0.8573 -0.2681  0.2572
 6413SOL    HW119817   2.657   2.114   7.534 -3.1438 -0.9976  0.2266
 6413SOL    HW219818   2.692   1.972   7.494  0.3162 -0.1690  0.0676
 6414SOL     OW19819   0.014   5.846   6.684  0.3516 -0.1936  0.1539
 6414SOL    HW119820   0.104   5.879   6.672  0.6886 -1.1811 -0.1354
 6414SOL    HW219821   0.017   5.798   6.767 -0.0595  0.2508  0.4279
 6415SOL     OW19822   4.825   8.148   7.114 -0.5284 -0.3032 -0.1235
 6415SOL    HW119823   4.838   8.242   7.122  3.3523 -0.5749 -1.1634
 6415SOL    HW219824   4.780   8.136   7.031  0.3156  0.6294 -0.7342
 6416SOL     OW19825   6.353   1.987   5.037 -0.7911 -0.4561 -0.1973
 6416SOL    HW119826   6.284   2.025   4.983 -1.9500 -2.2321 -0.0580
 6416SOL    HW219827   6.426   2.049   5.031 -2.4832  1.6442 -0.1086
 6417SOL     OW19828   7.601   7.040   8.878 -0.0511  0.2738 -0.2820
 6417SOL    HW119829   7.636   7.099   8.945 -0.1751  0.8288 -0.7049
 6417SOL    HW219830   7.673   7.029   8.815  1.5143 -3.2718  1.7974
 6418SOL     OW19831   6.636   9.543   7.473  0.1611 -0.0410  0.4983
 6418SOL    HW119832   6.623   9.530   7.379  1.3872  1.0207  0.1570
 6418SOL    HW219833   6.599   9.464   7.513 -0.8435 -0.2821 -0.8264
 6419SOL     OW19834   0.117   9.033   2.892  0.2726 -0.6206 -0.4347
 6419SOL    HW119835   0.200   9.077   2.911 -0.8132  0.4009  2.5384
 6419SOL    HW219836   0.128   8.945   2.928 -0.5283  0.1623  1.9227
 6420SOL     OW19837   3.023   8.987   9.079 -0.0153 -0.1802 -0.3269
 6420SOL    HW119838   2.942   8.982   9.028 -1.1648 -0.2900  1.4385
 6420SOL    HW219839   3.003   8.940   9.160  1.0096  1.8131  1.1565
 6421SOL     OW19840   7.530   4.698   5.958 -0.1854  0.2072  0.0380
 6421SOL    HW119841   7.547   4.750   6.036 -2.6765  1.5969 -0.2172
 6421SOL    HW219842   7.536   4.607   5.987 -1.3812  0.6986  1.9596
 6422SOL     OW19843   4.967   7.589   1.708 -0.5399 -0.6989  0.5758
 6422SOL    HW119844   4.991   7.667   1.658  1.0673 -0.8220  1.0963
 6422SOL    HW219845   5.024   7.520   1.674  0.9749 -0.6786  2.8474
 6423SOL     OW19846   8.005   0.533   8.706  0.3443 -0.5607 -0.2360
 6423SOL    HW119847   7.958   0.570   8.781  0.9416  2.5877 -1.2378
 6423SOL    HW219848   7.938   0.523   8.638  0.3466 -0.3610 -0.2678
 6424SOL     OW19849   7.267   6.575   8.463  0.1766  0.3305 -0.1391
 6424SOL    HW119850   7.173   6.589   8.472  0.0434 -0.5205 -0.1180
 6424SOL    HW219851   7.303   6.597   8.549  0.0992  1.3785 -0.3643
 6425SOL     OW19852   4.142   4.610   7.635 -0.6069 -0.1118 -0.1628
 6425SOL    HW119853   4.210   4.620   7.702 -1.4258  0.4041  0.6013
 6425SOL    HW219854   4.118   4.517   7.639 -1.0892  0.0398  0.7031
 6426SOL     OW19855   0.844   7.663   6.939  0.4217 -0.6034  0.0653
 6426SOL    HW119856   0.921   7.674   6.996 -0.6442  0.2049  1.4114
 6426SOL    HW219857   0.772   7.701   6.989 -0.9404 -1.6907 -1.0001
 6427SOL     OW19858   6.609   5.158   4.588  0.3639  0.7963 -0.5229
 6427SOL    HW119859   6.698   5.157   4.624  0.6908  1.0715 -1.2968
 6427SOL    HW219860   6.559   5.100   4.645  0.5848  2.0876  1.0705
 6428SOL     OW19861   1.214   3.389   5.078  0.4619  0.1219 -0.5830
 6428SOL    HW119862   1.214   3.353   5.167  1.8502  2.0654  0.2631
 6428SOL    HW219863   1.229   3.483   5.090 -2.6507  1.0345 -2.7180
 6429SOL     OW19864   0.540   8.107   4.493  0.3715  0.7032  0.4346
 6429SOL    HW119865   0.483   8.146   4.559 -0.7761 -1.4151  0.7657
 6429SOL    HW219866   0.490   8.112   4.412  1.6128  2.9209 -0.3104
 6430SOL     OW19867   9.174   4.990   8.296 -0.2323  0.1277 -0.2010
 6430SOL    HW119868   9.124   4.979   8.377 -0.0177 -0.6948 -0.1705
 6430SOL    HW219869   9.233   5.063   8.314 -1.1234  0.8500 -0.0955
 6431SOL     OW19870   3.289   8.285   4.009  0.4942 -0.2052 -0.7831
 6431SOL    HW119871   3.343   8.262   4.084 -0.8589 -0.8046  0.0426
 6431SOL    HW219872   3.274   8.379   4.018 -0.9819 -0.5242  0.6544
 6432SOL     OW19873   7.620   5.931   3.705  0.2587  0.3585 -0.2098
 6432SOL    HW119874   7.552   5.864   3.696  0.4415  0.2516 -0.8437
 6432SOL    HW219875   7.585   5.993   3.769  0.2424 -0.5317  0.6569
 6433SOL     OW19876   0.996   1.920   4.829  0.3452 -0.0698  0.1696
 6433SOL    HW119877   0.993   1.944   4.922  0.3031  1.4513 -0.2027
 6433SOL    HW219878   1.037   1.995   4.786 -1.0288 -0.0848 -1.2561
 6434SOL     OW19879   6.474   7.365   5.157  0.4843 -0.2948  1.2828
 6434SOL    HW119880   6.569   7.369   5.151  0.4171 -0.4825 -0.3953
 6434SOL    HW219881   6.443   7.444   5.114 -0.1290 -0.5641  1.2060
 6435SOL     OW19882   0.622   3.174   6.364 -0.1466 -0.0441 -0.3251
 6435SOL    HW119883   0.639   3.244   6.300 -0.5619 -1.0634 -1.6087
 6435SOL    HW219884   0.549   3.124   6.325 -2.2788  0.8421  2.2276
 6436SOL     OW19885   6.149   2.767   7.524 -0.2597  0.4951 -0.0818
 6436SOL    HW119886   6.131   2.674   7.537  0.1567  0.6309  1.7393
 6436SOL    HW219887   6.201   2.793   7.600 -3.3551  3.0181  1.4649
 6437SOL     OW19888   4.938   2.572   5.152  1.3461 -0.5242  0.8952
 6437SOL    HW119889   4.868   2.584   5.216 -0.7081 -0.8238 -1.1694
 6437SOL    HW219890   4.991   2.501   5.188 -0.2245 -1.2621  1.8779
 6438SOL     OW19891   0.147   7.976   7.123 -0.1348  0.3172 -0.2718
 6438SOL    HW119892   0.197   7.964   7.204  1.1150 -1.3612 -1.2249
 6438SOL    HW219893   0.136   7.888   7.089 -0.8073  0.9715 -1.8360
 6439SOL     OW19894   8.266   6.174   5.268 -0.1592  0.3225  0.0811
 6439SOL    HW119895   8.252   6.115   5.194 -0.9525  0.8744 -0.2218
 6439SOL    HW219896   8.255   6.119   5.345  0.3708 -0.1899 -0.1949
 6440SOL     OW19897   7.978   4.600   1.119 -0.3463 -0.3090  0.2166
 6440SOL    HW119898   7.935   4.522   1.154  1.3801 -0.9220  1.0562
 6440SOL    HW219899   8.051   4.566   1.067 -1.2632  0.6851 -1.8087
 6441SOL     OW19900   4.654   7.064   9.796  0.3514 -0.4323  0.3673
 6441SOL    HW119901   4.606   7.046   9.714 -0.1851  0.6037  0.4325
 6441SOL    HW219902   4.633   7.155   9.816 -0.7005 -1.0729  2.4469
 6442SOL     OW19903   6.265   6.862   4.809  0.1038  0.3996  0.1882
 6442SOL    HW119904   6.340   6.858   4.750 -0.1886 -0.6654 -0.1476
 6442SOL    HW219905   6.295   6.914   4.884  0.5719  1.5356 -0.7609
 6443SOL     OW19906   4.349   6.617   1.994  0.1951 -0.0815  0.0415
 6443SOL    HW119907   4.418   6.648   1.936  0.3048  1.4531  0.9487
 6443SOL    HW219908   4.394   6.597   2.076 -0.5189  2.0223  1.0219
 6444SOL     OW19909   7.864   3.065   4.357 -0.0739  0.4829  0.1657
 6444SOL    HW119910   7.943   3.018   4.383 -0.9639 -1.3802 -0.3152
 6444SOL    HW219911   7.839   3.114   4.435  1.9854  1.8110  0.0678
 6445SOL     OW19912   6.518   2.453   0.990  0.1006 -0.4477  0.4751
 6445SOL    HW119913   6.589   2.427   0.931  0.6162  0.8656  0.4840
 6445SOL    HW219914   6.478   2.529   0.946  0.2099  0.2722  1.5902
 6446SOL     OW19915   0.174   7.182   4.104 -0.2451  0.0116  0.2646
 6446SOL    HW119916   0.198   7.185   4.012  2.8741 -0.8342  0.9227
 6446SOL    HW219917   0.207   7.265   4.140  0.7871 -0.7009  1.0223
 6447SOL     OW19918   0.431   1.394   8.225  0.3707  0.3094  0.0139
 6447SOL    HW119919   0.381   1.474   8.208  1.6742  0.6014 -3.3339
 6447SOL    HW219920   0.365   1.325   8.230 -0.6094  0.9495 -2.3280
 6448SOL     OW19921   4.658   4.087   8.897 -0.2270  0.3066  0.6918
 6448SOL    HW119922   4.741   4.130   8.879 -0.1957 -0.6405 -1.8714
 6448SOL    HW219923   4.680   4.016   8.958  1.3328 -1.2720 -1.5611
 6449SOL     OW19924   5.079   0.732   3.971  1.5011 -0.1327 -0.4027
 6449SOL    HW119925   4.984   0.749   3.973  1.2859 -1.3316  0.9937
 6449SOL    HW219926   5.117   0.799   4.027  1.4482  0.0722 -0.6064
 6450SOL     OW19927   1.212   2.564   1.980  0.2362  0.1276 -0.2375
 6450SOL    HW119928   1.217   2.608   1.895  0.3692  0.0006 -0.2954
 6450SOL    HW219929   1.157   2.622   2.033  0.1691  0.2170 -0.4032
 6451SOL     OW19930   1.053   1.344   8.471  0.2650  0.3007  0.1518
 6451SOL    HW119931   1.121   1.358   8.537  0.0455 -1.8495  0.9204
 6451SOL    HW219932   1.090   1.280   8.411 -1.1553 -1.1645  0.7671
 6452SOL     OW19933   4.129   3.489   5.050 -0.1250  0.5730  0.3109
 6452SOL    HW119934   4.178   3.557   5.003  0.1505  0.0669 -0.1492
 6452SOL    HW219935   4.195   3.423   5.071 -0.7554 -0.5698 -1.1432
 6453SOL     OW19936   7.243   1.688   8.141 -0.8401  0.2443  0.2089
 6453SOL    HW119937   7.260   1.776   8.176 -2.9071  0.8127 -0.1226
 6453SOL    HW219938   7.214   1.638   8.217  0.8443 -0.3486  0.5046
 6454SOL     OW19939   9.410   6.328   9.876 -0.4684  0.3374  0.1236
 6454SOL    HW119940   9.404   6.275   9.797 -0.8940  2.3452 -1.2789
 6454SOL    HW219941   9.329   6.309   9.924 -1.1813  0.5882 -0.9502
 6455SOL     OW19942   8.976   7.778   8.038 -0.1552  0.5337  0.4728
 6455SOL    HW119943   8.971   7.803   7.946  0.6488  0.4568  0.3941
 6455SOL    HW219944   9.034   7.844   8.077  0.8513 -0.3709  0.5614
 6456SOL     OW19945   4.679   3.748   8.489 -0.6076  0.0759 -0.1305
 6456SOL    HW119946   4.657   3.760   8.397  0.2431 -2.4268 -0.7265
 6456SOL    HW219947   4.728   3.666   8.492 -0.7960 -0.0306  2.5876
 6457SOL     OW19948   2.199   1.656   1.879 -0.0688 -0.5000  0.0002
 6457SOL    HW119949   2.229   1.579   1.830 -0.1453 -1.0060  0.7342
 6457SOL    HW219950   2.128   1.692   1.826 -0.1079 -0.9986 -0.2962
 6458SOL     OW19951   6.762   2.395   6.582 -0.3407 -0.0816  0.3157
 6458SOL    HW119952   6.825   2.382   6.652  0.8145 -0.7285 -0.7947
 6458SOL    HW219953   6.677   2.379   6.622  0.4255 -2.9392  1.0260
 6459SOL     OW19954   5.255   6.049   7.449  0.3529  0.0200 -0.0968
 6459SOL    HW119955   5.199   6.059   7.526  2.0640 -2.5155  1.6569
 6459SOL    HW219956   5.316   6.123   7.454  0.0306  0.2484  0.6527
 6460SOL     OW19957   2.111   6.953   0.953 -0.3864 -0.0978 -0.7471
 6460SOL    HW119958   2.058   6.897   1.009  1.2498 -0.4477  0.5106
 6460SOL    HW219959   2.048   7.014   0.914 -1.5881  0.1427  1.4374
 6461SOL     OW19960   5.312   1.083   8.991 -0.6176  0.1872  0.4886
 6461SOL    HW119961   5.239   1.105   9.049 -0.6903 -1.3809  1.0615
 6461SOL    HW219962   5.390   1.094   9.045 -0.6798 -1.2031  0.8971
 6462SOL     OW19963   0.533   5.915   1.399 -0.3448 -0.2152  0.1835
 6462SOL    HW119964   0.554   5.990   1.344  2.1721 -1.2240 -0.3845
 6462SOL    HW219965   0.565   5.940   1.486 -0.6844 -0.1468  0.2902
 6463SOL     OW19966   0.576   5.057   5.724  0.0493 -0.4134  0.6606
 6463SOL    HW119967   0.653   5.030   5.773 -0.4090  1.6124  2.6507
 6463SOL    HW219968   0.599   5.142   5.688 -1.6023  0.8277  2.3524
 6464SOL     OW19969   8.422   2.065   2.644  0.1247  0.2412  0.4139
 6464SOL    HW119970   8.441   2.020   2.561 -2.1527 -0.3216  0.1470
 6464SOL    HW219971   8.328   2.057   2.656  0.4251 -0.1521  3.3567
 6465SOL     OW19972   7.573   9.023   7.882  0.0715 -0.4263  0.3825
 6465SOL    HW119973   7.576   9.072   7.800 -1.3341 -0.7613  0.1051
 6465SOL    HW219974   7.619   8.942   7.863 -2.6961 -1.7941 -1.0316
 6466SOL     OW19975   2.429   1.039   2.350 -0.0626  0.7719  0.3166
 6466SOL    HW119976   2.413   0.950   2.382  1.0420 -0.5313 -2.4706
 6466SOL    HW219977   2.363   1.052   2.282  0.5850  1.5771 -0.1676
 6467SOL     OW19978   5.231   9.313   4.240  0.2916 -0.4294 -0.7417
 6467SOL    HW119979   5.171   9.335   4.312 -0.4059  1.6608 -1.8904
 6467SOL    HW219980   5.290   9.387   4.235  0.5285 -0.6926 -2.1313
 6468SOL     OW19981   8.141   2.754   7.062  0.2018  0.0094 -0.1392
 6468SOL    HW119982   8.153   2.816   6.990  0.7605  0.5467  0.4107
 6468SOL    HW219983   8.183   2.674   7.032 -0.4323 -0.0913 -0.8116
 6469SOL     OW19984   7.454   1.482   7.543  0.6067 -0.0075 -0.3358
 6469SOL    HW119985   7.546   1.508   7.537  0.3454  0.9509 -0.3236
 6469SOL    HW219986   7.433   1.448   7.456  0.9356 -0.1233 -0.3714
 6470SOL     OW19987   0.444   8.434   2.811 -0.0292  0.2497 -0.1509
 6470SOL    HW119988   0.477   8.409   2.725  3.0186  0.1619  0.9031
 6470SOL    HW219989   0.456   8.355   2.864 -2.8924 -0.0492  0.1889
 6471SOL     OW19990   6.392   7.931   6.515 -0.2704 -0.6104  0.2288
 6471SOL    HW119991   6.457   7.988   6.473 -0.5062 -1.4014 -1.2729
 6471SOL    HW219992   6.400   7.951   6.608  0.3723  1.1211 -0.1534
 6472SOL     OW19993   4.000   2.962   7.496  0.3104  0.0251 -0.3767
 6472SOL    HW119994   4.071   2.990   7.554  1.4050 -0.7001 -1.3067
 6472SOL    HW219995   3.975   2.875   7.528  1.2852 -0.6121 -1.2542
 6473SOL     OW19996   2.991   2.737   8.484 -0.6197  0.0802  0.1776
 6473SOL    HW119997   3.042   2.809   8.522 -1.6387  0.4210  0.9628
 6473SOL    HW219998   2.944   2.777   8.411  1.1579 -0.5231 -1.3598
 6474SOL     OW19999   0.300   4.288   9.397  0.3374  0.5502  0.3097
 6474SOL    HW120000   0.334   4.335   9.472  0.2915 -0.7356  1.1716
 6474SOL    HW220001   0.360   4.214   9.385  0.3862  0.7710 -0.9656
 6475SOL     OW20002   4.345   3.204   3.362  0.1702 -0.0936 -0.0432
 6475SOL    HW120003   4.256   3.169   3.370  0.2435 -0.4159 -0.5692
 6475SOL    HW220004   4.389   3.143   3.303  0.1359  1.2221 -1.4711
 6476SOL     OW20005   9.458   5.666   2.526  0.0798  0.2282  0.1042
 6476SOL    HW120006   9.485   5.747   2.569  0.1507  0.9451 -1.2451
 6476SOL    HW220007   9.374   5.686   2.487 -0.3698 -0.6652  0.5861
 6477SOL     OW20008   6.936   2.033   6.459  0.1535  0.1369 -0.0841
 6477SOL    HW120009   6.899   2.040   6.371 -1.2499  0.2337  0.5031
 6477SOL    HW220010   6.895   1.955   6.496  0.7720  0.0737  0.4845
 6478SOL     OW20011   7.142   0.259   3.339  0.0947 -0.0849 -0.5477
 6478SOL    HW120012   7.236   0.276   3.346  0.3753 -1.5995 -0.0808
 6478SOL    HW220013   7.104   0.342   3.312  1.2006  1.4017  2.1215
 6479SOL     OW20014   9.555   6.529   2.268 -0.3111 -0.0149  0.1255
 6479SOL    HW120015   9.538   6.566   2.354  0.3311 -0.8342  0.6115
 6479SOL    HW220016   9.571   6.436   2.284  0.3895 -0.0656 -0.8045
 6480SOL     OW20017   1.600   2.095   3.531  0.3481  0.1993  0.8427
 6480SOL    HW120018   1.544   2.042   3.588  0.3246  1.8380  2.3933
 6480SOL    HW220019   1.574   2.185   3.547  0.3946  0.7681 -1.7379
 6481SOL     OW20020   1.843   7.451   4.260 -0.0128 -0.0123 -0.6542
 6481SOL    HW120021   1.768   7.472   4.316 -0.1441 -0.2822 -0.7260
 6481SOL    HW220022   1.911   7.423   4.321 -0.2023 -0.4424 -0.6399
 6482SOL     OW20023   9.472   1.210   4.134 -0.5946  0.2857  0.1626
 6482SOL    HW120024   9.503   1.298   4.111  1.9499 -0.3920  0.6823
 6482SOL    HW220025   9.457   1.213   4.228  1.8375 -0.4017  0.6315
 6483SOL     OW20026   9.911   8.419   0.897 -0.6143  0.0318  0.7342
 6483SOL    HW120027   9.978   8.362   0.935 -0.1165  1.3893  1.9872
 6483SOL    HW220028   9.944   8.439   0.809  0.7538  0.8364  1.3961
 6484SOL     OW20029   7.141   8.618   5.620 -0.5432 -0.0992 -0.0102
 6484SOL    HW120030   7.202   8.684   5.589  0.6587 -0.4444  1.5071
 6484SOL    HW220031   7.086   8.664   5.684 -0.2445 -0.3709  0.4439
 6485SOL     OW20032   0.396   9.002   2.580  0.4559  0.1357 -0.4113
 6485SOL    HW120033   0.346   9.047   2.513  1.5002  0.3936 -1.0392
 6485SOL    HW220034   0.403   9.065   2.652  2.6325  1.3710 -1.6153
 6486SOL     OW20035   7.251   0.487   9.724 -0.5654  0.3582  0.2946
 6486SOL    HW120036   7.254   0.581   9.740 -0.0688  0.2862  0.6557
 6486SOL    HW220037   7.323   0.470   9.663 -1.1057  0.3102 -0.3504
 6487SOL     OW20038   9.710   3.426   7.900 -0.3205  0.3760 -0.9622
 6487SOL    HW120039   9.679   3.336   7.900 -2.1412  0.9448 -0.1898
 6487SOL    HW220040   9.721   3.448   7.993 -3.0194  1.8600 -0.8811
 6488SOL     OW20041   5.179   8.746   6.270 -0.5679 -0.2100 -0.5697
 6488SOL    HW120042   5.112   8.811   6.252  1.6106  2.3724  0.0085
 6488SOL    HW220043   5.213   8.770   6.357  0.4451 -2.0315 -0.4127
 6489SOL     OW20044   9.751   5.411   5.595 -0.3311 -0.6928 -0.0763
 6489SOL    HW120045   9.675   5.470   5.594 -1.0758 -1.4098  3.0623
 6489SOL    HW220046   9.714   5.326   5.621  1.2781 -1.5928 -0.6237
 6490SOL     OW20047   4.973   3.560   5.757 -0.0713 -0.4255  0.7380
 6490SOL    HW120048   5.042   3.494   5.750 -0.1002 -0.5406  1.4171
 6490SOL    HW220049   4.942   3.572   5.667 -1.5898 -2.9831  0.7944
 6491SOL     OW20050   3.168   7.382   4.926  0.4741 -0.0562 -0.2548
 6491SOL    HW120051   3.232   7.406   4.993  2.0064 -1.4003 -1.1550
 6491SOL    HW220052   3.088   7.364   4.975  0.9958  0.8966  1.0013
 6492SOL     OW20053   4.231   6.530   1.749 -0.0221 -0.0713  0.8558
 6492SOL    HW120054   4.150   6.486   1.722 -0.8148  1.7578  0.0841
 6492SOL    HW220055   4.298   6.493   1.692 -0.9433  0.7661 -0.8350
 6493SOL     OW20056   7.322   0.899   3.613 -0.0647 -0.2568 -0.4053
 6493SOL    HW120057   7.273   0.887   3.694  1.4827  2.2857  1.0490
 6493SOL    HW220058   7.401   0.845   3.624  1.2572  1.7992  0.9234
 6494SOL     OW20059   7.867   0.859   9.600  0.2970 -0.3491 -0.3851
 6494SOL    HW120060   7.888   0.796   9.670 -1.4176  2.0226  2.4833
 6494SOL    HW220061   7.949   0.906   9.585  0.7915 -1.1580 -0.3074
 6495SOL     OW20062   9.556   7.269   4.214 -0.0901 -0.1775  0.1473
 6495SOL    HW120063   9.615   7.309   4.278  0.1284 -0.8305  0.3633
 6495SOL    HW220064   9.470   7.276   4.254 -0.2167  1.0013 -0.2762
 6496SOL     OW20065   8.063   8.494   5.140  0.2563 -0.1674 -0.1803
 6496SOL    HW120066   8.155   8.510   5.160  0.0670 -0.4079  0.9685
 6496SOL    HW220067   8.018   8.509   5.224 -0.2962 -3.8781  0.3584
 6497SOL     OW20068   1.464   2.506   0.231 -0.6137 -0.3267 -0.3958
 6497SOL    HW120069   1.398   2.552   0.181 -0.7822 -0.9010 -0.7146
 6497SOL    HW220070   1.544   2.558   0.221 -1.2672  1.0178  0.9597
 6498SOL     OW20071   2.569   0.193   7.943  0.4715  0.7027  0.3030
 6498SOL    HW120072   2.615   0.143   8.010  1.1075  2.1506  0.9848
 6498SOL    HW220073   2.478   0.194   7.972  0.6582  0.9000  0.8876
 6499SOL     OW20074   5.399   8.373   8.067  0.0038 -0.4687 -0.2256
 6499SOL    HW120075   5.492   8.395   8.066 -0.3429  1.3521  1.3217
 6499SOL    HW220076   5.379   8.359   8.160 -1.1530 -1.4193 -0.5933
 6500SOL     OW20077   9.451   3.109   9.887 -0.1712  0.1855 -0.5660
 6500SOL    HW120078   9.513   3.125   9.958  1.9306  0.1360 -2.2884
 6500SOL    HW220079   9.369   3.149   9.917  0.2071 -1.0323  2.4367
 6501SOL     OW20080   4.681   8.167   6.881  0.6289  0.0027 -0.2462
 6501SOL    HW120081   4.630   8.111   6.823  0.2458  0.6171 -0.5211
 6501SOL    HW220082   4.670   8.255   6.844  1.3522  0.2327  0.0747
 6502SOL     OW20083   3.214   6.792   5.055 -0.5523  0.3731  0.3763
 6502SOL    HW120084   3.290   6.753   5.012 -1.0324 -0.3072  0.1198
 6502SOL    HW220085   3.251   6.846   5.124  0.1969  0.7229 -0.2787
 6503SOL     OW20086   4.283   9.063   3.061 -0.0907 -0.3799  0.0437
 6503SOL    HW120087   4.191   9.048   3.039  0.0591 -0.9043 -0.2446
 6503SOL    HW220088   4.281   9.136   3.123 -0.6118  0.3977 -0.8475
 6504SOL     OW20089   0.948   6.281   2.709  0.0272 -0.0480 -0.6132
 6504SOL    HW120090   0.973   6.373   2.711 -1.4040  0.4971  3.5311
 6504SOL    HW220091   0.860   6.280   2.673  0.1321  0.1823 -0.8737
 6505SOL     OW20092   7.683   6.995   2.850 -0.4557  0.1200 -0.0037
 6505SOL    HW120093   7.635   6.918   2.880 -1.0148  0.7427  0.7462
 6505SOL    HW220094   7.645   7.015   2.764 -1.6435  0.6733  0.6281
 6506SOL     OW20095   0.511   7.488   3.812 -0.1325  0.3952 -0.6197
 6506SOL    HW120096   0.593   7.488   3.762  0.1838 -0.0085 -0.1028
 6506SOL    HW220097   0.512   7.570   3.861  0.1735  0.1856 -0.2728
 6507SOL     OW20098   3.660   5.079   1.387  0.5010  0.4460 -0.0466
 6507SOL    HW120099   3.611   5.035   1.318 -0.5701  1.2383  0.1792
 6507SOL    HW220100   3.635   5.171   1.380 -1.0268  0.3296  2.4642
 6508SOL     OW20101   3.924   7.940   9.489  0.5344 -0.0783 -0.0198
 6508SOL    HW120102   3.890   7.854   9.515 -1.0886 -0.1495 -2.0232
 6508SOL    HW220103   4.007   7.921   9.446  0.0233 -0.7231 -0.7538
 6509SOL     OW20104   6.603   6.815   4.845  0.5921 -0.0496  0.6740
 6509SOL    HW120105   6.551   6.738   4.821  0.8249 -0.3597  1.1331
 6509SOL    HW220106   6.679   6.778   4.891  0.3107  0.4985  1.6004
 6510SOL     OW20107   0.025   8.986   6.643 -0.0489  0.4964  0.1044
 6510SOL    HW120108   0.082   8.912   6.664  0.3791 -0.2875 -3.2752
 6510SOL    HW220109  -0.044   8.983   6.709  0.6523 -2.1278  0.8396
 6511SOL     OW20110   4.822   5.273   0.410  0.2587 -0.4280  0.3509
 6511SOL    HW120111   4.781   5.353   0.377  0.2152 -0.8232 -0.5900
 6511SOL    HW220112   4.906   5.268   0.363  0.6147 -0.5178  0.9965
 6512SOL     OW20113   5.177   5.219   8.426 -0.1959  0.1736 -0.5465
 6512SOL    HW120114   5.234   5.289   8.457  0.3585 -1.0045  1.2642
 6512SOL    HW220115   5.222   5.138   8.453 -2.3487 -0.8211  0.3058
 6513SOL     OW20116   2.744   1.984   0.588  0.6751 -0.6178 -0.3944
 6513SOL    HW120117   2.820   1.994   0.644  1.0306 -0.5315 -0.8843
 6513SOL    HW220118   2.751   2.056   0.525  0.5776 -1.0367 -0.8853
 6514SOL     OW20119   1.031   6.879   3.285  0.1604 -0.1227  0.3463
 6514SOL    HW120120   1.000   6.867   3.195  0.4656 -1.4710  0.4001
 6514SOL    HW220121   1.045   6.790   3.317 -1.3613  0.2469  2.2330
 6515SOL     OW20122   6.862   1.209   4.391 -0.3053 -0.2537 -0.5182
 6515SOL    HW120123   6.823   1.244   4.472 -0.7264 -1.9403  0.0669
 6515SOL    HW220124   6.892   1.286   4.343 -2.5088  1.0134 -0.0186
 6516SOL     OW20125   2.954   5.798   8.987 -0.4481 -0.4403  0.1332
 6516SOL    HW120126   2.994   5.732   8.931 -0.3468 -1.2654  1.1430
 6516SOL    HW220127   3.009   5.799   9.065 -1.4102 -0.3742  0.8344
 6517SOL     OW20128   0.976   1.235   1.618  0.0930 -0.0586 -0.0990
 6517SOL    HW120129   0.932   1.248   1.702  0.6603  2.3977 -0.0949
 6517SOL    HW220130   0.999   1.324   1.589  0.9997 -0.9256 -2.2724
 6518SOL     OW20131   5.871   8.809   1.326  0.0497  0.4302  0.0592
 6518SOL    HW120132   5.956   8.766   1.328  0.0956  0.5169 -0.0166
 6518SOL    HW220133   5.873   8.872   1.398  0.9048  2.0454 -1.2902
 6519SOL     OW20134   1.231   9.371   8.370 -0.3874 -0.4446 -0.1995
 6519SOL    HW120135   1.254   9.439   8.306 -0.1804 -0.0243  0.3110
 6519SOL    HW220136   1.137   9.357   8.357 -0.6062  0.5130  0.2045
 6520SOL     OW20137   5.656   9.206   3.960  0.4865 -0.3429 -0.4284
 6520SOL    HW120138   5.717   9.136   3.934 -1.1148 -2.4207  1.0173
 6520SOL    HW220139   5.600   9.165   4.026  0.7611  2.9630  2.1204
 6521SOL     OW20140   8.745   1.290   0.192  0.0412 -0.0084  0.2562
 6521SOL    HW120141   8.800   1.250   0.259 -0.1918  1.5910  1.4687
 6521SOL    HW220142   8.775   1.381   0.189 -1.8168  0.6307  0.1904
 6522SOL     OW20143   8.715   4.994   7.473  0.1899  0.2297  0.0098
 6522SOL    HW120144   8.734   4.916   7.526 -0.3721  1.1387  1.6123
 6522SOL    HW220145   8.801   5.034   7.458  0.1869  1.2085  2.2863
 6523SOL     OW20146   3.895   8.090   5.954  0.3615  0.2558 -0.6803
 6523SOL    HW120147   3.970   8.034   5.935  0.3082  0.5391 -1.7624
 6523SOL    HW220148   3.928   8.179   5.945  0.1796  0.4030  0.0055
 6524SOL     OW20149   7.910   2.404   9.531 -0.3434 -0.1571 -0.0187
 6524SOL    HW120150   7.929   2.386   9.439 -1.5168 -0.9910 -0.1356
 6524SOL    HW220151   7.972   2.472   9.556  1.0249 -0.9987 -0.9890
 6525SOL     OW20152   2.105   1.863   0.457 -0.2257  0.3456 -0.4159
 6525SOL    HW120153   2.042   1.816   0.513 -0.0267  2.6704  1.9489
 6525SOL    HW220154   2.051   1.925   0.407 -0.0371  1.0319  0.2126
 6526SOL     OW20155   1.553   2.345   1.204  0.4141 -0.3294 -0.3542
 6526SOL    HW120156   1.616   2.363   1.273  0.5131 -2.0133  0.0529
 6526SOL    HW220157   1.605   2.336   1.125  0.5428 -0.5059 -0.2490
 6527SOL     OW20158   4.883   9.028   6.015 -0.2549 -0.0916  0.0057
 6527SOL    HW120159   4.872   9.035   5.920  0.8223 -0.9355 -0.1949
 6527SOL    HW220160   4.959   9.081   6.035 -0.2563 -0.2165  0.3474
 6528SOL     OW20161   3.993   4.952   5.734 -0.2720 -0.1805 -0.0685
 6528SOL    HW120162   3.910   4.957   5.687  0.0090 -0.2960 -0.5807
 6528SOL    HW220163   4.059   4.976   5.669  0.0502  0.4470  0.4766
 6529SOL     OW20164   6.122   7.217   1.619  0.2979  0.4653 -0.3391
 6529SOL    HW120165   6.185   7.153   1.584 -0.2560 -1.8480  2.4870
 6529SOL    HW220166   6.173   7.297   1.631  2.0148 -0.5455 -0.5431
 6530SOL     OW20167   2.156   3.081   3.937  0.2908 -0.4968  0.2266
 6530SOL    HW120168   2.097   3.010   3.963  0.6308 -0.8139  0.1375
 6530SOL    HW220169   2.225   3.038   3.885 -0.1409  0.0550 -0.8506
 6531SOL     OW20170   4.578   1.082   5.312  0.2393  0.0598  0.3419
 6531SOL    HW120171   4.609   1.045   5.394  1.2586  2.0452  0.9191
 6531SOL    HW220172   4.484   1.095   5.324  0.6858  2.2507  2.0579
 6532SOL     OW20173   3.725   9.684   1.873 -0.0942 -0.4922 -0.6341
 6532SOL    HW120174   3.713   9.699   1.779 -0.0272  1.4318 -0.3650
 6532SOL    HW220175   3.648   9.633   1.899 -1.0532  0.5079 -1.4135
 6533SOL     OW20176   4.497   8.435   0.588 -0.2693 -0.3576  0.0223
 6533SOL    HW120177   4.590   8.456   0.580 -0.3638  1.1408  2.0431
 6533SOL    HW220178   4.451   8.515   0.561 -0.9015 -0.4284  0.8503
 6534SOL     OW20179   4.443   4.301   1.726  0.2926 -0.1201 -0.3181
 6534SOL    HW120180   4.472   4.215   1.694  3.2145 -0.2309  2.0902
 6534SOL    HW220181   4.492   4.364   1.673  0.1498 -0.0549 -0.3718
 6535SOL     OW20182   9.152   2.265   4.462 -0.5103  0.5687  0.0724
 6535SOL    HW120183   9.223   2.304   4.410 -1.3052 -0.7937 -2.1844
 6535SOL    HW220184   9.073   2.284   4.412 -1.2781 -1.0951  0.6009
 6536SOL     OW20185   1.766   1.516   8.735 -0.3735 -0.1800 -0.8745
 6536SOL    HW120186   1.809   1.439   8.698 -1.8365 -0.8108 -1.3109
 6536SOL    HW220187   1.676   1.512   8.703 -1.0292  0.6012  0.7474
 6537SOL     OW20188   4.661   7.980   7.994 -0.2109 -0.0715 -0.7178
 6537SOL    HW120189   4.579   7.930   7.999 -0.4990  0.4609 -0.0055
 6537SOL    HW220190   4.634   8.071   8.003  0.6107  0.0238  1.5355
 6538SOL     OW20191   1.648   5.814   6.673 -0.6249  0.4275  0.2441
 6538SOL    HW120192   1.655   5.733   6.724  1.9359  0.2019 -0.3239
 6538SOL    HW220193   1.642   5.785   6.582 -1.6559  0.8812  0.1516
 6539SOL     OW20194   1.473   1.122   4.651 -0.1139  0.4237 -0.0162
 6539SOL    HW120195   1.400   1.116   4.588  0.4102  0.9662 -0.6879
 6539SOL    HW220196   1.514   1.036   4.648  0.4995  0.7287 -1.1709
 6540SOL     OW20197   0.973   1.029   1.333  0.0866 -0.1897  0.0496
 6540SOL    HW120198   0.880   1.017   1.311  0.4744  1.3688 -2.9374
 6540SOL    HW220199   0.981   1.121   1.355  1.1915  0.2167 -1.7865
 6541SOL     OW20200   2.085   2.749   5.998  0.1647  0.2427  0.2336
 6541SOL    HW120201   2.147   2.747   6.072 -0.3253  0.4290  0.6526
 6541SOL    HW220202   1.999   2.753   6.039 -0.0941  0.8031 -0.3505
 6542SOL     OW20203   4.811   1.720   1.806  0.1880  0.3039  0.2851
 6542SOL    HW120204   4.716   1.726   1.820  0.3603  2.9586  0.9974
 6542SOL    HW220205   4.821   1.723   1.711 -0.4522  1.1446  0.2239
 6543SOL     OW20206   9.331   8.423   9.261  0.3287  0.2456  0.1896
 6543SOL    HW120207   9.378   8.442   9.180  0.1805 -0.5825 -0.0990
 6543SOL    HW220208   9.243   8.458   9.247 -0.2909 -1.5787 -0.7847
 6544SOL     OW20209   4.409   7.411   0.937 -0.1886 -0.8327 -0.1188
 6544SOL    HW120210   4.394   7.505   0.936  0.9916 -0.6127 -1.6600
 6544SOL    HW220211   4.377   7.381   0.852  2.7056 -1.1891 -1.1933
 6545SOL     OW20212   1.697   0.708   2.514  0.2670  0.0198 -0.0578
 6545SOL    HW120213   1.639   0.653   2.461  0.0713  0.2000 -0.0301
 6545SOL    HW220214   1.682   0.678   2.604  1.8503 -1.4631 -0.2491
 6546SOL     OW20215   4.665   1.940   6.320 -0.8543 -0.4696 -0.2000
 6546SOL    HW120216   4.622   1.978   6.396  0.0146 -0.2813  0.1993
 6546SOL    HW220217   4.649   1.846   6.328 -2.1811 -0.3166 -0.6839
 6547SOL     OW20218   1.398   6.556   1.140 -0.1741  0.6557 -0.1302
 6547SOL    HW120219   1.418   6.486   1.202 -1.1455  0.1703 -0.3557
 6547SOL    HW220220   1.379   6.632   1.196  0.4321  0.6294  0.1211
 6548SOL     OW20221   1.058   8.293   2.686  0.0957 -0.9223  0.3417
 6548SOL    HW120222   1.110   8.348   2.744  0.1408  0.3040 -0.8223
 6548SOL    HW220223   0.969   8.296   2.724  0.1145 -0.1099  0.3330
 6549SOL     OW20224   1.599   0.366   3.722 -0.9412 -0.5651  0.0982
 6549SOL    HW120225   1.529   0.345   3.783 -1.0521  0.1075  0.2052
 6549SOL    HW220226   1.569   0.333   3.638 -1.7143  0.3547 -0.0032
 6550SOL     OW20227   9.910   1.233   8.323 -0.2898 -0.0548  0.6344
 6550SOL    HW120228   9.886   1.290   8.249 -1.6218 -0.3999  0.7799
 6550SOL    HW220229   9.835   1.238   8.383  0.4037 -0.4568  1.5666
 6551SOL     OW20230   7.416   3.960   1.385  0.2792  0.4437  0.2464
 6551SOL    HW120231   7.358   4.020   1.432  0.0445  1.0700 -0.8087
 6551SOL    HW220232   7.503   3.977   1.421 -0.0457  0.1189  1.2210
 6552SOL     OW20233   2.390   2.168   1.236 -0.2349 -0.5523  0.1285
 6552SOL    HW120234   2.324   2.209   1.179 -0.8210 -0.2502  0.9976
 6552SOL    HW220235   2.344   2.152   1.318  1.1462  1.0705  1.3059
 6553SOL     OW20236   7.445   6.257   5.310  0.3403 -0.1795  0.3864
 6553SOL    HW120237   7.491   6.191   5.363 -0.2909 -1.1126 -0.1892
 6553SOL    HW220238   7.514   6.318   5.283  0.5425  0.9098  3.0506
 6554SOL     OW20239   9.794   7.853   6.621 -0.0268 -0.6929  0.1466
 6554SOL    HW120240   9.708   7.812   6.629 -1.1227  1.0253 -1.9524
 6554SOL    HW220241   9.834   7.810   6.545  0.0874 -0.0172 -0.1785
 6555SOL     OW20242   1.081   6.186   4.478  0.0075 -0.1501  0.5364
 6555SOL    HW120243   1.034   6.268   4.464  0.8600  0.4952  1.2854
 6555SOL    HW220244   1.092   6.149   4.391  0.9344  1.3128 -0.0185
 6556SOL     OW20245   3.732   9.714   1.168  0.2778  0.1335  0.1781
 6556SOL    HW120246   3.677   9.753   1.099  0.7673  0.4483 -0.0397
 6556SOL    HW220247   3.677   9.647   1.207 -0.6615  1.1461  0.6701
 6557SOL     OW20248   3.553   0.335   6.159 -0.0823  0.0063 -0.1228
 6557SOL    HW120249   3.590   0.327   6.071  3.2649  1.7314  0.9672
 6557SOL    HW220250   3.580   0.422   6.188 -0.0981 -0.9319  3.0264
 6558SOL     OW20251   5.668   0.434   6.454 -0.5344 -0.3014  0.6044
 6558SOL    HW120252   5.598   0.423   6.389 -2.1769 -0.0103  2.2236
 6558SOL    HW220253   5.663   0.355   6.507  1.5945 -1.1057 -0.2639
 6559SOL     OW20254   7.161   6.995   0.405 -0.2672  0.0480  0.7244
 6559SOL    HW120255   7.193   6.963   0.489  2.4675 -2.6284 -1.0912
 6559SOL    HW220256   7.121   6.918   0.364  1.5131  0.2427 -1.6525
 6560SOL     OW20257   7.602   5.521   9.780 -0.3175 -0.2411 -0.3838
 6560SOL    HW120258   7.568   5.487   9.863 -0.5142  0.3513 -0.2129
 6560SOL    HW220259   7.661   5.593   9.806 -1.1286  0.5881 -0.7838
 6561SOL     OW20260   0.167   6.510   3.860 -0.2149 -0.0240  0.2621
 6561SOL    HW120261   0.107   6.546   3.795  0.0496 -1.0271 -0.5510
 6561SOL    HW220262   0.110   6.482   3.932 -0.4230  2.0863  0.9913
 6562SOL     OW20263   3.849   1.535   8.743 -0.3409  0.0879 -0.1196
 6562SOL    HW120264   3.784   1.602   8.764 -1.3699 -0.2784 -1.8520
 6562SOL    HW220265   3.933   1.580   8.749 -0.9496  1.3017 -0.3483
 6563SOL     OW20266   4.127   9.877   9.339  0.3758 -0.0410 -0.0205
 6563SOL    HW120267   4.156   9.870   9.248  0.4859  0.2601 -0.0100
 6563SOL    HW220268   4.032   9.883   9.334  0.3265 -0.8126 -0.0687
 6564SOL     OW20269   7.510   5.535   7.591 -0.4219  0.4164  0.1114
 6564SOL    HW120270   7.562   5.557   7.668 -2.3240 -0.2028  1.6401
 6564SOL    HW220271   7.462   5.616   7.571 -0.6491  0.2910  0.1552
 6565SOL     OW20272   8.989   0.606   6.393  0.1155 -0.4181  0.4183
 6565SOL    HW120273   8.936   0.679   6.361 -0.0517  0.6550  2.9194
 6565SOL    HW220274   8.926   0.535   6.406  0.0156 -0.5161 -0.5796
 6566SOL     OW20275   2.123   8.864   6.395 -0.1521 -0.0707 -0.4732
 6566SOL    HW120276   2.200   8.838   6.446 -0.7996  0.1029  0.6446
 6566SOL    HW220277   2.153   8.937   6.341  0.1732  0.8846  0.9277
 6567SOL     OW20278   2.374   7.459   6.858  0.2717  0.0395 -0.2094
 6567SOL    HW120279   2.316   7.486   6.788 -0.4886 -0.2956  0.2755
 6567SOL    HW220280   2.408   7.374   6.830  0.9282  0.4670 -0.7221
 6568SOL     OW20281   2.622   7.581   0.597  0.7607 -0.1640 -0.4172
 6568SOL    HW120282   2.532   7.612   0.609  0.7815 -0.6462  1.1670
 6568SOL    HW220283   2.637   7.587   0.503 -1.4470 -1.4238 -0.9317
 6569SOL     OW20284   7.161   9.385   0.512  0.1178 -0.5178 -0.6319
 6569SOL    HW120285   7.091   9.335   0.468  0.2922 -1.5110  0.1808
 6569SOL    HW220286   7.241   9.336   0.493  0.3771 -0.2241 -0.2970
 6570SOL     OW20287   0.635   0.743   5.730  0.8125  0.1746  0.4478
 6570SOL    HW120288   0.574   0.733   5.657  0.8409  1.5650  0.1998
 6570SOL    HW220289   0.721   0.750   5.688  0.7212  2.0321  0.5046
 6571SOL     OW20290   1.309   1.020   9.624  0.4003 -0.3344 -0.0206
 6571SOL    HW120291   1.346   1.032   9.712 -0.7833  2.4789  0.1840
 6571SOL    HW220292   1.223   0.982   9.639  0.2204  0.0942  0.0340
 6572SOL     OW20293   4.030   5.397   7.414 -0.1668 -0.3726  0.1904
 6572SOL    HW120294   3.965   5.452   7.457  0.2654  0.3624 -0.0745
 6572SOL    HW220295   3.980   5.344   7.352 -0.6763 -0.7774  0.9422
 6573SOL     OW20296   2.487   1.588   9.409 -0.0092 -0.2732  1.2838
 6573SOL    HW120297   2.461   1.497   9.422 -0.8575  0.0934  2.2962
 6573SOL    HW220298   2.580   1.583   9.386 -0.5645 -1.5218 -0.9495
 6574SOL     OW20299   9.592   2.291   0.188  0.5558 -0.0835 -0.2119
 6574SOL    HW120300   9.656   2.341   0.138  0.5515 -2.0605 -2.3490
 6574SOL    HW220301   9.604   2.201   0.159 -1.5824 -0.8639  1.1054
 6575SOL     OW20302   8.276   4.947   2.760 -0.5411 -0.4014 -0.0435
 6575SOL    HW120303   8.340   4.940   2.689 -1.9079  0.2993 -1.3843
 6575SOL    HW220304   8.300   4.876   2.821  3.0224  1.3067  0.8032
 6576SOL     OW20305   6.828   1.864   0.756  0.7175  0.6696  0.7448
 6576SOL    HW120306   6.888   1.791   0.738 -0.7455 -0.3548 -0.2781
 6576SOL    HW220307   6.766   1.829   0.819 -0.6345  0.6423 -0.5555
 6577SOL     OW20308   5.662   9.425   5.222  0.0116 -0.0953  0.8224
 6577SOL    HW120309   5.711   9.401   5.144  2.1679  1.0997  1.7225
 6577SOL    HW220310   5.676   9.353   5.283  2.6957  1.1802  1.8866
 6578SOL     OW20311   1.350   3.938   9.455 -0.7082 -0.4698  0.1678
 6578SOL    HW120312   1.421   3.983   9.501 -1.9422  0.7442  0.9762
 6578SOL    HW220313   1.326   3.865   9.512 -0.3462 -0.6879  0.0462
 6579SOL     OW20314   1.233   2.423   3.592  0.4448  0.1352  0.6186
 6579SOL    HW120315   1.275   2.482   3.655 -0.1586  1.2104  0.0585
 6579SOL    HW220316   1.158   2.387   3.639 -0.4407  1.5159  0.3215
 6580SOL     OW20317   9.316   5.352   9.110  0.2858 -0.4568 -0.0854
 6580SOL    HW120318   9.345   5.424   9.165  0.9132 -1.1660  0.5275
 6580SOL    HW220319   9.369   5.360   9.030 -0.0557  0.0900 -0.2678
 6581SOL     OW20320   1.217   5.330   5.213 -0.2064 -0.3583  0.1957
 6581SOL    HW120321   1.158   5.262   5.180  1.4687 -0.6618 -2.4962
 6581SOL    HW220322   1.298   5.285   5.235 -0.1842  0.3471  1.6722
 6582SOL     OW20323   3.591   6.913   5.074  0.0705  0.5755 -0.3099
 6582SOL    HW120324   3.672   6.866   5.098 -0.1915 -0.2676 -1.0474
 6582SOL    HW220325   3.543   6.852   5.019 -1.4095  0.7976  0.6683
 6583SOL     OW20326   4.042   3.203   9.574 -0.0644  0.0877 -0.0351
 6583SOL    HW120327   4.085   3.163   9.498 -0.3855  2.5785 -1.6533
 6583SOL    HW220328   3.961   3.240   9.539 -0.0886  1.5488  1.4500
 6584SOL     OW20329   1.880   2.009   5.109 -0.3659  0.9228  0.1335
 6584SOL    HW120330   1.796   1.961   5.107 -1.1349  2.1622  1.1719
 6584SOL    HW220331   1.896   2.031   5.017 -0.2313 -0.8738 -0.3148
 6585SOL     OW20332   9.909   3.527   0.355  0.4834  0.1433  0.4338
 6585SOL    HW120333   9.826   3.558   0.318  0.5149  0.6473  0.7721
 6585SOL    HW220334   9.897   3.532   0.450  1.2271  1.1540  0.4972
 6586SOL     OW20335   5.290   5.428   8.596 -0.0315  0.0131  0.1593
 6586SOL    HW120336   5.236   5.434   8.674  0.6841  0.4450  0.6305
 6586SOL    HW220337   5.379   5.416   8.629  0.2641  0.0501 -0.5935
 6587SOL     OW20338   5.442   4.675   7.255  0.0717  0.6345  0.0470
 6587SOL    HW120339   5.380   4.742   7.284  1.0397  1.5108  0.1633
 6587SOL    HW220340   5.390   4.596   7.247 -0.7202  0.9236  1.8672
 6588SOL     OW20341   6.271   6.476   8.120  0.0257 -0.2760 -0.2704
 6588SOL    HW120342   6.299   6.472   8.028 -0.6402 -0.6823 -0.4631
 6588SOL    HW220343   6.192   6.530   8.119 -0.7771 -1.4091 -0.1535
 6589SOL     OW20344   8.505   1.782   1.689 -0.1510  0.4930 -0.4321
 6589SOL    HW120345   8.584   1.743   1.650  0.9832  2.2202  0.0226
 6589SOL    HW220346   8.494   1.865   1.642 -2.6604 -0.4073 -1.5707
 6590SOL     OW20347   4.233   5.799   3.430 -0.4662  0.1549  0.0150
 6590SOL    HW120348   4.271   5.838   3.509 -1.2655  0.3459  0.3167
 6590SOL    HW220349   4.141   5.785   3.452 -0.3881 -1.1303 -0.3937
 6591SOL     OW20350   6.461   6.884   1.233  0.0080  0.1264 -0.3529
 6591SOL    HW120351   6.527   6.860   1.168 -0.1975 -3.2800  0.5111
 6591SOL    HW220352   6.463   6.980   1.234  2.7462  0.2386 -2.5358
 6592SOL     OW20353   4.402   8.397   3.673 -0.1572 -0.1371 -0.3120
 6592SOL    HW120354   4.392   8.304   3.651 -0.6761 -0.2769  0.4712
 6592SOL    HW220355   4.363   8.405   3.760 -0.0418  0.8034 -0.3400
 6593SOL     OW20356   9.173   8.053   9.372 -0.1194 -0.0093  0.1307
 6593SOL    HW120357   9.265   8.030   9.358  0.2091  0.3616  1.5143
 6593SOL    HW220358   9.176   8.140   9.412 -1.1170  0.3540 -0.5779
 6594SOL     OW20359   7.923   0.466   6.168  0.0661 -0.0780 -0.1360
 6594SOL    HW120360   7.928   0.371   6.178  3.3835  0.0231  0.3466
 6594SOL    HW220361   7.949   0.482   6.077  1.3622  0.4012  0.2969
 6595SOL     OW20362   6.238   6.579   5.976  0.1939 -0.5033 -1.0128
 6595SOL    HW120363   6.260   6.658   5.926  1.1761 -0.3877 -0.4227
 6595SOL    HW220364   6.143   6.583   5.986  0.2898  0.9325 -0.4744
 6596SOL     OW20365   9.426   7.317   2.961  0.1323 -1.0310 -0.7173
 6596SOL    HW120366   9.420   7.261   2.884 -0.5194 -1.6919 -0.1961
 6596SOL    HW220367   9.336   7.347   2.977  0.0234 -1.9202  0.5145
 6597SOL     OW20368   7.756   6.943   5.436  0.0668 -0.4260 -0.5251
 6597SOL    HW120369   7.700   6.887   5.490  0.9953 -0.7779  0.0779
 6597SOL    HW220370   7.780   6.888   5.361 -1.3725  0.1206 -1.4449
 6598SOL     OW20371   2.117   3.497   7.197  0.3436 -1.1841  0.4727
 6598SOL    HW120372   2.190   3.505   7.259 -1.4618  1.6971  2.4659
 6598SOL    HW220373   2.156   3.520   7.112  2.0634 -1.1463  1.2221
 6599SOL     OW20374   3.248   8.245   6.006  0.1104 -0.4193 -0.2384
 6599SOL    HW120375   3.169   8.200   5.977 -2.1485  2.4293  1.0304
 6599SOL    HW220376   3.286   8.187   6.073 -0.9044 -1.7724 -0.7844
 6600SOL     OW20377   6.497   8.194   5.036  0.6770 -0.2853  0.4923
 6600SOL    HW120378   6.579   8.191   4.986 -0.1535  1.8548 -1.1580
 6600SOL    HW220379   6.432   8.155   4.978 -0.2990  2.2184 -0.2473
 6601SOL     OW20380   9.296   0.162   9.177  0.0848  0.2539  0.0236
 6601SOL    HW120381   9.292   0.255   9.155 -0.9416  0.0938 -0.4954
 6601SOL    HW220382   9.301   0.160   9.273 -1.2649  0.8111  0.1197
 6602SOL     OW20383   3.496   7.954   2.646  0.1269 -0.0010 -0.2158
 6602SOL    HW120384   3.524   8.026   2.702 -1.1510  1.0657 -0.8914
 6602SOL    HW220385   3.554   7.960   2.570  0.8038 -0.4523  0.2499
 6603SOL     OW20386   6.216   2.263   4.039 -0.3270 -0.3582  0.3628
 6603SOL    HW120387   6.192   2.179   3.999 -1.3808  0.3768 -0.6374
 6603SOL    HW220388   6.179   2.329   3.979 -0.2740  0.8058  1.5701
 6604SOL     OW20389   9.765   1.894   8.274 -0.3900 -0.2997  0.3540
 6604SOL    HW120390   9.816   1.873   8.195 -1.9072 -2.6406 -0.1120
 6604SOL    HW220391   9.726   1.979   8.255  2.5454  1.1778  0.3897
 6605SOL     OW20392   1.424   3.324   2.767 -0.0683  0.5644 -0.0067
 6605SOL    HW120393   1.418   3.367   2.853 -0.4049  1.3728 -0.4170
 6605SOL    HW220394   1.355   3.258   2.768 -0.5627  1.0672  0.0892
 6606SOL     OW20395   4.858   7.413   5.990 -0.1726 -0.0873 -0.1852
 6606SOL    HW120396   4.780   7.402   5.936 -0.6611  0.8055  0.3014
 6606SOL    HW220397   4.834   7.373   6.074 -1.2848  2.7406  0.9826
 6607SOL     OW20398   1.147   8.812   5.297  0.2465  0.8095 -0.3797
 6607SOL    HW120399   1.089   8.784   5.368 -0.5436  2.4025 -0.3455
 6607SOL    HW220400   1.128   8.754   5.225  2.3306 -2.0501  1.1563
 6608SOL     OW20401   3.313   2.270   4.737  0.2304  0.0514  0.2513
 6608SOL    HW120402   3.383   2.331   4.762 -0.6095  0.9324  0.4941
 6608SOL    HW220403   3.240   2.326   4.713 -0.7382 -0.8638  0.9690
 6609SOL     OW20404   3.842   1.210   9.131 -0.0822  0.2866  0.1405
 6609SOL    HW120405   3.815   1.127   9.171 -0.0786  0.2706  0.1099
 6609SOL    HW220406   3.851   1.190   9.038  2.3972 -0.3483  0.4386
 6610SOL     OW20407   8.127   1.859   3.121  0.4383 -0.3465  0.1389
 6610SOL    HW120408   8.213   1.835   3.156  2.5821  2.7625 -2.3518
 6610SOL    HW220409   8.089   1.916   3.188  0.6518 -1.1309  0.9429
 6611SOL     OW20410   1.791   9.868   5.293 -0.1274 -0.3858 -0.0433
 6611SOL    HW120411   1.841   9.938   5.251  1.6315 -1.0779  0.7910
 6611SOL    HW220412   1.761   9.906   5.376 -1.3553  0.1515 -0.7138
 6612SOL     OW20413   8.423   0.147   7.633 -0.2535 -0.0562 -0.8919
 6612SOL    HW120414   8.353   0.190   7.584 -0.5503 -1.4903 -1.7792
 6612SOL    HW220415   8.504   0.179   7.591 -0.2940  1.9932  0.4616
 6613SOL     OW20416   1.507   7.037   1.014 -0.0344  0.5448  0.0839
 6613SOL    HW120417   1.451   7.038   0.937 -2.5839 -2.8045  1.6133
 6613SOL    HW220418   1.473   7.106   1.070 -0.1251  1.0020 -0.5255
 6614SOL     OW20419   5.656   9.867   5.802 -0.3832  0.1841  0.1898
 6614SOL    HW120420   5.679   9.957   5.825  2.3125 -0.1174 -0.8485
 6614SOL    HW220421   5.625   9.828   5.884  0.3565  1.5151  1.1385
 6615SOL     OW20422   6.007   3.513   7.283 -0.3230  0.3440 -0.5704
 6615SOL    HW120423   6.066   3.481   7.352 -0.0342 -0.3750 -1.1371
 6615SOL    HW220424   5.950   3.575   7.328 -0.1496 -0.1189  0.3252
 6616SOL     OW20425   9.881   2.619   6.424  0.0026 -0.7648 -0.0348
 6616SOL    HW120426   9.811   2.616   6.359  1.1172  0.9282 -1.4147
 6616SOL    HW220427   9.961   2.627   6.372  0.9424  0.6645  1.5262
 6617SOL     OW20428   7.374   1.045   8.917  0.6531 -0.2503 -0.8712
 6617SOL    HW120429   7.459   1.089   8.907  0.1026  0.9280 -0.5737
 6617SOL    HW220430   7.322   1.106   8.969 -0.0092 -1.4747 -0.0719
 6618SOL     OW20431   9.056   2.541   5.518  0.0932 -0.1775 -0.0458
 6618SOL    HW120432   9.080   2.632   5.536 -0.8391 -0.2393  1.7096
 6618SOL    HW220433   9.109   2.490   5.579  1.5239 -0.9637 -1.8495
 6619SOL     OW20434   3.415   9.872   6.564  0.5710  0.1400  0.3337
 6619SOL    HW120435   3.510   9.868   6.572  0.8473  1.6784 -1.7058
 6619SOL    HW220436   3.396   9.833   6.479 -0.7526 -0.9690  1.0820
 6620SOL     OW20437   6.580   8.030   9.900  0.1151  0.5662 -0.4111
 6620SOL    HW120438   6.607   7.973   9.972  1.5776 -0.3370 -1.6193
 6620SOL    HW220439   6.552   7.970   9.830  1.2713  1.3036 -1.5567
 6621SOL     OW20440   2.584   1.600   7.542  0.0926  0.2761 -0.4208
 6621SOL    HW120441   2.633   1.660   7.599 -0.4349 -1.0576  1.5196
 6621SOL    HW220442   2.510   1.652   7.512  1.3942  1.5944 -1.5045
 6622SOL     OW20443   5.416   9.451   5.034 -0.0601  0.3978 -0.1882
 6622SOL    HW120444   5.371   9.535   5.024  0.5527  0.6647 -0.8019
 6622SOL    HW220445   5.500   9.473   5.074  0.4156  0.1758 -1.0516
 6623SOL     OW20446   2.982   9.473   8.349  0.0925  0.1727  0.1102
 6623SOL    HW120447   2.977   9.390   8.300  0.1518  0.1475  0.1475
 6623SOL    HW220448   3.015   9.536   8.286  0.6762  0.0242  0.2642
 6624SOL     OW20449   6.837   6.681   3.074 -0.7616 -0.0625 -0.1990
 6624SOL    HW120450   6.770   6.615   3.094 -2.2519  1.7568  1.1482
 6624SOL    HW220451   6.822   6.751   3.137  1.6996  0.9682 -0.6294
 6625SOL     OW20452   0.496   7.932   9.168 -0.3798  0.2137  0.2166
 6625SOL    HW120453   0.477   7.910   9.077 -0.3041 -1.6963  0.6120
 6625SOL    HW220454   0.417   7.976   9.199 -1.8165 -2.1218  0.1233
 6626SOL     OW20455   5.538   6.568   0.488 -0.0935 -0.2157 -0.2129
 6626SOL    HW120456   5.574   6.627   0.554 -0.6481 -1.8145  1.6512
 6626SOL    HW220457   5.468   6.521   0.534  0.1733 -2.1501 -1.6320
 6627SOL     OW20458   1.800   7.294   7.423  0.3115 -0.2589  0.1946
 6627SOL    HW120459   1.873   7.255   7.470  1.8023  0.4669 -1.3892
 6627SOL    HW220460   1.794   7.242   7.342 -0.8918 -0.2634  0.2725
 6628SOL     OW20461   4.387   7.739   5.983  0.5782 -0.3818 -0.0072
 6628SOL    HW120462   4.369   7.829   5.957  2.0593  1.0059  3.2800
 6628SOL    HW220463   4.318   7.687   5.940 -0.2595  2.2470 -2.0675
 6629SOL     OW20464   9.601   0.390   3.853 -0.5311 -0.0344 -0.2673
 6629SOL    HW120465   9.600   0.353   3.765  0.5206  0.2659 -0.4157
 6629SOL    HW220466   9.622   0.482   3.841  0.5618 -0.1849  0.3496
 6630SOL     OW20467   7.938   3.260   8.648 -0.4738  0.4512 -0.5322
 6630SOL    HW120468   7.852   3.253   8.607 -1.4075  1.5878  1.1127
 6630SOL    HW220469   7.969   3.348   8.624 -1.0152  1.1153  1.0535
 6631SOL     OW20470   9.439   2.776   4.473 -0.3686  0.0255 -0.0107
 6631SOL    HW120471   9.375   2.835   4.434  1.1226  0.9513 -1.1674
 6631SOL    HW220472   9.491   2.832   4.531 -1.7978 -1.1008  2.5376
 6632SOL     OW20473   1.565   4.675   5.209  0.1536 -0.3868  0.4117
 6632SOL    HW120474   1.638   4.654   5.268  0.3714  0.1834  0.3542
 6632SOL    HW220475   1.606   4.684   5.123 -0.2742 -2.0002  0.0029
 6633SOL     OW20476   3.755   9.424   3.189 -1.0994 -1.4586 -0.3471
 6633SOL    HW120477   3.774   9.489   3.121  0.6279 -2.2639 -0.6918
 6633SOL    HW220478   3.679   9.459   3.235 -0.9084  0.2395 -1.2421
 6634SOL     OW20479   7.695   9.168   2.622  0.6583 -0.1048  0.1965
 6634SOL    HW120480   7.614   9.129   2.589  0.0023 -0.8227  2.4380
 6634SOL    HW220481   7.753   9.094   2.637  1.8906  0.4226 -1.6193
 6635SOL     OW20482   2.721   0.867   4.374 -0.1330  0.4421 -0.1713
 6635SOL    HW120483   2.728   0.830   4.462  0.8780  0.3148 -0.2967
 6635SOL    HW220484   2.709   0.791   4.317 -1.3132  0.5566 -0.1129
 6636SOL     OW20485   3.002   2.730   1.015  0.1110  0.1360 -0.1303
 6636SOL    HW120486   3.066   2.785   0.969 -1.2742  1.9923  0.0199
 6636SOL    HW220487   3.019   2.746   1.108 -0.9548  1.1981 -0.0888
 6637SOL     OW20488   0.178   6.105   7.280  0.0135 -0.4840  0.0884
 6637SOL    HW120489   0.223   6.146   7.207 -0.4440 -0.0313  0.0586
 6637SOL    HW220490   0.184   6.168   7.351 -1.0771 -0.1571 -0.0893
 6638SOL     OW20491   8.996   5.590   6.268  0.0344 -0.6227  0.2585
 6638SOL    HW120492   9.084   5.565   6.297  0.0750  0.9805  1.6472
 6638SOL    HW220493   9.001   5.685   6.256 -0.8971 -0.7921 -1.9483
 6639SOL     OW20494   5.326   8.805   0.915 -0.3382 -0.5492 -0.6385
 6639SOL    HW120495   5.272   8.771   0.843 -0.7867  0.2725 -0.7060
 6639SOL    HW220496   5.268   8.802   0.991 -0.5560  0.5264 -0.7517
 6640SOL     OW20497   8.654   4.524   5.627 -0.1192 -0.2198 -1.1560
 6640SOL    HW120498   8.648   4.465   5.552  0.3262 -1.6683 -0.1075
 6640SOL    HW220499   8.633   4.468   5.703 -1.3726  1.3756 -0.2612
 6641SOL     OW20500   6.470   6.402   2.300  0.1858 -0.1612 -0.2313
 6641SOL    HW120501   6.500   6.489   2.275 -0.7664  0.7274  1.5352
 6641SOL    HW220502   6.549   6.358   2.332  0.4314  0.5845  0.2282
 6642SOL     OW20503   6.542   3.219   7.302  0.5543 -0.6094 -0.6134
 6642SOL    HW120504   6.546   3.290   7.366 -1.8812  1.0574 -2.1377
 6642SOL    HW220505   6.571   3.258   7.220 -0.0250 -1.5866 -1.3030
 6643SOL     OW20506   8.172   5.664   4.777 -0.3012  0.1053  0.2262
 6643SOL    HW120507   8.081   5.692   4.769 -0.7960 -1.3149  0.6256
 6643SOL    HW220508   8.206   5.665   4.687 -0.6166  0.8969  0.1095
 6644SOL     OW20509   2.222   8.252   4.998  0.6354  0.4450 -0.5610
 6644SOL    HW120510   2.206   8.234   4.905  0.3134 -1.3452 -0.1955
 6644SOL    HW220511   2.136   8.246   5.039  0.9292  0.0827  0.0176
 6645SOL     OW20512   1.761   3.968   3.798  0.8206 -0.2693 -0.2125
 6645SOL    HW120513   1.731   3.995   3.885  0.8490 -0.2970 -0.1942
 6645SOL    HW220514   1.851   4.000   3.793  0.6617  0.1534 -0.4140
 6646SOL     OW20515   0.723   7.256   4.215 -0.1167  0.0142  0.0095
 6646SOL    HW120516   0.782   7.206   4.158 -0.1158 -1.1763  0.9986
 6646SOL    HW220517   0.640   7.258   4.168  0.3161  0.4330 -0.7443
 6647SOL     OW20518   3.805   9.155   4.630 -0.1007  0.4270  0.2958
 6647SOL    HW120519   3.844   9.068   4.637 -0.1200  0.3975  0.0298
 6647SOL    HW220520   3.752   9.152   4.550 -0.1776  0.6523  0.3365
 6648SOL     OW20521   7.106   4.693   6.715 -0.4674 -0.3410 -0.1529
 6648SOL    HW120522   7.098   4.737   6.799 -0.2438  2.0327 -1.2897
 6648SOL    HW220523   7.076   4.604   6.731 -1.5275  0.3674  2.1664
 6649SOL     OW20524   6.796   3.378   0.676 -0.0448  0.5114  0.0327
 6649SOL    HW120525   6.818   3.387   0.583 -1.3918  2.0638 -0.1742
 6649SOL    HW220526   6.776   3.285   0.686  0.6883  0.2062 -1.0795
 6650SOL     OW20527   8.038   6.770   9.560  0.3058 -0.4010 -0.1464
 6650SOL    HW120528   8.088   6.802   9.635 -0.4623 -1.1564  0.7255
 6650SOL    HW220529   8.009   6.683   9.587  1.3384 -1.3604 -1.9662
 6651SOL     OW20530   2.930   1.014   3.111  0.0735 -0.0578  0.1666
 6651SOL    HW120531   2.890   1.100   3.118  0.8449  0.2588  0.7718
 6651SOL    HW220532   2.981   1.004   3.191 -1.0374 -1.6232  0.7343
 6652SOL     OW20533   9.926   9.462   5.037 -0.1091  0.3046 -0.2582
 6652SOL    HW120534   9.979   9.521   4.982 -1.3893 -0.6528 -2.6492
 6652SOL    HW220535   9.974   9.379   5.036 -0.2935  0.1972 -0.1937
 6653SOL     OW20536   0.376   7.021   6.831 -0.0693 -0.5441 -0.3268
 6653SOL    HW120537   0.413   7.104   6.802  1.6141 -0.5919  1.4901
 6653SOL    HW220538   0.300   7.046   6.884 -0.8873 -0.2997 -1.5808
 6654SOL     OW20539   8.894   2.803   6.260  0.0130  0.3212 -0.0825
 6654SOL    HW120540   8.864   2.712   6.252 -0.9920  0.5400  0.8946
 6654SOL    HW220541   8.987   2.800   6.239  0.1130 -1.0365  0.4775
 6655SOL     OW20542   9.577   7.087  -0.005  0.2923  0.0324 -0.0791
 6655SOL    HW120543   9.609   7.174   0.020 -0.0691  0.3506 -0.6854
 6655SOL    HW220544   9.643   7.026   0.028  0.6503  0.5527  0.1743
 6656SOL     OW20545   7.003   5.679   4.450  0.3996 -0.2155 -0.0809
 6656SOL    HW120546   7.030   5.744   4.514 -0.8971 -0.8015  1.1184
 6656SOL    HW220547   6.908   5.693   4.440  0.0268 -2.0595  0.4249
 6657SOL     OW20548   2.733   2.982   8.714 -0.0978 -0.6044 -0.3723
 6657SOL    HW120549   2.751   3.037   8.637 -2.1641  0.7866  0.0476
 6657SOL    HW220550   2.811   2.991   8.769  1.0452 -0.9123 -1.8700
 6658SOL     OW20551   4.928   3.214   3.133 -0.5263  0.2891 -0.7266
 6658SOL    HW120552   5.023   3.218   3.123  0.0613 -1.1548  2.7778
 6658SOL    HW220553   4.909   3.273   3.207 -2.4050  0.7234 -1.4911
 6659SOL     OW20554   0.187   8.651   4.362  0.2184 -0.0369  0.3023
 6659SOL    HW120555   0.261   8.691   4.407  0.6188 -0.6848  0.2232
 6659SOL    HW220556   0.216   8.642   4.271  0.9075 -2.3245  0.6938
 6660SOL     OW20557   0.653   6.864   5.474 -0.2853  0.2325 -0.1717
 6660SOL    HW120558   0.615   6.785   5.512  1.2258 -0.5715 -0.2771
 6660SOL    HW220559   0.669   6.842   5.383  4.3750 -1.1311  0.6893
 6661SOL     OW20560   8.948   4.340   5.522  0.1167 -0.0952  0.2608
 6661SOL    HW120561   8.957   4.430   5.554  1.1442 -0.1047  0.0472
 6661SOL    HW220562   8.854   4.325   5.518 -0.0898  0.1666  2.5979
 6662SOL     OW20563   6.442   6.419   0.289 -0.4385 -0.0754  0.5455
 6662SOL    HW120564   6.353   6.436   0.319 -0.1956 -0.2966  1.4489
 6662SOL    HW220565   6.437   6.334   0.246 -0.5810 -0.2969  0.9935
 6663SOL     OW20566   0.697   8.680   4.514  0.2321 -0.2152  0.2127
 6663SOL    HW120567   0.764   8.621   4.548  1.1632  0.2480 -0.7802
 6663SOL    HW220568   0.671   8.733   4.590  1.0998 -0.2945  0.5776
 6664SOL     OW20569   2.727   6.946   6.554  0.3775 -0.3652 -0.1824
 6664SOL    HW120570   2.743   6.906   6.468  0.1483 -2.7209  0.7942
 6664SOL    HW220571   2.753   7.037   6.543  0.0269 -0.5047 -2.8390
 6665SOL     OW20572   5.414   5.996   9.412 -0.0882 -0.1191  0.2165
 6665SOL    HW120573   5.486   6.059   9.417 -1.0863  1.0800  0.0911
 6665SOL    HW220574   5.441   5.924   9.468  1.5162 -0.0406 -0.3910
 6666SOL     OW20575   8.126   5.997   9.349  0.0745  0.2256  0.1223
 6666SOL    HW120576   8.218   5.986   9.373  0.3422 -0.6534 -1.1907
 6666SOL    HW220577   8.079   5.997   9.432  1.0965 -1.0201  0.7322
 6667SOL     OW20578   5.379   6.315   0.962  0.6897  0.3723 -0.3971
 6667SOL    HW120579   5.325   6.382   1.003  1.0446  1.0395 -0.9877
 6667SOL    HW220580   5.433   6.279   1.033 -1.3349 -1.1759  0.4676
 6668SOL     OW20581   8.318   9.920   4.040 -0.1987  0.0231 -0.1825
 6668SOL    HW120582   8.236   9.966   4.023 -0.0388  0.2288 -0.4023
 6668SOL    HW220583   8.386   9.988   4.037  0.0813 -0.2695 -0.8687
 6669SOL     OW20584   5.817   5.244   6.018 -0.2258 -0.2775  0.2210
 6669SOL    HW120585   5.852   5.165   5.976  1.8744 -0.3149  1.8728
 6669SOL    HW220586   5.850   5.315   5.964 -0.3412 -0.4413 -0.0700
 6670SOL     OW20587   0.252   1.988   1.624  0.2968 -0.2853 -0.3542
 6670SOL    HW120588   0.335   1.951   1.655 -0.0979  0.1709  1.3952
 6670SOL    HW220589   0.217   1.922   1.564  0.7789 -1.6452  0.7822
 6671SOL     OW20590   4.642   5.826   4.832  0.4374  0.1143  0.3800
 6671SOL    HW120591   4.591   5.779   4.898 -0.8520  0.7182 -0.1521
 6671SOL    HW220592   4.577   5.876   4.782  1.2991 -0.6747 -1.6632
 6672SOL     OW20593   6.767   2.875   8.193  0.6614 -0.2625 -0.0703
 6672SOL    HW120594   6.802   2.836   8.112 -1.1729  1.1617 -1.6695
 6672SOL    HW220595   6.838   2.869   8.256  1.8158 -2.4303 -1.4450
 6673SOL     OW20596   8.818   0.293   5.964 -0.8267  0.8029  0.5050
 6673SOL    HW120597   8.768   0.326   6.039 -0.4456  1.0565  0.6520
 6673SOL    HW220598   8.753   0.253   5.907 -1.1869  1.0685  0.7269
 6674SOL     OW20599   2.678   0.781   4.957 -0.1661 -0.1423  0.0152
 6674SOL    HW120600   2.622   0.723   4.905 -0.7162  0.3377  0.0615
 6674SOL    HW220601   2.623   0.858   4.974  0.9038  0.8800 -0.9578
 6675SOL     OW20602   0.846   3.156   9.705 -0.4588 -0.0080  0.0472
 6675SOL    HW120603   0.789   3.162   9.782  0.4256  2.3176  0.6286
 6675SOL    HW220604   0.924   3.110   9.736 -1.0864 -1.2370 -0.1528
 6676SOL     OW20605   1.593   2.400   9.300  0.1878 -0.1970 -0.4484
 6676SOL    HW120606   1.499   2.392   9.313  0.4073  0.3933  1.9220
 6676SOL    HW220607   1.605   2.486   9.261 -0.2917 -0.7682 -1.9458
 6677SOL     OW20608   6.598   2.560   4.356 -0.1691  0.2903  0.4395
 6677SOL    HW120609   6.642   2.568   4.272 -0.8572  0.9582  0.1238
 6677SOL    HW220610   6.515   2.606   4.343 -1.6093 -2.1203  0.5761
 6678SOL     OW20611   1.179   0.570   5.554 -0.0694  0.6381 -0.1178
 6678SOL    HW120612   1.244   0.535   5.492 -0.4205  0.7957 -0.5759
 6678SOL    HW220613   1.097   0.527   5.530 -0.6530  2.2200 -1.0955
 6679SOL     OW20614   3.868   4.736   4.919  0.3949 -0.4609 -1.0164
 6679SOL    HW120615   3.842   4.821   4.881  2.3207  0.0769 -1.2241
 6679SOL    HW220616   3.921   4.695   4.851  0.4160 -1.3505 -0.4741
 6680SOL     OW20617   7.926   2.446   9.064 -0.5345  0.1060 -0.4017
 6680SOL    HW120618   7.987   2.500   9.013 -1.0509  1.3028  0.1877
 6680SOL    HW220619   7.909   2.370   9.009 -0.1597  0.7878 -1.4943
 6681SOL     OW20620   1.969   8.953   3.655  0.1630 -0.2339 -0.2855
 6681SOL    HW120621   1.973   8.865   3.692 -0.9856  0.4694  1.6532
 6681SOL    HW220622   2.039   9.001   3.699  0.4099 -0.0188 -0.9019
 6682SOL     OW20623   7.556   7.394   0.433 -0.1541 -0.4355  0.3202
 6682SOL    HW120624   7.516   7.481   0.437  0.8382  0.0270  0.5070
 6682SOL    HW220625   7.482   7.334   0.438 -1.0163  0.3872 -1.4754
 6683SOL     OW20626   3.291   2.687   3.608 -0.2611 -0.7164 -0.1939
 6683SOL    HW120627   3.249   2.605   3.581 -0.3537 -0.9526  0.6463
 6683SOL    HW220628   3.222   2.753   3.598 -0.2176 -0.7563 -0.7731
 6684SOL     OW20629   3.629   5.492   6.327 -0.4700  0.3591  0.4833
 6684SOL    HW120630   3.537   5.521   6.329 -0.9920 -0.8865 -1.8065
 6684SOL    HW220631   3.671   5.553   6.267  0.2046  0.8791  1.4735
 6685SOL     OW20632   3.787   7.142   9.466  0.0054 -0.7502  0.6055
 6685SOL    HW120633   3.848   7.133   9.539 -0.7671 -1.0871  1.2257
 6685SOL    HW220634   3.700   7.141   9.506 -0.4197 -0.0637 -0.2327
 6686SOL     OW20635   5.628   9.592   2.618 -0.9865  0.0607  0.1085
 6686SOL    HW120636   5.593   9.550   2.539  0.5762  0.8796 -1.0842
 6686SOL    HW220637   5.720   9.608   2.597 -1.0662  2.3061  1.2433
 6687SOL     OW20638   6.893   7.296   1.489 -0.4964  0.0629  0.4424
 6687SOL    HW120639   6.930   7.383   1.501 -0.1156  0.0914 -0.8191
 6687SOL    HW220640   6.938   7.242   1.554  0.7233  0.4053 -0.0848
 6688SOL     OW20641   5.721   5.604   7.125 -0.6910 -0.7847  0.3428
 6688SOL    HW120642   5.630   5.596   7.096 -1.3109  1.2774  1.4791
 6688SOL    HW220643   5.745   5.516   7.155 -1.6778 -1.7764 -1.5772
 6689SOL     OW20644   6.987   8.756   5.270 -0.1422  0.5012 -0.2936
 6689SOL    HW120645   7.072   8.710   5.270 -0.3984  0.0144  0.3649
 6689SOL    HW220646   6.999   8.828   5.331 -0.7120 -0.5807  1.1681
 6690SOL     OW20647   6.207   3.816   3.171  0.2017  0.1797  0.3214
 6690SOL    HW120648   6.298   3.792   3.155 -0.0687 -0.7031 -0.0054
 6690SOL    HW220649   6.184   3.770   3.252  1.1691  3.5619  2.6934
 6691SOL     OW20650   1.478   4.490   4.311 -0.2128 -0.1978  0.0463
 6691SOL    HW120651   1.500   4.545   4.236 -1.0525 -1.8673 -1.5123
 6691SOL    HW220652   1.382   4.486   4.310 -0.2913  0.4255  1.7613
 6692SOL     OW20653   0.971   8.654   8.683 -0.0849  0.4539  0.0998
 6692SOL    HW120654   0.959   8.732   8.629 -1.4615  0.2273  0.0525
 6692SOL    HW220655   0.938   8.582   8.629 -0.9326  0.1481  0.9965
 6693SOL     OW20656   7.597   3.284   9.564 -0.0349 -0.2881 -0.5438
 6693SOL    HW120657   7.588   3.340   9.487  1.5160  0.3794 -0.2805
 6693SOL    HW220658   7.687   3.253   9.560 -0.8401 -2.7691 -0.6497
 6694SOL     OW20659   7.525   9.583   3.342  0.2378  0.0476 -0.4465
 6694SOL    HW120660   7.557   9.498   3.370  0.3820 -0.4216 -1.9642
 6694SOL    HW220661   7.473   9.565   3.263 -1.5095  1.1143  0.3953
 6695SOL     OW20662   5.588   6.923   2.862  0.5812 -0.0146 -0.2310
 6695SOL    HW120663   5.557   6.858   2.798 -1.8929  1.7052 -0.9559
 6695SOL    HW220664   5.523   6.921   2.932  0.2392  1.8295 -0.4291
 6696SOL     OW20665   7.952   6.311   7.388 -0.2819 -0.3999 -0.1671
 6696SOL    HW120666   8.012   6.334   7.317 -2.2959  0.5087 -1.6995
 6696SOL    HW220667   7.961   6.382   7.452  1.3039 -1.0479  0.3813
 6697SOL     OW20668   0.464   8.154   2.379 -0.2344  0.1777  0.7580
 6697SOL    HW120669   0.409   8.117   2.310  0.5522  1.9028 -0.8873
 6697SOL    HW220670   0.542   8.098   2.379 -0.6674 -0.4454  0.9948
 6698SOL     OW20671   1.102   3.199   5.242 -0.0465  0.1593 -0.3128
 6698SOL    HW120672   1.063   3.145   5.173 -1.2510  0.5631  0.0282
 6698SOL    HW220673   1.160   3.139   5.289  1.7172  0.1325 -2.3318
 6699SOL     OW20674   0.022   7.876   1.092  0.1341  0.2263 -0.1687
 6699SOL    HW120675   0.085   7.804   1.099  0.5018  0.6779  1.4447
 6699SOL    HW220676   0.072   7.948   1.053 -0.4664 -0.5819 -2.6802
 6700SOL     OW20677   6.036   8.764   6.901 -0.0415 -0.1204 -0.4890
 6700SOL    HW120678   6.058   8.673   6.881 -0.2781 -0.8362  2.2327
 6700SOL    HW220679   5.941   8.766   6.903 -0.0537 -0.4534  1.8043
 6701SOL     OW20680   6.472   0.759   0.149 -0.2546 -0.3101  0.0800
 6701SOL    HW120681   6.554   0.713   0.165 -0.6940 -0.8437  0.8872
 6701SOL    HW220682   6.405   0.692   0.160 -0.9378  0.5637  1.6081
 6702SOL     OW20683   0.694   4.905   4.218 -0.5958 -0.2394 -0.5638
 6702SOL    HW120684   0.734   4.857   4.145  0.4755  0.2086 -0.2902
 6702SOL    HW220685   0.627   4.959   4.177 -0.3636 -0.3820 -1.1456
 6703SOL     OW20686   6.789   8.633   5.629 -0.1171  0.0211 -0.3815
 6703SOL    HW120687   6.740   8.599   5.554 -1.8531  2.3785 -0.4417
 6703SOL    HW220688   6.812   8.556   5.680 -0.2572 -1.5231 -2.5146
 6704SOL     OW20689   7.340   8.621   0.938 -0.2030 -0.9682 -0.0691
 6704SOL    HW120690   7.260   8.596   0.984  0.5278  0.0805  1.8665
 6704SOL    HW220691   7.312   8.632   0.847 -1.7984 -2.6569  0.1477
 6705SOL     OW20692   3.647   8.440   5.235  0.7090  0.1128 -0.2315
 6705SOL    HW120693   3.597   8.383   5.294  0.1477 -0.6188 -1.3781
 6705SOL    HW220694   3.651   8.392   5.153  2.0648  0.8185 -0.6043
 6706SOL     OW20695   7.737   4.983   3.210  0.3399  0.0034  0.1424
 6706SOL    HW120696   7.674   5.049   3.239 -1.5978 -1.9968  0.6888
 6706SOL    HW220697   7.695   4.899   3.228  2.4055 -1.4157 -1.2028
 6707SOL     OW20698   9.353   0.320   8.188 -0.0240  0.8446 -0.2858
 6707SOL    HW120699   9.418   0.284   8.248  0.2034 -0.8977 -1.5161
 6707SOL    HW220700   9.317   0.396   8.234  1.8471  0.9943  1.0180
 6708SOL     OW20701   5.805   6.011   3.137  0.2524 -0.4163 -0.1913
 6708SOL    HW120702   5.872   6.076   3.119  1.5999 -1.0988  1.9693
 6708SOL    HW220703   5.730   6.061   3.167  0.1725  0.2743 -1.4501
 6709SOL     OW20704   5.331   1.284   0.424 -0.0218  0.1195 -0.4704
 6709SOL    HW120705   5.369   1.369   0.402  0.3552 -0.2443 -1.2561
 6709SOL    HW220706   5.237   1.299   0.425  0.0438  0.5488 -0.6002
 6710SOL     OW20707   2.061   5.421   9.778  0.3835  0.2109 -0.6891
 6710SOL    HW120708   2.028   5.332   9.764  2.1512 -0.8362  1.3726
 6710SOL    HW220709   1.983   5.476   9.773 -0.9724 -1.6102 -0.5580
 6711SOL     OW20710   0.617   2.343   2.363  0.2376 -0.2534  0.6661
 6711SOL    HW120711   0.543   2.292   2.329  0.5285 -0.3676  0.1995
 6711SOL    HW220712   0.654   2.288   2.432 -1.4242  0.7237  2.4381
 6712SOL     OW20713   7.301   4.348   7.806 -0.2762  0.3323 -0.1361
 6712SOL    HW120714   7.252   4.397   7.871  0.8277  1.5398 -0.1757
 6712SOL    HW220715   7.238   4.285   7.771 -0.9705 -0.1786  1.8912
 6713SOL     OW20716   9.972   9.213   1.492 -0.1966  0.1584 -0.1574
 6713SOL    HW120717   9.998   9.278   1.427  1.2989  0.1922  0.4499
 6713SOL    HW220718   9.935   9.264   1.564  1.1944  0.3997  0.4226
 6714SOL     OW20719   4.210   3.284   6.918  0.1752  0.6670  0.2596
 6714SOL    HW120720   4.196   3.297   7.012 -2.4927 -0.6467  0.1168
 6714SOL    HW220721   4.237   3.371   6.887  0.3195  1.3330  2.0719
 6715SOL     OW20722   0.406   0.513   4.367 -0.3909  0.1083 -0.2932
 6715SOL    HW120723   0.433   0.600   4.395 -0.5894  0.2786 -0.6199
 6715SOL    HW220724   0.354   0.478   4.440 -0.0977  0.1625 -0.0600
 6716SOL     OW20725   5.144   3.142   6.403  0.1492  0.0478  0.5668
 6716SOL    HW120726   5.065   3.158   6.455 -0.6024  0.2697 -0.6223
 6716SOL    HW220727   5.164   3.226   6.363  0.8445 -0.0730  0.6539
 6717SOL     OW20728   8.791   9.318   6.720  0.0330  0.6296  0.4130
 6717SOL    HW120729   8.755   9.402   6.692  0.5508  0.3032 -1.4202
 6717SOL    HW220730   8.856   9.296   6.652 -0.5942 -1.5658  0.4294
 6718SOL     OW20731   0.478   2.997   5.565  0.5374 -0.2839 -0.3650
 6718SOL    HW120732   0.447   3.049   5.638 -0.0740 -0.3871 -0.5473
 6718SOL    HW220733   0.570   3.022   5.555  0.9113 -0.9788  1.0609
 6719SOL     OW20734   8.237   8.090   7.629  0.6090  0.2536 -0.9190
 6719SOL    HW120735   8.230   8.121   7.539 -2.0529  1.6572 -0.3358
 6719SOL    HW220736   8.146   8.080   7.657  1.2483 -4.2745  0.3144
 6720SOL     OW20737   1.096   7.973   7.428  0.5582  0.7792 -0.1797
 6720SOL    HW120738   1.185   8.009   7.431  0.9403 -0.0396 -1.1954
 6720SOL    HW220739   1.106   7.881   7.450 -0.2024  0.9011  0.7710
 6721SOL     OW20740   4.404   0.402   4.727  0.2165  0.2703 -0.0118
 6721SOL    HW120741   4.391   0.452   4.646 -0.2079  0.0614 -0.0768
 6721SOL    HW220742   4.436   0.466   4.790  0.4795  0.4499 -0.3266
 6722SOL     OW20743   8.968   4.287   0.663  0.7522 -1.0663 -0.1336
 6722SOL    HW120744   8.930   4.204   0.692 -0.4287 -1.2028 -1.8969
 6722SOL    HW220745   8.899   4.327   0.609  2.3228 -0.2912 -1.6527
 6723SOL     OW20746   5.064   3.179   1.282 -0.1392 -0.4195 -0.1132
 6723SOL    HW120747   5.032   3.267   1.302 -0.1034 -0.7222  1.3330
 6723SOL    HW220748   5.062   3.175   1.186  0.0688  1.2331 -0.2286
 6724SOL     OW20749   3.183   9.165   1.906  0.8541  0.5891  0.4023
 6724SOL    HW120750   3.252   9.189   1.968  1.7797  1.9874 -1.0847
 6724SOL    HW220751   3.103   9.199   1.945  1.1833  0.1498  1.5091
 6725SOL     OW20752   2.571   8.780   1.105 -0.9025 -0.8801 -0.3781
 6725SOL    HW120753   2.536   8.773   1.194 -1.1421  1.2079 -0.2497
 6725SOL    HW220754   2.514   8.725   1.052 -1.1287 -1.6723  0.6539
 6726SOL     OW20755   8.260   2.749   5.612 -0.4696 -0.0468 -0.2876
 6726SOL    HW120756   8.226   2.713   5.693 -1.1375  2.0615  0.4277
 6726SOL    HW220757   8.183   2.762   5.557 -0.0081 -1.6151 -1.3783
 6727SOL     OW20758   0.229   8.915   5.881  0.3165  0.1679 -0.5068
 6727SOL    HW120759   0.220   8.830   5.924 -2.2415 -0.1781 -1.5439
 6727SOL    HW220760   0.201   8.979   5.946  2.4760  0.2925  0.3565
 6728SOL     OW20761   7.860   9.093   1.312 -0.1865  0.0842  1.0866
 6728SOL    HW120762   7.922   9.033   1.352  1.1127  3.3592  4.6184
 6728SOL    HW220763   7.782   9.088   1.368 -1.3709 -0.5221 -0.5129
 6729SOL     OW20764   4.278   4.056   8.705 -0.0778 -0.7489  0.2816
 6729SOL    HW120765   4.345   3.989   8.687  1.5425 -0.0318  3.1385
 6729SOL    HW220766   4.328   4.134   8.728 -1.9495  1.1619 -1.6457
 6730SOL     OW20767   0.213   8.812   6.743  0.6796  0.1047  0.1392
 6730SOL    HW120768   0.255   8.726   6.737 -0.3195 -0.3639 -0.3430
 6730SOL    HW220769   0.275   8.872   6.700  0.0906 -0.8715 -2.2342
 6731SOL     OW20770   3.838   0.683   3.556  0.2154  0.2548 -0.1200
 6731SOL    HW120771   3.766   0.641   3.508 -2.3438  1.0207  2.7262
 6731SOL    HW220772   3.890   0.611   3.590  0.3785 -0.3339 -1.5359
 6732SOL     OW20773   6.339   7.979   8.070 -0.0793  0.0376 -0.6034
 6732SOL    HW120774   6.255   8.018   8.044  0.3195  0.5840 -1.0941
 6732SOL    HW220775   6.371   8.036   8.140 -0.8724 -1.0976  0.7350
 6733SOL     OW20776   0.598   3.935   5.048  0.2408  0.3008 -0.4870
 6733SOL    HW120777   0.636   3.851   5.075 -0.3992  0.3141  0.5263
 6733SOL    HW220778   0.638   3.953   4.963  3.3978  0.8573  0.9431
 6734SOL     OW20779   5.470   2.636   0.241  0.6989 -0.2579 -0.2440
 6734SOL    HW120780   5.446   2.575   0.310  1.1369  0.1386  0.2720
 6734SOL    HW220781   5.566   2.632   0.237  0.6274 -1.2900 -1.7803
 6735SOL     OW20782   7.151   6.771   1.251  0.3474 -0.2854 -0.4487
 6735SOL    HW120783   7.136   6.678   1.268 -1.5916  0.1676  0.5425
 6735SOL    HW220784   7.117   6.815   1.328  0.0283  1.3303 -1.4778
 6736SOL     OW20785   3.250   2.399   4.069  0.2396 -0.0137  0.1593
 6736SOL    HW120786   3.165   2.423   4.105 -1.1045 -1.5867 -1.7146
 6736SOL    HW220787   3.230   2.328   4.008  2.0410  3.0905 -4.6181
 6737SOL     OW20788   8.704   5.708   0.925 -0.0703 -0.3235  0.0360
 6737SOL    HW120789   8.784   5.656   0.918  1.2176  1.5087  0.4126
 6737SOL    HW220790   8.679   5.726   0.835  0.6180  0.0327 -0.0962
 6738SOL     OW20791   2.796   3.280   6.750 -0.2340 -0.4944 -0.5909
 6738SOL    HW120792   2.756   3.340   6.813  1.4457 -0.8427  0.9080
 6738SOL    HW220793   2.722   3.243   6.702 -1.8428 -1.5138  2.3646
 6739SOL     OW20794   4.423   3.537   3.964  0.1398  0.3998 -0.5302
 6739SOL    HW120795   4.501   3.482   3.968  0.0859  0.3694  0.2473
 6739SOL    HW220796   4.379   3.510   3.883  0.2048 -0.5756 -0.2546
 6740SOL     OW20797   3.760   7.943   8.651  0.5115  0.0103 -0.5020
 6740SOL    HW120798   3.782   7.911   8.738 -3.0830 -0.6472  0.3171
 6740SOL    HW220799   3.682   7.894   8.625 -0.5351  2.5219 -2.6473
 6741SOL     OW20800   2.210   9.452   6.822 -0.3108 -0.1694 -0.0184
 6741SOL    HW120801   2.303   9.452   6.843 -0.0380 -0.1683 -1.1376
 6741SOL    HW220802   2.205   9.413   6.734 -1.3490 -0.0633 -0.0283
 6742SOL     OW20803   7.141   8.873   9.978 -0.3619 -0.2730 -0.0099
 6742SOL    HW120804   7.070   8.936   9.967 -1.1042 -1.2682 -1.2239
 6742SOL    HW220805   7.106   8.791   9.941  2.1983 -0.2597 -2.7894
 6743SOL     OW20806   3.768   1.884   4.184 -0.4286  0.9815 -0.6831
 6743SOL    HW120807   3.678   1.897   4.215  0.7587  3.0616  2.4734
 6743SOL    HW220808   3.768   1.797   4.144 -3.4999  0.2935  0.5200
 6744SOL     OW20809   4.463   1.296   0.968 -0.1517  0.4027  0.0521
 6744SOL    HW120810   4.460   1.206   0.934 -0.7843  0.5978 -0.4291
 6744SOL    HW220811   4.400   1.344   0.915 -1.9256  0.5294  2.1620
 6745SOL     OW20812   2.189   0.547   9.318 -0.2475 -0.1748  0.4448
 6745SOL    HW120813   2.187   0.462   9.274  1.0140  0.8019 -1.6112
 6745SOL    HW220814   2.166   0.526   9.409 -0.3440 -2.6422 -0.0548
 6746SOL     OW20815   5.006   2.469   2.629 -0.1274  0.0624  0.0631
 6746SOL    HW120816   4.998   2.476   2.724 -0.4634 -0.8858  0.1122
 6746SOL    HW220817   5.079   2.526   2.607 -0.4032  0.7323  0.8225
 6747SOL     OW20818   2.706   3.939   7.420 -0.1433  0.0990 -0.5316
 6747SOL    HW120819   2.712   3.857   7.371 -1.4303 -0.5074  0.2866
 6747SOL    HW220820   2.782   3.989   7.390  1.0258 -1.6103 -0.6283
 6748SOL     OW20821   6.785   8.620   0.910  0.8946  0.0360 -0.0168
 6748SOL    HW120822   6.766   8.539   0.957 -0.4556  0.8785  0.9512
 6748SOL    HW220823   6.739   8.611   0.827  0.1176  0.1120  0.3991
 6749SOL     OW20824   7.363   6.091   6.574 -0.5613 -0.0702  0.4508
 6749SOL    HW120825   7.327   6.075   6.487 -1.9787 -1.7829  1.2760
 6749SOL    HW220826   7.407   6.009   6.596  0.5735  0.6670  1.0121
 6750SOL     OW20827   4.423   8.878   2.704  0.4508 -0.2279 -0.1371
 6750SOL    HW120828   4.415   8.813   2.634 -0.4488  0.2568 -0.4978
 6750SOL    HW220829   4.412   8.826   2.784 -1.1390 -0.4360 -0.4459
 6751SOL     OW20830   4.138   1.101   1.666  0.8838  0.2635 -0.4409
 6751SOL    HW120831   4.113   1.077   1.755 -0.3703  1.7580 -0.3526
 6751SOL    HW220832   4.100   1.032   1.611  0.4778  0.0744  0.0725
 6752SOL     OW20833   4.893   3.120   2.885  0.1296 -0.2679 -0.4005
 6752SOL    HW120834   4.899   3.161   2.971 -1.1418 -0.5140 -0.1654
 6752SOL    HW220835   4.877   3.192   2.824  0.6274 -0.1352 -0.3743
 6753SOL     OW20836   4.000   8.785   3.710 -0.0650 -0.3007 -0.2223
 6753SOL    HW120837   3.948   8.846   3.659 -0.9153 -0.7671  0.0587
 6753SOL    HW220838   4.085   8.782   3.666  0.1273  1.3548 -0.0229
 6754SOL     OW20839   2.816   9.417   6.321  0.1996 -0.2962 -0.8070
 6754SOL    HW120840   2.784   9.437   6.409 -1.9840 -1.5520 -1.2236
 6754SOL    HW220841   2.909   9.437   6.324  0.1706 -0.1713  1.7466
 6755SOL     OW20842   0.204   5.705   6.870  0.8162  0.1510  0.2050
 6755SOL    HW120843   0.233   5.710   6.961 -0.0619  0.7934  0.4621
 6755SOL    HW220844   0.180   5.613   6.857  1.3704 -0.0374  0.4802
 6756SOL     OW20845   9.940   4.700   2.955 -0.1090 -0.4234 -0.2374
 6756SOL    HW120846   9.915   4.619   2.912 -0.6232 -2.1960  3.1295
 6756SOL    HW220847   9.857   4.746   2.969 -0.0035 -0.1174 -0.6003
 6757SOL     OW20848   5.184   0.503   3.230 -0.7961  0.5410  0.4824
 6757SOL    HW120849   5.271   0.472   3.207 -0.7808  1.4720 -0.8527
 6757SOL    HW220850   5.198   0.563   3.304 -0.0765  1.8400 -0.6610
 6758SOL     OW20851   5.687   3.623   2.932 -0.5909 -0.0112 -0.2536
 6758SOL    HW120852   5.596   3.646   2.913 -0.3067  0.2807 -1.2928
 6758SOL    HW220853   5.739   3.688   2.885  0.1771 -1.1186 -1.0035
 6759SOL     OW20854   9.187   0.620   1.351 -0.5296  0.3699  0.1404
 6759SOL    HW120855   9.179   0.708   1.385  0.4301  1.3593 -1.9886
 6759SOL    HW220856   9.125   0.616   1.278  2.5650  0.9962 -2.8177
 6760SOL     OW20857   3.439   7.363   4.231 -0.3263  0.6764  0.0606
 6760SOL    HW120858   3.461   7.452   4.205  2.5532  0.0882  0.0306
 6760SOL    HW220859   3.492   7.347   4.310  0.2180 -1.3354 -0.6303
 6761SOL     OW20860   0.040   4.559   9.732  1.1510 -0.1500 -0.0755
 6761SOL    HW120861   0.066   4.637   9.782 -0.0003 -0.9701  1.9126
 6761SOL    HW220862   0.110   4.495   9.749  0.7861 -0.4112  0.4746
 6762SOL     OW20863   4.367   8.744   8.791 -0.1538 -0.2396  0.6471
 6762SOL    HW120864   4.350   8.823   8.739  2.1283 -0.5031 -0.6382
 6762SOL    HW220865   4.294   8.685   8.770 -0.8121  0.7666  0.0392
 6763SOL     OW20866   6.644   9.345   6.669  0.0791 -0.8094 -0.0023
 6763SOL    HW120867   6.603   9.404   6.732 -0.0065 -0.8665 -0.0031
 6763SOL    HW220868   6.589   9.352   6.591  1.9981  1.7446 -1.2468
 6764SOL     OW20869   4.259   4.308   0.845 -0.2313  0.2845 -0.0573
 6764SOL    HW120870   4.312   4.279   0.771 -1.4239  0.7805 -1.1443
 6764SOL    HW220871   4.317   4.363   0.897  1.1109 -1.3772  0.2856
 6765SOL     OW20872   4.993   9.262   1.991  0.3031  0.0910  0.2779
 6765SOL    HW120873   5.059   9.254   1.922 -0.5395 -0.1373 -0.5301
 6765SOL    HW220874   4.911   9.272   1.943 -0.1193  1.6387  1.2615
 6766SOL     OW20875   2.554   1.876   0.150  0.8023  0.2059 -0.0887
 6766SOL    HW120876   2.629   1.854   0.206 -0.3628 -1.3760  0.9326
 6766SOL    HW220877   2.570   1.966   0.123  1.2815  1.1906  3.0474
 6767SOL     OW20878   5.120   4.820   6.510 -0.2310 -0.5728 -0.3753
 6767SOL    HW120879   5.029   4.832   6.483 -0.1181 -0.1287 -0.5603
 6767SOL    HW220880   5.169   4.888   6.463  0.2394 -0.9923 -0.5023
 6768SOL     OW20881   7.827   8.457   3.503  0.2810  0.0723 -0.1789
 6768SOL    HW120882   7.881   8.392   3.458  1.2384 -0.4889  1.6743
 6768SOL    HW220883   7.888   8.505   3.559 -0.6751  1.5444 -0.3435
 6769SOL     OW20884   4.857   4.158   2.082 -0.3556  0.0698  0.5617
 6769SOL    HW120885   4.939   4.130   2.122 -0.4860 -0.9352  0.1729
 6769SOL    HW220886   4.801   4.182   2.155 -0.1693 -0.5452  0.9151
 6770SOL     OW20887   6.138   0.054   3.474  0.1553 -0.2673 -0.5345
 6770SOL    HW120888   6.092  -0.017   3.518  1.8132  0.3074  2.3945
 6770SOL    HW220889   6.083   0.131   3.490  0.9283  0.0091  1.0137
 6771SOL     OW20890   3.208   1.540   3.009 -0.1626  0.0218  0.6993
 6771SOL    HW120891   3.299   1.517   3.026 -0.4911 -1.5000  0.5555
 6771SOL    HW220892   3.204   1.556   2.915 -0.1784 -0.6297  0.5845
 6772SOL     OW20893   5.515   5.458   4.369  0.0266  0.1814 -0.0440
 6772SOL    HW120894   5.529   5.550   4.390 -1.7225  0.7554 -1.1455
 6772SOL    HW220895   5.462   5.424   4.441  2.7440 -0.7121  1.6696
 6773SOL     OW20896   2.142   4.819   0.928 -0.1451 -0.2085 -0.4423
 6773SOL    HW120897   2.102   4.854   0.849  0.3172  1.6134  0.0876
 6773SOL    HW220898   2.158   4.895   0.983  3.2317 -0.8826 -0.2384
 6774SOL     OW20899   5.516   3.226   2.610 -0.4011  0.6174 -0.3999
 6774SOL    HW120900   5.460   3.165   2.659  0.2190  0.8078  0.5721
 6774SOL    HW220901   5.606   3.199   2.632 -0.1019  0.3055 -1.9496
 6775SOL     OW20902   8.849   1.425   1.330 -0.5348  0.0853  0.3549
 6775SOL    HW120903   8.854   1.331   1.313  0.4095  0.3833 -1.1605
 6775SOL    HW220904   8.845   1.432   1.426 -1.7107 -1.5205  0.4621
 6776SOL     OW20905   7.380   0.762   2.366 -0.0821  0.2001 -0.4415
 6776SOL    HW120906   7.328   0.764   2.446 -0.0452 -1.8540 -0.3230
 6776SOL    HW220907   7.470   0.773   2.396 -0.1986  1.2534 -0.4152
 6777SOL     OW20908   9.846   6.071   8.644  0.5582  0.0744 -0.4221
 6777SOL    HW120909   9.835   6.013   8.719  0.6813 -0.2178 -0.6305
 6777SOL    HW220910   9.790   6.035   8.576  0.1351  0.5686 -0.3454
 6778SOL     OW20911   5.386   7.901   7.558 -0.2051  0.1021 -0.0777
 6778SOL    HW120912   5.374   7.996   7.565  1.4260  0.2343  1.4701
 6778SOL    HW220913   5.322   7.865   7.619 -0.4691  0.2001 -0.2879
 6779SOL     OW20914   2.784   4.287   8.766 -0.0131  0.3498  0.6054
 6779SOL    HW120915   2.827   4.223   8.709 -1.4189 -1.1222  1.1322
 6779SOL    HW220916   2.741   4.347   8.706 -1.0699 -0.9015  0.0554
 6780SOL     OW20917   7.411   3.052   5.103 -0.0689  0.0499  0.7069
 6780SOL    HW120918   7.353   3.113   5.148 -0.3851 -0.8953  1.6294
 6780SOL    HW220919   7.465   3.107   5.046 -0.3046  1.1856  1.5471
 6781SOL     OW20920   8.896   3.529   6.332 -0.2645  0.6343 -0.4596
 6781SOL    HW120921   8.962   3.557   6.270 -1.6135 -0.0181 -2.2886
 6781SOL    HW220922   8.857   3.610   6.364  0.1822  0.9812 -0.7881
 6782SOL     OW20923   0.854   5.958   1.432  0.5590 -0.1043  0.3689
 6782SOL    HW120924   0.849   6.053   1.425 -0.6324 -0.2124 -0.5877
 6782SOL    HW220925   0.826   5.940   1.522 -1.0722  0.3675 -0.0038
 6783SOL     OW20926   1.003   1.072   6.568 -0.5289 -0.0087 -0.2676
 6783SOL    HW120927   1.048   0.999   6.525  2.0412  1.7567 -0.7569
 6783SOL    HW220928   1.054   1.149   6.545 -2.5736  1.8525  1.0593
 6784SOL     OW20929   7.585   9.699   6.079  0.3728 -0.3756 -0.1710
 6784SOL    HW120930   7.604   9.607   6.101 -0.1200 -0.7697 -1.2891
 6784SOL    HW220931   7.651   9.749   6.127  1.0434 -1.3597 -0.0248
 6785SOL     OW20932   2.939   6.845   3.418  0.0369  0.1051 -0.5198
 6785SOL    HW120933   2.925   6.752   3.401 -0.5492 -0.0899  0.8818
 6785SOL    HW220934   2.945   6.851   3.513 -1.2164  1.6756 -0.4992
 6786SOL     OW20935   6.124   6.249   0.087 -0.1033 -0.2265  0.6321
 6786SOL    HW120936   6.091   6.332   0.121  1.3660  1.0358 -0.8232
 6786SOL    HW220937   6.067   6.230   0.012 -0.9441 -1.0014  1.4376
 6787SOL     OW20938   0.032   1.123   9.236 -0.2095  0.0126 -0.0282
 6787SOL    HW120939   0.106   1.138   9.295 -0.6016 -0.4060  0.5895
 6787SOL    HW220940   0.048   1.037   9.198  0.1971  0.4099 -0.7848
 6788SOL     OW20941   3.462   3.971   3.406  0.3124 -0.1052 -0.2967
 6788SOL    HW120942   3.434   3.960   3.315  0.4989  0.7991 -0.4770
 6788SOL    HW220943   3.472   4.066   3.416  0.2669 -0.1981  0.6772
 6789SOL     OW20944   8.887   1.105   4.697 -0.2834 -0.1947  0.1965
 6789SOL    HW120945   8.977   1.131   4.713  0.3319 -1.7564 -0.5351
 6789SOL    HW220946   8.861   1.153   4.618  0.4017 -0.8147 -0.4153
 6790SOL     OW20947   2.029   8.560   5.920  0.1194 -0.1469 -0.2954
 6790SOL    HW120948   2.002   8.611   5.997 -0.7005  0.3629 -0.9058
 6790SOL    HW220949   1.949   8.517   5.891  1.2779 -4.5470  2.0933
 6791SOL     OW20950   7.301   2.203   6.005  0.2743  0.1995  0.1701
 6791SOL    HW120951   7.294   2.178   5.913  2.3213  1.0035 -0.2420
 6791SOL    HW220952   7.321   2.122   6.051  1.1282  0.0977 -0.3673
 6792SOL     OW20953   9.489   0.302   1.412 -0.1312 -0.3524  0.2500
 6792SOL    HW120954   9.491   0.207   1.425 -0.6902 -0.1196  2.3845
 6792SOL    HW220955   9.575   0.333   1.442  0.9674 -0.3388 -2.5996
 6793SOL     OW20956   2.982   8.421   3.335  0.3845  0.3094  0.5312
 6793SOL    HW120957   3.023   8.335   3.323 -0.0796  0.1265  0.2701
 6793SOL    HW220958   3.030   8.459   3.409  2.5882  1.0355 -1.1437
 6794SOL     OW20959   2.701   1.964   3.437  0.4415  0.3013 -0.3306
 6794SOL    HW120960   2.762   1.946   3.365  1.1021  0.9994  0.0480
 6794SOL    HW220961   2.712   2.057   3.455 -1.0180  0.5364 -0.5073
 6795SOL     OW20962   8.333   9.221   4.831 -0.0754 -0.4244  0.0849
 6795SOL    HW120963   8.246   9.215   4.871  0.4007 -2.5598  0.9207
 6795SOL    HW220964   8.364   9.309   4.854 -1.5294 -0.0536  0.7623
 6796SOL     OW20965   2.289   7.162   8.940 -0.3041 -0.2951 -0.2485
 6796SOL    HW120966   2.324   7.091   8.886  0.4204 -0.2671  0.1719
 6796SOL    HW220967   2.337   7.156   9.023 -0.4436  0.5001 -0.0973
 6797SOL     OW20968   4.436   3.556   0.473 -0.1206 -0.0179 -0.4041
 6797SOL    HW120969   4.504   3.571   0.539 -0.2666  0.4708 -0.3599
 6797SOL    HW220970   4.424   3.641   0.431 -0.1477 -0.2900 -0.9503
 6798SOL     OW20971   1.164   5.919   1.915 -0.3051 -0.8035 -0.5011
 6798SOL    HW120972   1.207   5.836   1.894  0.0625 -0.9732  0.8377
 6798SOL    HW220973   1.150   5.916   2.010  1.6230  1.5032 -0.0339
 6799SOL     OW20974   7.905   8.696   6.504 -0.0763  0.5150  0.8615
 6799SOL    HW120975   7.932   8.611   6.469  0.4243  1.0219 -0.0279
 6799SOL    HW220976   7.856   8.737   6.432  1.7417  1.9498  0.3795
 6800SOL     OW20977   3.224   7.694   8.538  0.3007 -0.1813 -0.2233
 6800SOL    HW120978   3.181   7.632   8.479 -2.3377  0.9687  0.3528
 6800SOL    HW220979   3.236   7.645   8.620  0.7725 -0.7327 -0.6166
 6801SOL     OW20980   1.010   4.092   4.407 -0.4432 -0.6084 -0.2855
 6801SOL    HW120981   1.106   4.094   4.409 -0.4425 -0.2095 -0.6212
 6801SOL    HW220982   0.988   4.011   4.360 -0.2363  0.3059 -2.0609
 6802SOL     OW20983   4.900   0.043   6.253  0.6757 -0.2065 -0.3320
 6802SOL    HW120984   4.907   0.116   6.315 -0.0827 -0.1568 -0.2916
 6802SOL    HW220985   4.818   0.000   6.277  1.3725 -1.3968 -0.0200
 6803SOL     OW20986   9.612   5.337   6.903  0.0054  0.2949 -0.0288
 6803SOL    HW120987   9.595   5.429   6.925 -0.3862  0.8677 -2.4319
 6803SOL    HW220988   9.545   5.288   6.950 -0.3126  1.3320  0.6209
 6804SOL     OW20989   5.795   2.976   1.181 -0.3698 -0.1418  0.0620
 6804SOL    HW120990   5.771   3.064   1.155 -0.7016 -0.4818 -0.8185
 6804SOL    HW220991   5.891   2.975   1.177 -0.4120 -0.2707 -1.5157
 6805SOL     OW20992   0.179   7.398   1.245  0.0324  0.3439  0.4932
 6805SOL    HW120993   0.241   7.332   1.214  0.6922  0.2477  1.9301
 6805SOL    HW220994   0.233   7.475   1.263 -0.1871  0.1664  2.0366
 6806SOL     OW20995   4.249   5.566   7.346 -0.0021 -0.4868  0.0227
 6806SOL    HW120996   4.319   5.549   7.410 -1.4409 -0.2390  1.7404
 6806SOL    HW220997   4.176   5.510   7.375 -0.8128 -0.1329 -1.2446
 6807SOL     OW20998   2.536   1.712   1.905 -0.2519 -0.2726 -0.0243
 6807SOL    HW120999   2.493   1.747   1.983 -0.6605  1.0349 -0.8051
 6807SOL    HW221000   2.587   1.785   1.871  3.0472 -1.8415  1.0791
 6808SOL     OW21001   1.048   5.565   0.531 -0.7213 -0.0682  0.3696
 6808SOL    HW121002   0.993   5.522   0.466 -1.3718  0.8870  0.2581
 6808SOL    HW221003   0.999   5.644   0.554  0.8395  1.1033 -0.1414
 6809SOL     OW21004   1.148   8.284   0.869 -0.6891  0.0087  0.3876
 6809SOL    HW121005   1.107   8.313   0.787 -1.5054 -0.1072  0.7483
 6809SOL    HW221006   1.208   8.354   0.892 -0.0910 -0.1781 -0.5645
 6810SOL     OW21007   0.798   2.947   2.553  0.2687  0.8984  0.4204
 6810SOL    HW121008   0.866   2.921   2.491  0.2778  0.2927  0.6712
 6810SOL    HW221009   0.793   2.874   2.615  1.1415  2.0057  1.8699
 6811SOL     OW21010   8.704   7.538   8.486  0.3269 -0.7399  0.2318
 6811SOL    HW121011   8.782   7.582   8.451 -0.0881  0.2035  0.4676
 6811SOL    HW221012   8.635   7.556   8.423 -0.3717  0.7967  1.3967
 6812SOL     OW21013   5.112   8.435   9.123 -0.1539  0.8065 -0.2107
 6812SOL    HW121014   5.178   8.380   9.166 -0.3216  0.6897 -0.1047
 6812SOL    HW221015   5.109   8.514   9.176 -0.3833  0.6490  0.0121
 6813SOL     OW21016   2.668   3.684   3.279  0.8577 -0.0509 -0.3225
 6813SOL    HW121017   2.690   3.609   3.334 -0.5544 -0.6423 -0.4969
 6813SOL    HW221018   2.683   3.652   3.189  1.4025  0.2873 -0.3535
 6814SOL     OW21019   9.043   4.959   0.343  0.3302  0.0361 -0.0885
 6814SOL    HW121020   9.007   4.899   0.277  0.0272 -0.7564  0.7696
 6814SOL    HW221021   9.027   5.046   0.307  1.7749 -0.3786 -1.8788
 6815SOL     OW21022   5.427   5.056   9.076 -0.6165  0.0414 -0.2058
 6815SOL    HW121023   5.472   5.140   9.091  0.8449 -1.0330  1.8463
 6815SOL    HW221024   5.413   5.020   9.164  0.7191 -2.8299 -1.0510
 6816SOL     OW21025   4.971   0.195   5.557 -0.0025 -0.4428 -0.7999
 6816SOL    HW121026   4.946   0.158   5.472 -2.1088 -1.3949  0.1622
 6816SOL    HW221027   5.006   0.121   5.606 -0.0102 -0.1881 -0.4046
 6817SOL     OW21028   2.144   4.486   2.838 -0.0619 -0.3297  0.1905
 6817SOL    HW121029   2.236   4.512   2.841 -0.9705  3.3757 -0.0240
 6817SOL    HW221030   2.110   4.526   2.758 -1.7139 -2.4542 -0.2636
 6818SOL     OW21031   2.543   2.634   7.017  0.3063 -0.2300 -0.3694
 6818SOL    HW121032   2.587   2.556   6.983 -0.4182 -1.1504  0.7405
 6818SOL    HW221033   2.486   2.601   7.087 -1.7410  0.9912 -1.3865
 6819SOL     OW21034   5.588   3.073   4.321  0.3747  0.7796  0.2278
 6819SOL    HW121035   5.539   3.153   4.344 -0.3936  0.3440  0.1423
 6819SOL    HW221036   5.650   3.102   4.254 -0.5980  1.1095 -0.5487
 6820SOL     OW21037   0.384   4.018   5.900 -0.0176 -0.3084 -0.0185
 6820SOL    HW121038   0.336   4.045   5.978 -0.3450 -1.5544  0.2264
 6820SOL    HW221039   0.330   4.050   5.827  0.3532  0.9668  0.2406
 6821SOL     OW21040   9.677   1.633   8.310 -0.0825  0.7489  0.4366
 6821SOL    HW121041   9.700   1.621   8.402  2.6591 -0.3588 -0.3103
 6821SOL    HW221042   9.739   1.698   8.277  1.4178 -1.4865 -1.4185
 6822SOL     OW21043   8.509   7.710   9.457  0.1848 -0.0359  0.2992
 6822SOL    HW121044   8.539   7.749   9.374 -0.2908 -0.2051  0.0457
 6822SOL    HW221045   8.469   7.627   9.432  0.4232 -0.2910  0.7487
 6823SOL     OW21046   2.903   7.161   9.271  0.1692 -0.6179  0.3894
 6823SOL    HW121047   2.908   7.107   9.192  1.5425 -0.9108  0.6417
 6823SOL    HW221048   2.969   7.229   9.258 -0.9308  0.4871  0.4677
 6824SOL     OW21049   9.295   5.817   5.265 -0.5460 -0.5666  0.0819
 6824SOL    HW121050   9.348   5.741   5.286  1.5415  0.4688 -1.0858
 6824SOL    HW221051   9.281   5.811   5.170 -1.9230 -0.4179  0.2526
 6825SOL     OW21052   9.914   7.343   5.214  0.0048  0.0197  0.2463
 6825SOL    HW121053   9.918   7.372   5.123 -1.4979  0.0574  0.1659
 6825SOL    HW221054  10.006   7.330   5.239  0.4155 -1.1039 -1.6304
 6826SOL     OW21055   7.915   5.269   9.000 -0.4822 -0.2235 -0.2062
 6826SOL    HW121056   7.900   5.276   9.094 -1.4239 -1.5207 -0.2365
 6826SOL    HW221057   7.834   5.300   8.960 -0.5252 -0.7819 -0.5596
 6827SOL     OW21058   3.922   8.078   5.450 -0.0592  0.0493  0.4223
 6827SOL    HW121059   3.867   8.149   5.483 -2.5330 -2.1406  1.4107
 6827SOL    HW221060   3.868   8.038   5.381  1.9354  0.0117 -1.2058
 6828SOL     OW21061   0.560   4.893   3.732 -0.2949 -0.3209  0.3286
 6828SOL    HW121062   0.527   4.970   3.779  0.9426  1.2030 -1.1405
 6828SOL    HW221063   0.485   4.834   3.726 -2.0124  1.8221 -0.5445
 6829SOL     OW21064   9.769   0.501   1.212  0.2682  0.5677 -0.3668
 6829SOL    HW121065   9.863   0.480   1.218  0.3010  1.1008  2.0249
 6829SOL    HW221066   9.764   0.567   1.142  1.5856  0.1348 -0.9092
 6830SOL     OW21067   4.448   2.067   8.531  0.4581 -0.6382  0.1043
 6830SOL    HW121068   4.525   2.013   8.547 -0.9166 -2.7431  0.1241
 6830SOL    HW221069   4.435   2.064   8.437 -0.1690 -1.2083  0.1952
 6831SOL     OW21070   1.060   0.348   5.965  0.2705  0.0531 -0.7043
 6831SOL    HW121071   1.091   0.274   5.913  0.4810 -0.4012  0.0521
 6831SOL    HW221072   1.099   0.425   5.923  0.6769 -0.3336 -1.0392
 6832SOL     OW21073   6.386   5.518   5.080  0.3958  0.1766 -0.6378
 6832SOL    HW121074   6.356   5.590   5.134  0.0028  0.4290 -1.1796
 6832SOL    HW221075   6.374   5.440   5.134 -0.1400  0.4044 -0.4256
 6833SOL     OW21076   2.756   5.839   1.087 -0.3165 -0.5474 -0.1516
 6833SOL    HW121077   2.673   5.882   1.067 -0.0930 -0.0790 -0.0872
 6833SOL    HW221078   2.733   5.748   1.104 -0.8707 -0.3396  0.2392
 6834SOL     OW21079   4.476   7.796   9.404  0.3314 -0.5380  0.0230
 6834SOL    HW121080   4.484   7.847   9.484 -0.0961 -0.8485  0.2662
 6834SOL    HW221081   4.534   7.720   9.418 -0.3419 -0.9951  0.3615
 6835SOL     OW21082   1.669   8.585   4.877 -0.5872  0.4895  0.1056
 6835SOL    HW121083   1.612   8.523   4.833  0.0029 -0.9058  1.2284
 6835SOL    HW221084   1.696   8.541   4.958  0.5958  1.8378  0.5061
 6836SOL     OW21085   3.502   7.500   8.382 -0.2363  0.5801 -0.1615
 6836SOL    HW121086   3.538   7.578   8.424  1.3214  1.1306 -2.3207
 6836SOL    HW221087   3.431   7.533   8.327 -0.2561  0.3166 -0.2923
 6837SOL     OW21088   8.389   4.904   2.048  0.2557 -0.4421  0.5597
 6837SOL    HW121089   8.444   4.826   2.039  1.7626  0.6323  0.0193
 6837SOL    HW221090   8.301   4.873   2.031  0.6004 -2.3125  1.8665
 6838SOL     OW21091   8.299   3.149   2.273 -0.1807 -0.1677 -0.1458
 6838SOL    HW121092   8.363   3.181   2.336  1.2581 -0.5841 -1.3223
 6838SOL    HW221093   8.323   3.057   2.259  0.7122  0.3539 -2.5788
 6839SOL     OW21094   2.826   8.234   2.927  0.6532  0.0435 -0.2435
 6839SOL    HW121095   2.823   8.329   2.932  0.4561 -0.0086  1.0044
 6839SOL    HW221096   2.885   8.215   2.855  0.8562  1.1112 -0.3666
 6840SOL     OW21097   6.612   6.417   4.206  0.4235 -0.1006 -0.1519
 6840SOL    HW121098   6.636   6.396   4.115  0.1449  0.6102 -0.3978
 6840SOL    HW221099   6.523   6.450   4.200  0.6203  0.5281  0.2994
 6841SOL     OW21100   1.523   5.025   3.164 -0.2344  0.1832 -0.3957
 6841SOL    HW121101   1.551   4.938   3.193 -0.7268  0.7331  1.9462
 6841SOL    HW221102   1.576   5.085   3.216 -2.4096  1.2363  0.7487
 6842SOL     OW21103   7.835   1.198   3.144  0.2974 -0.2985 -0.9331
 6842SOL    HW121104   7.765   1.200   3.078 -0.3878 -0.8248 -0.2521
 6842SOL    HW221105   7.796   1.239   3.221 -0.2065 -2.8446  0.2867
 6843SOL     OW21106   8.824   9.468   8.314  0.5176 -0.2196  0.0729
 6843SOL    HW121107   8.781   9.551   8.294  1.3768 -0.3571 -2.7143
 6843SOL    HW221108   8.784   9.405   8.255  1.8957 -1.1576  0.0810
 6844SOL     OW21109   7.558   9.393   4.693 -0.0012  0.1063  0.5346
 6844SOL    HW121110   7.613   9.400   4.615  0.3949  1.8072  0.9267
 6844SOL    HW221111   7.580   9.471   4.745 -1.4529 -0.1322  1.5655
 6845SOL     OW21112   2.828   4.735   9.064  0.3191 -0.1703 -0.4191
 6845SOL    HW121113   2.775   4.717   8.986 -0.8514  1.7295 -0.1234
 6845SOL    HW221114   2.845   4.648   9.101 -0.7472 -0.9871 -1.7273
 6846SOL     OW21115   2.957   9.166   9.969 -0.0951  0.5464 -0.0916
 6846SOL    HW121116   2.893   9.232   9.942  1.0412  2.5271  1.7673
 6846SOL    HW221117   3.041   9.211   9.967  0.5479 -0.3020  2.7939
 6847SOL     OW21118   3.502   9.960   7.659  0.5494 -0.5875  0.1245
 6847SOL    HW121119   3.462   9.908   7.728 -0.4434  0.5309  0.4260
 6847SOL    HW221120   3.537  10.037   7.704  3.2230 -1.5656 -0.1047
 6848SOL     OW21121   9.195   3.692   0.351 -0.1482  0.4960  0.2357
 6848SOL    HW121122   9.194   3.696   0.447  2.0011  0.4794  0.3132
 6848SOL    HW221123   9.120   3.744   0.324 -0.9121  0.3432  1.9250
 6849SOL     OW21124   8.168   2.928   7.668 -0.1986 -0.3328 -0.5614
 6849SOL    HW121125   8.174   2.839   7.702  0.3003 -0.0306  0.1821
 6849SOL    HW221126   8.212   2.982   7.734 -2.9157  0.8345  0.4463
 6850SOL     OW21127   4.765   8.181   0.651  0.3562 -0.1950 -0.2805
 6850SOL    HW121128   4.786   8.178   0.744 -0.8768  1.3676  0.0862
 6850SOL    HW221129   4.678   8.141   0.644 -0.5011  1.6150 -0.4132
 6851SOL     OW21130   0.526   1.415   7.419  0.3291  0.6354 -0.5578
 6851SOL    HW121131   0.480   1.438   7.499  1.5259  4.3858 -0.7664
 6851SOL    HW221132   0.563   1.329   7.436 -0.0678  1.0032  2.6312
 6852SOL     OW21133   0.326   0.354   0.512 -0.8943  0.8104 -0.1672
 6852SOL    HW121134   0.397   0.396   0.463 -1.6393  0.0498 -2.0113
 6852SOL    HW221135   0.246   0.381   0.466 -1.5042 -1.2282 -0.3987
 6853SOL     OW21136   7.468   5.628   9.017 -0.5741 -0.0304  0.0198
 6853SOL    HW121137   7.536   5.606   8.954 -0.9052 -0.4918 -0.1766
 6853SOL    HW221138   7.430   5.709   8.984 -0.0283  0.3121  0.2087
 6854SOL     OW21139   8.574   2.736   5.722 -0.2654 -0.6471  0.3374
 6854SOL    HW121140   8.623   2.655   5.706 -2.0290 -1.4114 -1.5907
 6854SOL    HW221141   8.636   2.791   5.770  1.1194 -2.9665  1.4173
 6855SOL     OW21142   8.201   1.040   4.395  0.0540 -0.0309  0.0224
 6855SOL    HW121143   8.296   1.050   4.402 -0.1463  3.0571 -0.5229
 6855SOL    HW221144   8.182   1.054   4.302 -0.9220 -1.2334  0.0158
 6856SOL     OW21145   4.461   9.511   8.591 -0.1797  0.3337  0.4376
 6856SOL    HW121146   4.423   9.563   8.662 -0.2613  0.5792  0.2158
 6856SOL    HW221147   4.524   9.454   8.634 -0.3825  0.3328  0.7351
 6857SOL     OW21148   1.736   1.930   7.918 -0.0621 -0.0133  0.2096
 6857SOL    HW121149   1.658   1.947   7.972 -0.9235  0.1042 -1.0227
 6857SOL    HW221150   1.703   1.878   7.845  1.2608 -0.9787  0.2842
 6858SOL     OW21151   8.392   7.185   9.089  0.1400 -0.2672 -0.2430
 6858SOL    HW121152   8.304   7.178   9.126 -0.1751 -1.1980 -1.1285
 6858SOL    HW221153   8.449   7.192   9.166 -0.6326 -0.4418  0.3663
 6859SOL     OW21154   7.138   3.841   1.251 -0.8241  0.4420 -0.2111
 6859SOL    HW121155   7.163   3.829   1.342 -2.4601  0.0137  0.2079
 6859SOL    HW221156   7.121   3.935   1.242  0.9400  0.7646 -0.5379
 6860SOL     OW21157   8.125   0.095   0.755 -0.0145  0.1039 -0.0229
 6860SOL    HW121158   8.203   0.124   0.802  0.0159 -0.0961  0.0555
 6860SOL    HW221159   8.094   0.020   0.806 -2.3027  2.2488  2.0188
 6861SOL     OW21160   8.026   4.219   1.195 -0.6675  0.0913  0.6149
 6861SOL    HW121161   8.094   4.194   1.132  1.0822  0.5127  2.2621
 6861SOL    HW221162   7.962   4.268   1.143  0.4497 -0.0207 -0.9209
 6862SOL     OW21163   3.708   4.036   6.585  0.4806 -0.3719  0.0179
 6862SOL    HW121164   3.701   4.081   6.669  0.9732 -0.1027 -0.0832
 6862SOL    HW221165   3.619   4.037   6.549  0.4036  0.1239  0.2198
 6863SOL     OW21166   5.837   4.357   9.943  0.0159  0.1380  0.1995
 6863SOL    HW121167   5.913   4.415   9.940 -0.0980  0.2899  0.2487
 6863SOL    HW221168   5.800   4.371  10.031 -0.9015  1.1257 -0.3301
 6864SOL     OW21169   1.115   6.687   5.571 -0.0291  0.5561 -0.2239
 6864SOL    HW121170   1.172   6.689   5.648 -1.2515 -0.6685  0.7726
 6864SOL    HW221171   1.157   6.746   5.509  2.3437 -0.3134  0.4350
 6865SOL     OW21172   5.004   4.701   4.718  0.8795  0.2654 -0.2892
 6865SOL    HW121173   4.937   4.699   4.787  2.5088  2.3434  1.5104
 6865SOL    HW221174   4.956   4.724   4.638 -0.7713  0.0592  0.5997
 6866SOL     OW21175   4.800   9.164   4.366  0.5903 -0.0120  0.1610
 6866SOL    HW121176   4.817   9.089   4.309  1.1764 -0.3921  0.8212
 6866SOL    HW221177   4.705   9.172   4.367  0.4368 -1.4724  0.9812
 6867SOL     OW21178   1.982   0.752   8.214  0.1691 -0.2149  0.2028
 6867SOL    HW121179   2.035   0.810   8.269 -0.2973  0.5709 -0.1644
 6867SOL    HW221180   1.933   0.811   8.157 -1.3789 -0.9127  0.7832
 6868SOL     OW21181   2.742   7.443   6.795 -0.2423 -0.3145  0.0086
 6868SOL    HW121182   2.691   7.515   6.832  0.6874  0.5232 -0.2917
 6868SOL    HW221183   2.758   7.385   6.869  0.1344  0.4797  0.5716
 6869SOL     OW21184   1.435   7.884   1.527 -0.0194  0.3428 -0.0574
 6869SOL    HW121185   1.353   7.933   1.512 -0.4873 -0.6890 -1.0993
 6869SOL    HW221186   1.491   7.909   1.453 -1.3529 -2.7827 -2.3994
 6870SOL     OW21187   6.726   5.044   5.973  0.1228 -0.2764 -0.2026
 6870SOL    HW121188   6.658   4.978   5.983 -1.0664  0.9304  0.1029
 6870SOL    HW221189   6.692   5.102   5.905  0.7755  0.4216  0.0524
 6871SOL     OW21190   1.565   7.863   1.774 -0.0636 -0.6471  0.1951
 6871SOL    HW121191   1.506   7.806   1.824 -1.0337  0.6326  0.5518
 6871SOL    HW221192   1.515   7.885   1.695 -0.2072  0.6854  0.6362
 6872SOL     OW21193   0.660   4.203   9.631  0.0976 -0.2788 -0.0128
 6872SOL    HW121194   0.724   4.193   9.702  0.3099  1.1621  0.0318
 6872SOL    HW221195   0.651   4.116   9.594 -0.7450 -1.3210  2.4151
 6873SOL     OW21196  -0.011   2.753   5.326  0.1308  0.0775  0.1311
 6873SOL    HW121197   0.079   2.741   5.357  0.2153  0.5450  0.0737
 6873SOL    HW221198  -0.041   2.664   5.305  0.2111 -0.2037  1.1525
 6874SOL     OW21199   5.682   7.660   1.304  0.7453 -0.0912  0.1370
 6874SOL    HW121200   5.771   7.633   1.331  1.3747 -0.2341 -1.9267
 6874SOL    HW221201   5.652   7.588   1.248 -0.7246 -0.0575  0.8490
 6875SOL     OW21202   0.310   4.728   4.989  0.0930  0.5712  0.2767
 6875SOL    HW121203   0.355   4.762   5.066  0.1056  2.3323 -0.4562
 6875SOL    HW221204   0.380   4.699   4.931  0.0616 -1.6803  1.2614
 6876SOL     OW21205   9.152   2.659   1.065 -0.4687 -0.6054  0.1512
 6876SOL    HW121206   9.197   2.646   0.981  1.0414  1.3370  0.5897
 6876SOL    HW221207   9.062   2.633   1.048  0.7230 -4.9863 -0.7067
 6877SOL     OW21208   2.232   3.773   8.480  0.1938 -0.1941 -0.5953
 6877SOL    HW121209   2.209   3.811   8.396 -1.2083  0.9839  0.2713
 6877SOL    HW221210   2.174   3.816   8.543  2.4899  0.3712  1.2680
 6878SOL     OW21211   3.580   7.564   3.173 -0.0680 -0.1552 -0.3079
 6878SOL    HW121212   3.598   7.580   3.266 -3.3398  2.8830  0.0399
 6878SOL    HW221213   3.637   7.625   3.126 -1.1224  1.1159  0.0162
 6879SOL     OW21214   0.038   8.864   0.264  0.0800  0.0615 -0.0564
 6879SOL    HW121215   0.006   8.953   0.279  0.0290 -0.0582  0.5401
 6879SOL    HW221216   0.129   8.865   0.295  0.8210  0.4959 -2.0559
 6880SOL     OW21217   7.480   1.142   6.810 -0.8540 -0.1767 -0.2090
 6880SOL    HW121218   7.467   1.206   6.740 -0.3327  0.0127 -0.1391
 6880SOL    HW221219   7.515   1.193   6.883  1.1395 -0.7875 -0.6887
 6881SOL     OW21220   3.982   3.284   5.689 -0.0156  0.0716 -0.2175
 6881SOL    HW121221   3.965   3.369   5.730 -0.8376 -0.9447  1.6439
 6881SOL    HW221222   4.070   3.261   5.716  0.8053  0.9387 -1.9458
 6882SOL     OW21223   9.762   8.781   0.380  0.5458 -0.0245  0.1207
 6882SOL    HW121224   9.852   8.811   0.364  1.1891 -2.1268 -0.5862
 6882SOL    HW221225   9.708   8.836   0.323  1.6298  0.0074 -0.9274
 6883SOL     OW21226   1.341   8.650   6.977  0.0037  0.0580  0.4700
 6883SOL    HW121227   1.318   8.641   7.069 -1.6170 -0.6207  0.0406
 6883SOL    HW221228   1.432   8.623   6.972  0.0023 -0.2612  1.8172
 6884SOL     OW21229   0.567   1.483   9.193 -0.8718 -0.1386  0.0026
 6884SOL    HW121230   0.561   1.395   9.229  1.1841  0.2046  1.3285
 6884SOL    HW221231   0.508   1.536   9.247  0.0936 -0.1644  1.1060
 6885SOL     OW21232   8.072   9.069   9.660 -0.5419 -0.2272  0.2779
 6885SOL    HW121233   8.097   9.005   9.593  1.0017  0.8424 -0.2107
 6885SOL    HW221234   8.089   9.025   9.743  0.4065 -0.5037 -0.0540
 6886SOL     OW21235   7.569   2.849   6.735  0.5659 -0.0590  0.7234
 6886SOL    HW121236   7.604   2.856   6.824  2.3582  2.0636 -0.0695
 6886SOL    HW221237   7.484   2.891   6.739 -0.0764 -1.3626  1.7218
 6887SOL     OW21238   5.873   2.108   7.127  0.1087  0.3838 -0.0246
 6887SOL    HW121239   5.828   2.191   7.139 -0.2998  0.2688 -0.6875
 6887SOL    HW221240   5.803   2.046   7.107  0.4330 -0.0783  0.2640
 6888SOL     OW21241   3.316   2.903   6.344  0.0897  0.4250 -0.0115
 6888SOL    HW121242   3.337   2.994   6.362  0.1604  0.8652 -2.0497
 6888SOL    HW221243   3.399   2.856   6.353  0.1989  0.6891  0.3337
 6889SOL     OW21244   9.302   0.664   0.258 -0.4327 -0.4074  0.5286
 6889SOL    HW121245   9.337   0.575   0.257 -1.7524 -0.9493  0.2201
 6889SOL    HW221246   9.227   0.659   0.317 -1.3754  0.1459 -0.5952
 6890SOL     OW21247   5.969   5.575   4.649 -0.5286  0.4988 -0.0217
 6890SOL    HW121248   6.047   5.519   4.650  0.3900  1.7580  1.1398
 6890SOL    HW221249   5.896   5.513   4.644  0.4972 -0.7367 -0.3411
 6891SOL     OW21250   2.384   0.840   1.607  0.0074 -0.1677 -0.0556
 6891SOL    HW121251   2.319   0.855   1.538 -0.1678  0.4788  0.2389
 6891SOL    HW221252   2.334   0.845   1.688  0.3353 -0.1854  0.1504
 6892SOL     OW21253   2.884   3.596   0.273 -0.0499  0.1501  0.1185
 6892SOL    HW121254   2.791   3.607   0.255  0.4034  1.9280 -1.4006
 6892SOL    HW221255   2.908   3.674   0.323  0.6598 -0.2311  0.3850
 6893SOL     OW21256   1.312   6.872   4.581  0.0534  0.2170  1.2185
 6893SOL    HW121257   1.392   6.841   4.539 -0.6146 -0.4707  0.4183
 6893SOL    HW221258   1.252   6.797   4.576 -0.6848  0.7600  1.7002
 6894SOL     OW21259   0.633   2.539   1.306  0.3550  0.3844  0.3473
 6894SOL    HW121260   0.632   2.623   1.261  0.1354 -0.2320 -0.8337
 6894SOL    HW221261   0.618   2.474   1.237 -1.5551 -0.4953  1.5013
 6895SOL     OW21262   5.721   3.434   9.417 -0.2140  0.3327 -0.3993
 6895SOL    HW121263   5.798   3.384   9.388  0.1215  0.9673 -0.6097
 6895SOL    HW221264   5.701   3.492   9.343 -0.6065  0.5074 -0.1563
 6896SOL     OW21265   7.223   6.469   9.007  0.0563 -0.2699  0.7954
 6896SOL    HW121266   7.174   6.432   8.933 -0.4670  1.8981 -0.0380
 6896SOL    HW221267   7.249   6.394   9.059  0.3758 -1.9006 -1.5508
 6897SOL     OW21268   5.661   2.397   4.230  0.0559  0.0212  0.3088
 6897SOL    HW121269   5.678   2.334   4.161 -0.6767  0.6635 -0.4793
 6897SOL    HW221270   5.723   2.374   4.299  2.2353  0.6279 -1.3564
 6898SOL     OW21271   3.807   6.750   5.111 -0.4192 -0.0933  0.1990
 6898SOL    HW121272   3.780   6.674   5.060  1.2326  0.6395 -1.9338
 6898SOL    HW221273   3.882   6.720   5.162  0.5599  0.1351 -1.0264
 6899SOL     OW21274   5.510   6.954   2.377  0.3003  0.9694 -0.2284
 6899SOL    HW121275   5.445   6.884   2.371  0.1700  1.0523  0.2017
 6899SOL    HW221276   5.579   6.919   2.432  0.8104  0.7425 -0.9928
 6900SOL     OW21277   1.637   4.733   4.935 -0.4705 -0.3458  0.3811
 6900SOL    HW121278   1.701   4.666   4.912  2.4346  2.0103  0.9418
 6900SOL    HW221279   1.580   4.739   4.858  0.1798 -2.3084 -0.3043
 6901SOL     OW21280   7.037   1.352   3.061  0.4810 -0.1414  0.0403
 6901SOL    HW121281   7.108   1.295   3.092  1.0705  0.0224 -0.9645
 6901SOL    HW221282   7.055   1.364   2.967 -1.3088 -0.7099 -0.4012
 6902SOL     OW21283   0.725   7.888   3.784 -0.0503 -0.3787  0.0445
 6902SOL    HW121284   0.717   7.860   3.693 -1.3636 -1.8341  0.5601
 6902SOL    HW221285   0.818   7.881   3.803  0.3106  0.4547 -1.3265
 6903SOL     OW21286   6.458   2.025   0.886  0.0475  0.2801  0.0617
 6903SOL    HW121287   6.462   2.071   0.803  0.2900 -0.1005 -0.1396
 6903SOL    HW221288   6.414   1.942   0.866  0.0795  0.1993  0.3165
 6904SOL     OW21289   5.321   8.551   2.985 -0.5954  0.5296 -0.0954
 6904SOL    HW121290   5.380   8.624   3.002 -0.3180  0.4936 -0.8701
 6904SOL    HW221291   5.247   8.591   2.938 -1.2578  0.5958  0.9644
 6905SOL     OW21292   3.830   8.426   6.060 -0.0918  0.4112 -0.7008
 6905SOL    HW121293   3.815   8.492   6.128  0.7709 -1.6407  1.6256
 6905SOL    HW221294   3.760   8.362   6.074  0.1599 -0.1000 -1.7111
 6906SOL     OW21295   3.631   5.284   7.579 -0.8758 -0.1506 -0.0659
 6906SOL    HW121296   3.576   5.206   7.580 -0.8620 -0.1653  1.2033
 6906SOL    HW221297   3.714   5.256   7.616 -1.3364  0.7570  1.7842
 6907SOL     OW21298   9.265   0.179   8.472  0.1954  0.1043 -0.3979
 6907SOL    HW121299   9.255   0.198   8.566 -0.4444 -1.1037 -0.2010
 6907SOL    HW221300   9.354   0.144   8.465 -0.8313 -3.0208  0.4007
 6908SOL     OW21301   8.979   3.070   0.426  0.5691 -0.3444 -0.0146
 6908SOL    HW121302   9.022   3.022   0.356  2.2075 -1.3117  1.5780
 6908SOL    HW221303   9.046   3.130   0.459 -0.3762  0.5670  0.3324
 6909SOL     OW21304   3.168   2.658   0.617  0.6568 -0.0793  0.1598
 6909SOL    HW121305   3.182   2.608   0.537 -0.7955 -0.1521 -0.0830
 6909SOL    HW221306   3.150   2.593   0.684  0.8058  0.0298  0.3083
 6910SOL     OW21307   7.982   4.843   6.340 -0.5229 -0.2967  0.0900
 6910SOL    HW121308   7.911   4.784   6.314  0.1161 -1.8370  1.6045
 6910SOL    HW221309   8.062   4.794   6.318  0.0275 -0.5889  2.4546
 6911SOL     OW21310   1.300   7.663   2.432 -0.2863  0.4083  0.2392
 6911SOL    HW121311   1.227   7.604   2.450  1.0464 -1.7857 -1.1584
 6911SOL    HW221312   1.372   7.628   2.484  0.4335  1.0442 -0.3060
 6912SOL     OW21313   4.586   6.186   6.970  0.2370 -0.5740  0.3941
 6912SOL    HW121314   4.532   6.111   6.995 -0.0874 -0.4893 -0.0441
 6912SOL    HW221315   4.565   6.254   7.033 -1.5640  0.0871 -0.8569
 6913SOL     OW21316   2.822   2.481   3.608 -0.0517  0.0508  0.3288
 6913SOL    HW121317   2.861   2.404   3.566  0.0715  1.1323 -1.6294
 6913SOL    HW221318   2.735   2.451   3.636 -0.5944 -0.4702 -1.7270
 6914SOL     OW21319   8.932   6.552   2.792  0.1432 -0.1097 -0.6330
 6914SOL    HW121320   8.892   6.593   2.715 -1.3259 -0.8510 -0.3074
 6914SOL    HW221321   8.963   6.626   2.845 -0.6389  0.4961 -0.9971
 6915SOL     OW21322   7.943   9.177   3.059  0.5371 -0.2650 -0.0703
 6915SOL    HW121323   7.880   9.171   2.987  1.3590 -0.3982 -0.7953
 6915SOL    HW221324   8.009   9.238   3.027  0.4293  0.3959  0.9526
 6916SOL     OW21325   3.186   4.921   9.043 -0.2856  0.7047  0.0125
 6916SOL    HW121326   3.277   4.928   9.015  0.4197  3.2018  2.4079
 6916SOL    HW221327   3.190   4.871   9.125 -1.4508 -1.2394 -1.0538
 6917SOL     OW21328   1.125   0.777   5.696 -0.1726 -0.0537  0.4012
 6917SOL    HW121329   1.204   0.831   5.691  0.7025 -1.2503  1.0085
 6917SOL    HW221330   1.147   0.697   5.650 -1.1938 -0.2338  0.1952
 6918SOL     OW21331   7.637   0.833   7.900 -0.3562  0.1192 -0.4569
 6918SOL    HW121332   7.585   0.911   7.884 -0.0617  0.3107 -0.4749
 6918SOL    HW221333   7.727   0.860   7.886 -0.0858  0.2425  1.2684
 6919SOL     OW21334   2.683   1.206   1.443  0.3208  0.3960  0.3536
 6919SOL    HW121335   2.668   1.198   1.537  0.6692 -0.6833  0.3270
 6919SOL    HW221336   2.640   1.129   1.405 -2.2217  2.1724 -0.6863
 6920SOL     OW21337   6.621   0.428   5.930  0.0123  0.6223 -0.4703
 6920SOL    HW121338   6.564   0.382   5.992 -0.9006 -0.4559 -2.0507
 6920SOL    HW221339   6.692   0.462   5.984 -1.5069  1.0236  1.3980
 6921SOL     OW21340   1.577   7.393   2.267 -0.2011 -0.4396 -0.1339
 6921SOL    HW121341   1.527   7.351   2.337  1.6109 -2.1018  0.2799
 6921SOL    HW221342   1.608   7.320   2.213 -0.7795  0.7448 -2.1617
 6922SOL     OW21343   7.118   9.473   8.042 -0.0762 -0.0539  0.3153
 6922SOL    HW121344   7.051   9.489   8.108 -0.3054 -3.3748  1.0661
 6922SOL    HW221345   7.201   9.472   8.091 -0.1472 -1.5553  0.4611
 6923SOL     OW21346   9.731   6.524   1.141 -0.1921 -0.0590  0.1259
 6923SOL    HW121347   9.825   6.532   1.124 -0.3687  0.4910 -0.6448
 6923SOL    HW221348   9.723   6.441   1.188  0.3926 -1.5765 -2.2441
 6924SOL     OW21349   2.393   4.608   6.221  0.4230 -0.3276 -0.1940
 6924SOL    HW121350   2.369   4.700   6.233 -0.1794 -0.4404 -0.5136
 6924SOL    HW221351   2.311   4.563   6.204  0.8836 -0.6563 -1.7321
 6925SOL     OW21352   0.699   8.678   2.277 -0.0557 -0.1809 -0.4592
 6925SOL    HW121353   0.697   8.742   2.348  2.7464 -1.8128  1.2361
 6925SOL    HW221354   0.607   8.654   2.265 -0.8770  1.9902  0.8329
 6926SOL     OW21355   9.640  -0.004   7.799 -0.5086 -0.0314  0.4421
 6926SOL    HW121356   9.643   0.069   7.860  2.3869  1.2174 -0.9786
 6926SOL    HW221357   9.680   0.030   7.719  1.2727 -3.2037 -0.2003
 6927SOL     OW21358   0.797   8.508   4.993 -0.3947 -0.1601 -0.1625
 6927SOL    HW121359   0.723   8.478   5.045  0.3438 -1.0800  0.3778
 6927SOL    HW221360   0.858   8.546   5.057 -0.6835  1.2411 -0.6764
 6928SOL     OW21361   2.045   8.449   2.691 -0.7824  0.2251 -0.2971
 6928SOL    HW121362   2.075   8.515   2.628  1.1112  1.2020  1.4855
 6928SOL    HW221363   2.100   8.464   2.768 -2.7754 -1.1240  1.4835
 6929SOL     OW21364   0.316   7.601   8.873 -0.0031  0.6545 -0.0685
 6929SOL    HW121365   0.292   7.630   8.961  1.4290  0.3417  0.4368
 6929SOL    HW221366   0.399   7.643   8.855  0.0132  0.2318 -1.0383
 6930SOL     OW21367   6.331   7.328   3.338  0.3395 -0.0572 -0.5226
 6930SOL    HW121368   6.360   7.297   3.252 -0.0306 -0.6737 -0.4313
 6930SOL    HW221369   6.261   7.268   3.362  0.8082 -0.2214  0.4575
 6931SOL     OW21370   8.172   8.961   7.734 -0.0384 -0.5245  0.1546
 6931SOL    HW121371   8.215   8.974   7.650 -1.5999 -1.3834 -0.8118
 6931SOL    HW221372   8.084   8.930   7.713 -0.1929 -1.6190  2.1067
 6932SOL     OW21373   2.803   7.644   9.736 -0.1095  0.1916  0.0397
 6932SOL    HW121374   2.802   7.639   9.640  0.6774 -0.9129  0.0790
 6932SOL    HW221375   2.875   7.705   9.756  1.2038 -1.2671 -0.0436
 6933SOL     OW21376   9.176   2.567   4.152 -0.1259 -0.2070  0.6040
 6933SOL    HW121377   9.153   2.641   4.208 -1.9060 -1.3145  1.4232
 6933SOL    HW221378   9.194   2.606   4.067 -2.4077  1.0845  0.6378
 6934SOL     OW21379   0.440   3.025   0.274  0.0422 -0.1878  0.0623
 6934SOL    HW121380   0.502   3.066   0.335  1.5079  1.5942 -2.4504
 6934SOL    HW221381   0.361   3.079   0.281  0.0031 -0.3183  0.7256
 6935SOL     OW21382   4.323   1.686   1.020 -0.6700 -0.0577 -0.2003
 6935SOL    HW121383   4.389   1.638   1.068 -0.2835 -0.0106 -0.6787
 6935SOL    HW221384   4.284   1.745   1.085 -0.9893 -0.8456  0.3272
 6936SOL     OW21385   5.106   2.489   4.910 -0.5918 -0.3513  0.2884
 6936SOL    HW121386   5.013   2.471   4.924 -0.4708 -0.3089  1.2117
 6936SOL    HW221387   5.108   2.552   4.838 -1.2341 -0.8595 -0.1949
 6937SOL     OW21388   7.236   4.638   3.083 -0.2383  0.2824 -0.5123
 6937SOL    HW121389   7.254   4.630   3.177  0.1343 -0.3398 -0.6296
 6937SOL    HW221390   7.237   4.732   3.066 -0.0699  0.3874  0.0582
 6938SOL     OW21391   6.618   8.165   0.892 -0.0006 -0.3183 -0.0125
 6938SOL    HW121392   6.618   8.122   0.806  0.5652  2.0932 -1.3000
 6938SOL    HW221393   6.545   8.227   0.887  0.9650  0.8987  0.6568
 6939SOL     OW21394   6.294   6.233   2.910  0.2202  0.1426  0.0096
 6939SOL    HW121395   6.261   6.316   2.877  1.6515  0.9549  0.5417
 6939SOL    HW221396   6.277   6.170   2.839 -0.3159  1.0107 -0.6432
 6940SOL     OW21397   7.529   4.080   9.836 -0.3134 -0.3793  0.4875
 6940SOL    HW121398   7.490   4.037   9.913 -0.7001 -0.4607  0.2488
 6940SOL    HW221399   7.519   4.016   9.766  1.1903 -0.8355  0.6463
 6941SOL     OW21400   9.159   6.151   8.283  0.3503  0.2417 -0.1142
 6941SOL    HW121401   9.204   6.225   8.243  3.1807 -1.5098 -0.4738
 6941SOL    HW221402   9.073   6.185   8.308  0.5143  2.8749 -2.6602
 6942SOL     OW21403   3.485   5.728   2.884  0.7346  0.2450  0.2012
 6942SOL    HW121404   3.415   5.663   2.895 -1.2707  2.1504 -0.4502
 6942SOL    HW221405   3.539   5.719   2.962 -0.3549 -1.1865  0.8333
 6943SOL     OW21406   9.866   5.681   2.764  0.6858 -0.5407 -0.4038
 6943SOL    HW121407   9.902   5.639   2.687 -1.4606 -2.3224 -0.5213
 6943SOL    HW221408   9.826   5.762   2.731  1.7023 -0.1677 -0.7609
 6944SOL     OW21409   8.585   5.268   5.191 -0.3001 -0.3309  0.2257
 6944SOL    HW121410   8.563   5.194   5.135  0.8112 -1.6431  1.4599
 6944SOL    HW221411   8.626   5.229   5.268 -1.6011  1.4297  1.8897
 6945SOL     OW21412   7.285   6.481   7.972  0.8548  0.1534  0.3198
 6945SOL    HW121413   7.218   6.492   8.039 -0.1793 -2.7570 -0.0983
 6945SOL    HW221414   7.348   6.421   8.010  0.9960 -0.4266 -0.7740
 6946SOL     OW21415   1.601   3.183   8.882  0.8485 -0.6696 -0.6197
 6946SOL    HW121416   1.670   3.240   8.916  0.7002 -0.4162 -0.7325
 6946SOL    HW221417   1.634   3.155   8.797 -0.6476  2.3302 -2.3733
 6947SOL     OW21418   6.702   2.071   6.676  0.0286 -0.4173 -0.3142
 6947SOL    HW121419   6.760   2.011   6.721  0.2039  0.7063  1.0259
 6947SOL    HW221420   6.644   2.105   6.744 -1.2310 -0.3974 -1.3521
 6948SOL     OW21421   4.617   5.672   0.077  0.1347  0.0181 -0.1243
 6948SOL    HW121422   4.612   5.726  -0.002 -0.0866 -0.6731 -0.5870
 6948SOL    HW221423   4.589   5.731   0.147 -2.5836 -0.1614 -0.9341
 6949SOL     OW21424   3.444   2.004   2.465  0.0393 -0.0078  0.5982
 6949SOL    HW121425   3.478   2.050   2.542  1.2267 -0.7530  0.5481
 6949SOL    HW221426   3.513   1.943   2.442  0.2834  1.1211 -1.8941
 6950SOL     OW21427   7.548   7.844   5.264 -0.1503  0.2464 -0.3439
 6950SOL    HW121428   7.483   7.852   5.194 -1.3568 -0.6577  0.6148
 6950SOL    HW221429   7.496   7.840   5.344  1.1770  0.9011  0.5926
 6951SOL     OW21430   1.332   1.998   5.758 -0.0128 -0.1175 -0.6936
 6951SOL    HW121431   1.350   1.971   5.848 -0.6037 -2.1537 -1.1473
 6951SOL    HW221432   1.266   2.067   5.766  0.9345  0.6892  0.4732
 6952SOL     OW21433   8.779   1.236   9.668  0.1664  0.0962 -0.2328
 6952SOL    HW121434   8.811   1.166   9.725  1.3480  0.3204 -0.5924
 6952SOL    HW221435   8.685   1.219   9.660 -0.2383  0.5629  2.4800
 6953SOL     OW21436   2.949   9.202   7.356 -0.1760  0.5774  0.2280
 6953SOL    HW121437   2.950   9.295   7.335 -0.3402  1.1985  2.6661
 6953SOL    HW221438   2.858   9.184   7.381 -0.1364 -0.2341 -0.1705
 6954SOL     OW21439   0.170   2.416   9.162 -0.9435 -0.5994 -0.6347
 6954SOL    HW121440   0.211   2.344   9.209 -0.8654  0.3193  0.7478
 6954SOL    HW221441   0.190   2.399   9.070 -0.2793 -1.9210 -0.2664
 6955SOL     OW21442   4.868   4.793   1.010  0.5944  0.1038 -0.2769
 6955SOL    HW121443   4.795   4.733   0.996 -1.7525  2.5481  0.5709
 6955SOL    HW221444   4.914   4.759   1.086  0.9170 -1.9556 -1.3406
 6956SOL     OW21445   9.597   6.057   9.624 -0.2975 -0.5650 -0.7493
 6956SOL    HW121446   9.634   6.146   9.628 -0.8516 -0.3369  3.1970
 6956SOL    HW221447   9.513   6.068   9.579 -0.8598  1.1893  0.6140
 6957SOL     OW21448   6.672   3.812   2.081 -0.1942  1.0383 -0.0109
 6957SOL    HW121449   6.759   3.774   2.088  0.1974  1.9957  0.5025
 6957SOL    HW221450   6.686   3.906   2.088 -1.4233  1.1379  1.7579
 6958SOL     OW21451   0.867   6.355   9.673  0.1494 -0.3683  0.0410
 6958SOL    HW121452   0.904   6.286   9.618  0.6371 -0.0775  0.0052
 6958SOL    HW221453   0.775   6.331   9.681 -0.2083  0.1936 -1.8426
 6959SOL     OW21454   4.609   5.684   2.494 -0.0260 -0.3226  0.1201
 6959SOL    HW121455   4.597   5.616   2.560  1.0199  1.1835  1.9656
 6959SOL    HW221456   4.522   5.696   2.455 -0.7719 -0.9761  1.5186
 6960SOL     OW21457   8.962   8.660   1.969 -0.4908  0.0501  0.2904
 6960SOL    HW121458   9.033   8.683   2.029 -1.2210  0.6978  0.9405
 6960SOL    HW221459   9.005   8.615   1.896  0.5134 -0.0384  0.9183
 6961SOL     OW21460   3.622   5.209   2.253  1.2947  0.9134  0.2518
 6961SOL    HW121461   3.589   5.299   2.248  0.3128  0.5344 -0.3564
 6961SOL    HW221462   3.665   5.204   2.338 -0.2153  1.4385  1.0781
 6962SOL     OW21463   8.735   7.852   1.113 -0.0377  0.5931 -0.2319
 6962SOL    HW121464   8.739   7.761   1.143 -1.0808  0.2112 -1.1791
 6962SOL    HW221465   8.721   7.846   1.019 -0.1866  1.7450 -0.2996
 6963SOL     OW21466   8.053   4.876   9.184 -0.2513  0.3206  0.2600
 6963SOL    HW121467   8.014   4.926   9.256 -1.3852  0.7464 -0.6210
 6963SOL    HW221468   8.002   4.795   9.181 -1.7920  1.2706 -1.4951
 6964SOL     OW21469   8.324   9.558   1.061 -0.1141 -0.0315 -0.3978
 6964SOL    HW121470   8.340   9.464   1.057 -0.6050 -0.2539  1.6868
 6964SOL    HW221471   8.292   9.580   0.974  0.1088 -1.7638 -0.9684
 6965SOL     OW21472   9.886   9.701   0.650 -0.5298  0.3695  0.3893
 6965SOL    HW121473   9.974   9.680   0.619 -0.5464  0.8147  0.0286
 6965SOL    HW221474   9.889   9.684   0.744  0.5805  2.4022  0.7845
 6966SOL     OW21475   3.635   4.828   9.082 -0.7372  0.0456  0.0197
 6966SOL    HW121476   3.648   4.900   9.021  1.2873  0.0653  0.4051
 6966SOL    HW221477   3.668   4.861   9.166 -1.4899 -0.7066  0.6320
 6967SOL     OW21478   3.813   5.282   6.304  0.2525 -0.2479  0.0609
 6967SOL    HW121479   3.770   5.366   6.316  0.4884 -0.3059  1.5090
 6967SOL    HW221480   3.780   5.249   6.221  1.5204  2.0697 -1.4671
 6968SOL     OW21481   3.146   4.764   9.928  0.1284 -0.1802 -0.1327
 6968SOL    HW121482   3.185   4.847   9.900  0.9779 -0.8398 -0.9935
 6968SOL    HW221483   3.215   4.722   9.980 -0.6180  0.0315  1.0555
 6969SOL     OW21484   5.555   5.377   6.772  0.5236 -0.2217  0.5297
 6969SOL    HW121485   5.507   5.367   6.854 -0.1773  0.2466  0.1792
 6969SOL    HW221486   5.644   5.399   6.799  0.7756 -1.9242  1.2012
 6970SOL     OW21487   0.855   8.308   0.704 -0.0234  0.1466  0.2865
 6970SOL    HW121488   0.761   8.294   0.713 -0.0405 -0.4044 -0.6134
 6970SOL    HW221489   0.894   8.259   0.776 -0.4251  0.4602  0.7206
 6971SOL     OW21490   7.028   2.848   0.244 -0.1653 -0.0096  0.1174
 6971SOL    HW121491   6.935   2.839   0.228 -0.6254  0.2212  2.3453
 6971SOL    HW221492   7.063   2.759   0.234 -1.0592 -0.5611  1.5670
 6972SOL     OW21493   8.813   3.040   2.494  0.0039 -0.0193 -0.8330
 6972SOL    HW121494   8.817   2.968   2.556  0.0464 -0.0701 -0.8945
 6972SOL    HW221495   8.743   3.016   2.433 -0.2091  0.1486 -0.6577
 6973SOL     OW21496   6.560   5.836   9.537  0.0031 -0.1726  0.5252
 6973SOL    HW121497   6.645   5.853   9.496 -0.2090  0.1494  0.2146
 6973SOL    HW221498   6.577   5.841   9.631  0.3971 -0.4472  0.4707
 6974SOL     OW21499   6.689   2.490   5.056 -0.3863  0.3955  0.0046
 6974SOL    HW121500   6.782   2.497   5.079 -0.7502  2.8457  1.0981
 6974SOL    HW221501   6.655   2.423   5.116  0.2003  1.3376  1.4568
 6975SOL     OW21502   0.231   1.384   0.429  0.6142  0.4233  0.4398
 6975SOL    HW121503   0.219   1.406   0.337  2.4506  0.6337  0.2143
 6975SOL    HW221504   0.189   1.456   0.477 -1.6850 -0.4233 -0.1470
 6976SOL     OW21505   9.087   6.304   8.797 -0.2597  0.2773 -1.0626
 6976SOL    HW121506   9.146   6.229   8.793 -0.7316 -0.2022  0.4518
 6976SOL    HW221507   9.088   6.340   8.708  1.8869 -0.0359 -1.2253
 6977SOL     OW21508   7.990   1.553   0.066  0.1416  0.1529  0.1059
 6977SOL    HW121509   8.019   1.540   0.156  0.9764  1.3005  0.0147
 6977SOL    HW221510   7.942   1.472   0.045 -0.2851 -0.0276  1.6470
 6978SOL     OW21511   2.711   5.228   1.385 -1.1774 -0.0564  0.0548
 6978SOL    HW121512   2.662   5.303   1.418  0.7180  1.8090 -1.0674
 6978SOL    HW221513   2.722   5.171   1.460 -2.3452  0.9773  1.0496
 6979SOL     OW21514   2.444   7.786   0.089  0.7619 -0.2365 -0.3299
 6979SOL    HW121515   2.496   7.843   0.145  0.3367 -0.5087  0.3433
 6979SOL    HW221516   2.505   7.717   0.063  0.8608 -0.3172  0.1080
 6980SOL     OW21517   3.063   7.593   6.751  0.5393 -0.2895 -0.2444
 6980SOL    HW121518   2.977   7.632   6.736  1.0385  0.1804 -2.1189
 6980SOL    HW221519   3.092   7.631   6.834 -2.0457 -2.3589  1.7779
 6981SOL     OW21520   0.843   9.962   0.338 -0.6493  0.3616 -0.0696
 6981SOL    HW121521   0.896   9.893   0.379  0.2876  0.3472 -1.2457
 6981SOL    HW221522   0.760   9.918   0.316 -0.1087 -0.3781 -0.6889
 6982SOL     OW21523   9.693   4.574   3.038  0.0419  0.7607  0.0903
 6982SOL    HW121524   9.637   4.607   2.968  1.5607  1.1336 -0.9916
 6982SOL    HW221525   9.710   4.483   3.014  0.7656  0.9605 -0.1615
 6983SOL     OW21526   8.015   3.886   8.562 -0.0851  0.4956  0.1481
 6983SOL    HW121527   8.023   3.981   8.568  0.2253  0.5605 -1.0509
 6983SOL    HW221528   8.022   3.855   8.652  0.6441  1.5402  0.4587
 6984SOL     OW21529   1.926   9.944   4.932  0.5218  0.1399  0.5495
 6984SOL    HW121530   1.832   9.925   4.934  0.6448 -0.5376  0.2554
 6984SOL    HW221531   1.932  10.038   4.947 -0.1875  0.1329  0.9230
 6985SOL     OW21532   9.653   3.133   2.453 -0.0597  0.5153 -0.1587
 6985SOL    HW121533   9.587   3.106   2.517 -1.7525  1.8077 -1.2504
 6985SOL    HW221534   9.674   3.223   2.476  0.7352  0.3780 -0.3143
 6986SOL     OW21535   7.602   9.337   1.101 -0.1152  0.0736  0.1212
 6986SOL    HW121536   7.682   9.347   1.049  0.6368  0.5813  1.3406
 6986SOL    HW221537   7.628   9.358   1.190 -1.6650  0.4706  0.5172
 6987SOL     OW21538   3.420   7.968   8.801 -0.4423  0.4145  0.1265
 6987SOL    HW121539   3.466   8.044   8.837  0.4036  1.2246 -2.4387
 6987SOL    HW221540   3.460   7.893   8.844  0.3292  1.3096  1.0319
 6988SOL     OW21541   1.363   4.172   5.905  0.7344 -0.0743 -0.0887
 6988SOL    HW121542   1.450   4.196   5.936  0.3534  1.2081  0.0296
 6988SOL    HW221543   1.378   4.136   5.817  1.3155  0.9000 -0.4043
 6989SOL     OW21544   3.421   3.009   3.323  0.1660  0.1376 -0.2494
 6989SOL    HW121545   3.438   2.949   3.396 -1.2058 -0.5502 -0.4656
 6989SOL    HW221546   3.343   3.057   3.350 -1.7890 -1.7439 -2.1832
 6990SOL     OW21547   2.674   7.332   4.886  0.3459  0.0111  0.4956
 6990SOL    HW121548   2.624   7.400   4.841 -0.6090 -1.5696 -0.9312
 6990SOL    HW221549   2.631   7.324   4.971 -0.6199  0.0189  0.0271
 6991SOL     OW21550   4.118   3.358   7.538  0.0272  0.3876 -0.3158
 6991SOL    HW121551   4.071   3.424   7.487 -2.3294 -1.8673 -1.3609
 6991SOL    HW221552   4.135   3.287   7.476  1.7607 -0.3558  0.9100
 6992SOL     OW21553   9.007   1.413   4.985  0.0433 -0.1530  0.0680
 6992SOL    HW121554   9.003   1.399   5.079 -0.6350 -2.8765 -0.2909
 6992SOL    HW221555   8.938   1.477   4.967  2.0662  2.6993  1.6609
 6993SOL     OW21556   1.681   3.315   3.736  0.1107  0.4100 -0.1221
 6993SOL    HW121557   1.714   3.230   3.766 -0.3282  0.1868 -0.2697
 6993SOL    HW221558   1.637   3.352   3.813 -0.0717  0.3141 -0.1798
 6994SOL     OW21559   6.541   5.467   5.862  0.0230  0.5554 -0.1245
 6994SOL    HW121560   6.449   5.486   5.845 -0.2552 -0.0495  0.6672
 6994SOL    HW221561   6.549   5.470   5.957  0.6626 -0.1269 -0.1498
 6995SOL     OW21562   4.197   0.908   3.052 -0.0151  0.6091  0.0612
 6995SOL    HW121563   4.133   0.932   2.985 -0.5705  0.5981  0.5803
 6995SOL    HW221564   4.194   0.813   3.056  1.4522  0.4642 -1.2780
 6996SOL     OW21565   8.044   6.854   0.995  0.9555  0.3608 -0.9823
 6996SOL    HW121566   8.123   6.874   0.944  0.2442  0.0390 -2.2740
 6996SOL    HW221567   7.997   6.791   0.941  0.4111 -0.4076  0.3624
 6997SOL     OW21568   3.702   1.600   9.083  0.6349 -0.1575  0.0191
 6997SOL    HW121569   3.701   1.578   9.176 -1.0533  0.5914  0.2191
 6997SOL    HW221570   3.770   1.667   9.075  1.7262 -1.1770  0.4444
 6998SOL     OW21571   7.364   5.167   0.243  0.5838  0.6765 -0.2959
 6998SOL    HW121572   7.403   5.237   0.190 -0.1088  0.3195 -1.2948
 6998SOL    HW221573   7.290   5.136   0.191 -0.2858  0.5029  1.0117
 6999SOL     OW21574   5.226   8.266   7.113  0.1491  0.2691 -0.1842
 6999SOL    HW121575   5.294   8.217   7.159  0.2830 -1.0868 -1.7350
 6999SOL    HW221576   5.213   8.218   7.031 -1.9373  1.0793 -0.3948
 7000SOL     OW21577   9.397   2.516   7.592  0.1363 -0.3183 -0.1594
 7000SOL    HW121578   9.431   2.601   7.620 -2.0245  0.0861  1.6042
 7000SOL    HW221579   9.376   2.528   7.500 -0.9326  1.4092  0.2561
 7001SOL     OW21580   0.808   2.779   8.776  0.1231  0.0517 -0.3145
 7001SOL    HW121581   0.792   2.725   8.699 -1.9433 -0.4557  0.4110
 7001SOL    HW221582   0.768   2.731   8.848  0.5773  1.2847  0.8106
 7002SOL     OW21583   9.886   2.484   5.294  0.1281  0.0244  0.6070
 7002SOL    HW121584   9.813   2.474   5.234  1.3898 -1.6419 -0.7520
 7002SOL    HW221585   9.846   2.475   5.381 -1.2481 -1.1822 -0.1019
 7003SOL     OW21586   4.703   0.526   4.511 -0.0060 -0.2792 -0.3055
 7003SOL    HW121587   4.765   0.453   4.503 -0.8516 -1.0336 -0.1569
 7003SOL    HW221588   4.623   0.494   4.469 -0.7123  0.1677  0.6655
 7004SOL     OW21589   2.047   0.173   3.457  0.2124 -0.6019 -0.6407
 7004SOL    HW121590   2.039   0.135   3.369 -2.2715 -1.7805 -0.0017
 7004SOL    HW221591   1.964   0.221   3.469  0.3339 -0.7882  1.1935
 7005SOL     OW21592   3.401   7.699   9.666 -0.1317 -0.6415 -0.2187
 7005SOL    HW121593   3.352   7.780   9.662 -0.6106 -0.9653 -1.3468
 7005SOL    HW221594   3.349   7.642   9.722 -2.1115 -1.6197 -2.8428
 7006SOL     OW21595   2.642   0.888   1.509  0.3424 -0.4164  0.0375
 7006SOL    HW121596   2.697   0.913   1.584 -1.4475  1.3309  0.8723
 7006SOL    HW221597   2.556   0.870   1.547 -0.3988 -0.3107 -1.5018
 7007SOL     OW21598   7.344   0.962   5.874  0.3260 -0.2961 -0.2473
 7007SOL    HW121599   7.265   0.943   5.823 -0.2958 -1.7483  1.1677
 7007SOL    HW221600   7.371   0.877   5.909  2.6854  0.1174 -0.8674
 7008SOL     OW21601   9.697   0.744   5.014 -0.4162 -0.0071  0.6536
 7008SOL    HW121602   9.677   0.791   4.933 -1.3936  1.3106  1.6109
 7008SOL    HW221603   9.616   0.698   5.036  0.3144 -1.6151  0.1078
 7009SOL     OW21604   1.027   9.679   1.204  0.6356  0.3044  0.3180
 7009SOL    HW121605   1.103   9.694   1.260 -0.4226  0.6631  1.6857
 7009SOL    HW221606   0.962   9.743   1.232 -0.5939 -0.7292 -0.0580
 7010SOL     OW21607   5.663   1.260   3.184  0.2781  0.0323 -0.5704
 7010SOL    HW121608   5.586   1.238   3.237 -0.4839  0.4223 -1.4964
 7010SOL    HW221609   5.706   1.176   3.169  3.0713  0.2183  4.3458
 7011SOL     OW21610   0.406   2.156   4.063  0.4066 -0.3335 -0.2973
 7011SOL    HW121611   0.353   2.186   4.137  0.9858 -2.4524  1.0510
 7011SOL    HW221612   0.463   2.230   4.044 -0.9868  0.9145  0.1654
 7012SOL     OW21613   3.069   2.527   5.284 -0.2331 -0.9874 -0.6379
 7012SOL    HW121614   3.027   2.612   5.298  1.0374 -0.3065 -0.8238
 7012SOL    HW221615   3.105   2.504   5.369  0.2719 -0.8647 -0.8166
 7013SOL     OW21616   8.603   3.683   0.592  0.3005 -0.2216  0.5818
 7013SOL    HW121617   8.624   3.653   0.503 -0.4932  0.1217  0.2672
 7013SOL    HW221618   8.649   3.766   0.601 -1.8593  1.2019 -0.5925
 7014SOL     OW21619   8.913   3.674   5.947 -0.2597  0.0824  0.2704
 7014SOL    HW121620   8.893   3.581   5.948 -0.9025  0.2094  0.9901
 7014SOL    HW221621   8.999   3.681   5.988 -0.2292 -0.1960  0.2526
 7015SOL     OW21622   1.406   2.978   7.234 -0.4131 -0.6435  0.0650
 7015SOL    HW121623   1.468   2.923   7.282  2.3108  0.9416 -1.3996
 7015SOL    HW221624   1.398   2.935   7.149  2.7149  1.5922 -1.5617
 7016SOL     OW21625   2.652   4.661   2.698 -0.0687  0.0842 -0.1280
 7016SOL    HW121626   2.685   4.626   2.781 -0.3152  1.8740  0.7808
 7016SOL    HW221627   2.683   4.751   2.697 -0.3884  0.2036 -1.8335
 7017SOL     OW21628   0.479   5.208   8.857 -0.1326  0.7740  0.1963
 7017SOL    HW121629   0.472   5.289   8.909 -0.8128  2.2212 -1.9870
 7017SOL    HW221630   0.453   5.235   8.768 -2.8818 -2.3701 -0.1548
 7018SOL     OW21631   2.622   3.231   3.978 -0.3993  0.2843  0.3218
 7018SOL    HW121632   2.629   3.288   3.901 -2.0344  0.9881  0.6401
 7018SOL    HW221633   2.648   3.144   3.946 -1.5102  0.4547 -1.1897
 7019SOL     OW21634   3.181   4.352   1.127  0.4727 -0.2568 -0.4706
 7019SOL    HW121635   3.185   4.303   1.209 -2.8751  1.0256  0.6237
 7019SOL    HW221636   3.180   4.444   1.153  1.7840  0.2836 -2.1613
 7020SOL     OW21637   4.837   2.261   2.211  0.5036 -0.1715 -0.3001
 7020SOL    HW121638   4.745   2.286   2.212  0.5959  0.1420  0.9292
 7020SOL    HW221639   4.882   2.332   2.256  1.4999  0.1813 -1.7830
 7021SOL     OW21640   2.930   9.686   4.925 -0.4368 -0.0549 -0.9366
 7021SOL    HW121641   2.851   9.632   4.937  0.1021 -0.9299 -1.2450
 7021SOL    HW221642   2.927   9.712   4.833 -1.0517  1.0291 -0.6232
 7022SOL     OW21643   5.825   3.180   6.436 -0.3379 -0.4500  0.2920
 7022SOL    HW121644   5.833   3.267   6.397  0.2465 -0.5056  0.2861
 7022SOL    HW221645   5.857   3.191   6.526  1.4627 -1.0502 -0.2432
 7023SOL     OW21646   7.849   0.169   3.596  0.9116  0.2191 -0.7040
 7023SOL    HW121647   7.825   0.090   3.644 -0.7007  0.2198 -1.4304
 7023SOL    HW221648   7.944   0.163   3.585  0.9925 -0.9263  0.4259
 7024SOL     OW21649   3.500   7.389   9.558  0.0273  0.5220  0.1291
 7024SOL    HW121650   3.533   7.357   9.642  1.4908  1.3690 -0.0944
 7024SOL    HW221651   3.433   7.326   9.533 -1.3165  0.8991  2.4968
 7025SOL     OW21652   3.809   5.511   2.093 -0.1704 -0.2296  0.4911
 7025SOL    HW121653   3.716   5.491   2.087  0.5064 -4.0508  0.3319
 7025SOL    HW221654   3.818   5.560   2.175 -2.2302 -0.1791  0.7446
 7026SOL     OW21655   1.337   1.808   6.353  0.0770 -0.3283  0.1615
 7026SOL    HW121656   1.411   1.844   6.303 -1.3483  2.6784  0.0091
 7026SOL    HW221657   1.286   1.759   6.288  0.7254 -0.4868 -0.2397
 7027SOL     OW21658   4.674   8.965   2.244  0.0660 -0.0693 -0.2078
 7027SOL    HW121659   4.758   8.956   2.288  0.7101 -2.1373 -1.6973
 7027SOL    HW221660   4.645   9.054   2.264  1.9020  0.1976  1.5104
 7028SOL     OW21661   9.815   6.549   7.108 -0.3958 -0.7143  0.8257
 7028SOL    HW121662   9.749   6.574   7.172  0.2652  0.8195  0.9618
 7028SOL    HW221663   9.766   6.530   7.029 -1.1201 -1.3272  1.4036
 7029SOL     OW21664   1.226   6.446   5.488 -0.0495 -0.2269 -0.0322
 7029SOL    HW121665   1.310   6.489   5.507 -0.0426  0.0785 -0.7322
 7029SOL    HW221666   1.162   6.517   5.490  0.0446 -0.0628 -1.7847
 7030SOL     OW21667   6.759   1.385   7.716 -0.1425 -0.1414 -0.1323
 7030SOL    HW121668   6.664   1.396   7.708  0.0998  4.0848  0.3507
 7030SOL    HW221669   6.769   1.316   7.782 -2.8771 -0.1767  0.3859
 7031SOL     OW21670   5.377   2.557   9.041  0.3220 -0.0235 -0.1719
 7031SOL    HW121671   5.342   2.478   9.000 -0.6205 -0.6073  1.6333
 7031SOL    HW221672   5.310   2.624   9.025 -0.4436 -0.4650  1.0551
 7032SOL     OW21673   0.982   6.973   0.014 -0.1121  0.1356  0.0015
 7032SOL    HW121674   1.054   6.933   0.063  3.1125  0.8536 -3.7324
 7032SOL    HW221675   0.990   7.066   0.031 -0.5672  0.1719  0.0284
 7033SOL     OW21676   4.486   9.476   1.252 -0.0238 -0.2231  0.2020
 7033SOL    HW121677   4.537   9.511   1.179  1.3702 -1.7148  0.4143
 7033SOL    HW221678   4.408   9.532   1.256  0.6271  0.8574 -1.4135
 7034SOL     OW21679   6.023   6.239   5.871  0.1781 -0.0602  0.2541
 7034SOL    HW121680   5.947   6.254   5.816 -0.7978 -0.0998  1.5324
 7034SOL    HW221681   6.022   6.311   5.934  2.6537  1.3664 -1.1857
 7035SOL     OW21682   0.286   7.374   7.973 -0.3300 -0.1281  0.0701
 7035SOL    HW121683   0.352   7.305   7.974  1.2199  1.2806  1.4329
 7035SOL    HW221684   0.262   7.385   8.065  1.0355  2.5137  0.2133
 7036SOL     OW21685   2.106   0.637   4.685 -0.6503  0.1932  0.5882
 7036SOL    HW121686   2.150   0.689   4.752 -2.0511  0.9945  0.9080
 7036SOL    HW221687   2.152   0.658   4.604 -0.4355  1.0008  0.9124
 7037SOL     OW21688   0.664   1.465   4.309 -0.5860 -0.0779  0.6463
 7037SOL    HW121689   0.679   1.456   4.403  1.3398 -0.9439  0.2889
 7037SOL    HW221690   0.679   1.557   4.291 -0.5637  0.0134  1.1188
 7038SOL     OW21691   2.992   4.814   1.728 -0.2568 -0.4056 -0.5018
 7038SOL    HW121692   3.048   4.741   1.756 -0.2180 -0.8344 -1.6068
 7038SOL    HW221693   2.963   4.788   1.640 -1.0964  0.4381 -0.4848
 7039SOL     OW21694   4.570   6.063   0.553 -0.0278  0.3536 -0.0253
 7039SOL    HW121695   4.662   6.086   0.537 -0.4743  2.7713  0.3682
 7039SOL    HW221696   4.527   6.077   0.469  0.0024 -1.1616 -0.3110
 7040SOL     OW21697   1.069   4.219   0.316  0.2151 -0.1559  0.1764
 7040SOL    HW121698   1.116   4.176   0.387 -0.1314 -0.0679  0.4613
 7040SOL    HW221699   1.110   4.185   0.237 -0.7179 -1.8260  0.3460
 7041SOL     OW21700   3.223   7.315   2.075  0.3944  0.3316 -0.1306
 7041SOL    HW121701   3.264   7.280   1.996  2.4595  3.0089 -0.4057
 7041SOL    HW221702   3.145   7.362   2.043 -1.1876 -2.0233  0.0151
 7042SOL     OW21703   9.180   7.727   8.819 -0.1728  0.3502  0.1001
 7042SOL    HW121704   9.236   7.741   8.742  2.2388 -0.7433  1.5498
 7042SOL    HW221705   9.241   7.708   8.890 -2.3176  1.4247  2.3537
 7043SOL     OW21706   3.227   9.348   5.384  0.1273 -0.3904  0.3912
 7043SOL    HW121707   3.295   9.346   5.317 -0.6901  1.3547 -0.5488
 7043SOL    HW221708   3.263   9.296   5.456  2.3426  0.2523 -0.1730
 7044SOL     OW21709   8.261   6.154   3.124 -0.0700  0.0731  0.5629
 7044SOL    HW121710   8.266   6.067   3.162  1.3047  0.0512  0.3838
 7044SOL    HW221711   8.351   6.185   3.123 -0.3192  0.8461 -0.8903
 7045SOL     OW21712   2.562   5.531   5.556  0.5809 -0.1086 -0.1071
 7045SOL    HW121713   2.568   5.501   5.647  1.2474 -0.9626 -0.4185
 7045SOL    HW221714   2.482   5.491   5.523  0.3409  0.1977  0.0956
 7046SOL     OW21715   9.166   9.885   7.059  0.0293 -0.0993 -0.4167
 7046SOL    HW121716   9.109   9.956   7.030 -0.4933 -0.0958  0.5825
 7046SOL    HW221717   9.255   9.921   7.050 -0.2285  0.7423  0.1904
 7047SOL     OW21718   9.733   4.767   9.693  0.6014  0.3299 -0.7180
 7047SOL    HW121719   9.745   4.672   9.695  0.4620  0.2912 -1.4017
 7047SOL    HW221720   9.688   4.783   9.610  1.8945  1.1320 -1.2869
 7048SOL     OW21721   4.392   5.909   4.382  0.4697  0.1539 -0.5023
 7048SOL    HW121722   4.314   5.962   4.366  0.4387 -0.4457 -2.8239
 7048SOL    HW221723   4.405   5.911   4.476 -2.1361  0.5780 -0.0911
 7049SOL     OW21724   0.574   8.333   9.291 -0.5648  0.2267 -0.4628
 7049SOL    HW121725   0.642   8.388   9.330  1.0022 -0.5449 -1.9673
 7049SOL    HW221726   0.528   8.390   9.230  0.3440  0.1595 -1.2207
 7050SOL     OW21727   0.870   5.588   6.221  0.1947  0.2783  0.2599
 7050SOL    HW121728   0.942   5.536   6.187  0.3520  0.5378  0.1882
 7050SOL    HW221729   0.892   5.602   6.313  0.0166 -0.0098  0.3466
 7051SOL     OW21730   2.230   5.915   4.773 -0.0206  0.0391 -0.0281
 7051SOL    HW121731   2.142   5.943   4.798  0.4093  0.0040  1.5863
 7051SOL    HW221732   2.278   5.997   4.759  0.1321  0.0804  0.7147
 7052SOL     OW21733   1.589   6.292   2.379  0.4238 -0.1752  0.0464
 7052SOL    HW121734   1.546   6.244   2.308  0.5172 -0.1795 -0.0084
 7052SOL    HW221735   1.681   6.296   2.352  0.5591 -0.6491  0.4293
 7053SOL     OW21736   0.383   0.358   6.198 -0.5180 -0.2463 -0.6144
 7053SOL    HW121737   0.336   0.284   6.236 -0.4994  0.4191  0.7582
 7053SOL    HW221738   0.314   0.414   6.162 -0.6967  0.0790  0.2140
 7054SOL     OW21739   9.711   0.756   4.057  0.0304  0.0617  0.2939
 7054SOL    HW121740   9.742   0.840   4.091  0.7447  0.0957 -0.4189
 7054SOL    HW221741   9.766   0.691   4.101  2.0736  0.1797 -1.8647
 7055SOL     OW21742   9.825   9.798   7.442  0.5471  0.1426 -0.3348
 7055SOL    HW121743   9.822   9.882   7.487 -0.3172 -0.2238  0.3071
 7055SOL    HW221744   9.882   9.814   7.367  1.7869  0.8498  0.7033
 7056SOL     OW21745   2.590   4.529   6.016  1.0283  0.3240  0.2807
 7056SOL    HW121746   2.660   4.529   6.082  0.5570 -2.3557  0.9149
 7056SOL    HW221747   2.512   4.553   6.065  0.7112 -1.4832  0.7342
 7057SOL     OW21748   2.653   8.305   1.632 -0.5149  0.0468  0.4062
 7057SOL    HW121749   2.696   8.233   1.585  0.1079 -0.5518  1.8425
 7057SOL    HW221750   2.576   8.265   1.671 -2.0963  0.9682 -1.5809
 7058SOL     OW21751   6.104   1.353   4.568  0.5047 -0.5767  0.6386
 7058SOL    HW121752   6.086   1.341   4.661  0.0103 -0.9543  0.5004
 7058SOL    HW221753   6.108   1.264   4.533  2.1457 -0.4897  0.5618
 7059SOL     OW21754   6.080   1.969   8.011 -0.4112  0.6481 -0.4996
 7059SOL    HW121755   6.068   2.062   8.031  0.7609  0.6371  0.3102
 7059SOL    HW221756   6.122   1.968   7.926  2.5249  1.0185  0.8401
 7060SOL     OW21757   1.443   7.897   2.407 -0.5555  0.1250  0.4648
 7060SOL    HW121758   1.383   7.826   2.434 -0.1545 -0.4657 -0.1548
 7060SOL    HW221759   1.490   7.860   2.332 -0.9912  1.3883 -0.4495
 7061SOL     OW21760   0.544   6.184   8.702 -0.1467  0.0143 -0.1791
 7061SOL    HW121761   0.579   6.226   8.624 -0.4891  1.2427  0.2996
 7061SOL    HW221762   0.529   6.093   8.677 -0.2225  0.3863 -1.5127
 7062SOL     OW21763   4.734   9.002   9.780 -0.0910  0.3467 -0.3160
 7062SOL    HW121764   4.645   9.031   9.762 -0.8409 -0.9791  1.0459
 7062SOL    HW221765   4.739   8.998   9.876  1.1289 -0.4530 -0.3887
 7063SOL     OW21766   1.747   7.138   5.350  0.3189  0.6725 -0.0966
 7063SOL    HW121767   1.694   7.205   5.393  1.1658  0.2886  1.6086
 7063SOL    HW221768   1.731   7.058   5.401 -0.1500 -0.2950 -1.6790
 7064SOL     OW21769   6.084   9.519   9.693  0.6560  0.0904  0.6795
 7064SOL    HW121770   6.091   9.539   9.786  0.3008 -0.5959  0.8586
 7064SOL    HW221771   6.003   9.561   9.665 -1.2179 -2.6422  1.5145
 7065SOL     OW21772   1.273   3.772   6.248 -0.9314 -0.2481 -0.4694
 7065SOL    HW121773   1.245   3.837   6.184 -3.1138 -1.1086 -0.4887
 7065SOL    HW221774   1.211   3.700   6.237 -0.7730 -0.8286  1.9408
 7066SOL     OW21775   3.758   0.990   8.177 -0.8007  0.0982 -0.3010
 7066SOL    HW121776   3.687   1.041   8.215 -1.7284 -2.3164  1.4591
 7066SOL    HW221777   3.787   1.042   8.102 -3.1071  2.0973  0.0628
 7067SOL     OW21778   4.393   0.896   0.918  0.2171 -0.5958  0.0692
 7067SOL    HW121779   4.466   0.932   0.969 -0.4499 -0.6863  1.1293
 7067SOL    HW221780   4.369   0.967   0.858 -1.5188  1.1321  2.5679
 7068SOL     OW21781   3.923   5.437   4.980 -0.4288 -0.2572  0.2258
 7068SOL    HW121782   3.984   5.508   4.960 -0.4547 -0.0251  0.9210
 7068SOL    HW221783   3.979   5.359   4.987 -0.4103 -0.3199 -0.6099
 7069SOL     OW21784   7.405   9.098   3.137 -0.0043  0.3846  0.1121
 7069SOL    HW121785   7.405   9.005   3.157 -1.6932  0.7411  2.0175
 7069SOL    HW221786   7.367   9.140   3.214 -0.2797  2.5647 -1.1257
 7070SOL     OW21787   1.179   8.582   1.610  0.4403 -0.3952  0.2409
 7070SOL    HW121788   1.117   8.593   1.682 -0.0133 -0.0986 -0.1945
 7070SOL    HW221789   1.264   8.572   1.654  0.6529  2.7441  0.7769
 7071SOL     OW21790   2.890   6.052   9.541 -0.3529  0.1946 -0.4472
 7071SOL    HW121791   2.920   5.987   9.605 -1.4399  0.4520  0.3624
 7071SOL    HW221792   2.831   6.004   9.483 -0.8541  0.3594 -0.0834
 7072SOL     OW21793   4.465   7.209   4.658 -0.4334 -0.2833 -0.3907
 7072SOL    HW121794   4.493   7.153   4.586 -0.1077 -0.4456 -0.1380
 7072SOL    HW221795   4.378   7.175   4.681 -0.5717 -0.1839 -0.7505
 7073SOL     OW21796   9.597   9.769   8.377  0.1474 -0.2023  0.0135
 7073SOL    HW121797   9.553   9.701   8.427 -0.0714 -0.0147  0.0756
 7073SOL    HW221798   9.597   9.737   8.286 -0.8842  0.1891 -0.1298
 7074SOL     OW21799   6.353   6.163   7.380  0.0863 -0.5103 -0.0780
 7074SOL    HW121800   6.359   6.128   7.291 -2.6268 -0.4271 -0.3913
 7074SOL    HW221801   6.333   6.256   7.367  1.9602  0.0269  0.6818
 7075SOL     OW21802   6.442   9.387   8.559 -0.2050  0.3924  0.9998
 7075SOL    HW121803   6.481   9.472   8.537  0.4278 -0.4605 -1.4296
 7075SOL    HW221804   6.348   9.403   8.551 -0.1088  0.9311  0.8424
 7076SOL     OW21805   6.425   3.622   4.065 -0.4280  0.1634  0.4153
 7076SOL    HW121806   6.519   3.639   4.073  0.0321 -2.0313  0.0937
 7076SOL    HW221807   6.408   3.548   4.123 -1.7767 -0.0617 -0.2158
 7077SOL     OW21808   4.999   9.975   7.297 -0.4423 -0.1603  0.3790
 7077SOL    HW121809   4.936   9.951   7.230 -1.0579 -0.0814  0.9180
 7077SOL    HW221810   5.083   9.978   7.251 -0.8178 -0.3160 -0.3343
 7078SOL     OW21811   3.764   6.693   9.335  0.1739  0.1008 -0.3844
 7078SOL    HW121812   3.854   6.709   9.362  1.2589 -1.0735 -3.0014
 7078SOL    HW221813   3.714   6.763   9.377  2.6849  2.3830 -0.9288
 7079SOL     OW21814   9.149   4.696   3.408 -0.2294  0.7572 -0.7205
 7079SOL    HW121815   9.075   4.671   3.464  0.1143 -0.3845 -0.7468
 7079SOL    HW221816   9.200   4.616   3.399  0.5958  1.3375 -1.3488
 7080SOL     OW21817   7.161   1.033   1.915  0.1726 -0.8654  0.3899
 7080SOL    HW121818   7.217   1.107   1.936 -0.0091 -1.1942  2.2239
 7080SOL    HW221819   7.221   0.963   1.890  0.5221 -0.8449  1.1404
 7081SOL     OW21820   9.759   2.459   4.334 -0.0921 -0.1284 -0.0955
 7081SOL    HW121821   9.684   2.496   4.381  0.0226  1.5711 -1.1650
 7081SOL    HW221822   9.742   2.479   4.242 -0.6893 -3.9886 -1.0088
 7082SOL     OW21823   8.953   7.254   7.973 -0.2466  0.2037  0.4644
 7082SOL    HW121824   8.872   7.298   7.949  0.7917  1.0804 -1.7882
 7082SOL    HW221825   9.021   7.320   7.960  1.1302 -1.3646 -0.8121
 7083SOL     OW21826   1.410   8.315   8.178  0.9504 -0.0939  0.3867
 7083SOL    HW121827   1.413   8.303   8.083  0.4085  1.7295  0.0924
 7083SOL    HW221828   1.326   8.278   8.205  0.4338  0.6967 -0.0898
 7084SOL     OW21829   6.702   4.664   2.673  0.2108  0.6241 -0.1555
 7084SOL    HW121830   6.755   4.672   2.594  0.2444  0.7000 -0.1260
 7084SOL    HW221831   6.746   4.721   2.736 -0.8224  1.9936 -0.6239
 7085SOL     OW21832   3.833   4.417   6.266 -0.1575 -0.2819  0.1456
 7085SOL    HW121833   3.855   4.426   6.173  0.3146 -2.3413 -0.0061
 7085SOL    HW221834   3.914   4.389   6.307 -0.8250 -1.3730  0.7864
 7086SOL     OW21835   8.859   6.135   8.839 -0.0895  0.4089 -0.1829
 7086SOL    HW121836   8.888   6.045   8.854  1.3591  0.8438 -0.2153
 7086SOL    HW221837   8.939   6.188   8.846 -0.9239  1.7097 -0.0594
 7087SOL     OW21838   1.286   5.108   6.285  0.0174  0.3723 -0.3248
 7087SOL    HW121839   1.230   5.123   6.361  0.2486  1.1045 -0.2880
 7087SOL    HW221840   1.231   5.057   6.225 -0.1279 -0.2939  0.3651
 7088SOL     OW21841   3.205   4.004   9.271  0.2695 -0.1885 -0.4800
 7088SOL    HW121842   3.181   3.991   9.180  1.2380 -1.4967 -0.5794
 7088SOL    HW221843   3.121   4.017   9.317 -0.3406 -0.9607 -1.3399
 7089SOL     OW21844   0.887   2.466   1.729  0.0473 -0.2323  0.2622
 7089SOL    HW121845   0.800   2.496   1.753 -0.4861 -0.8614 -0.8106
 7089SOL    HW221846   0.873   2.408   1.654  1.4915  0.6399 -0.7482
 7090SOL     OW21847   1.815   7.808   1.272 -0.1371  1.2057 -0.2067
 7090SOL    HW121848   1.741   7.839   1.219  0.1995  0.9336 -0.8569
 7090SOL    HW221849   1.875   7.882   1.275  0.3079  0.9009 -1.0920
 7091SOL     OW21850   5.498   9.640   9.959 -0.0139 -0.5037  0.7770
 7091SOL    HW121851   5.463   9.646   9.870  1.7406  0.2174  0.0877
 7091SOL    HW221852   5.456   9.712  10.006 -1.0397 -0.9579  0.5855
 7092SOL     OW21853   5.777   7.056   8.844 -0.0737  0.0957 -0.2187
 7092SOL    HW121854   5.742   7.096   8.764 -1.0476  0.4402  0.3664
 7092SOL    HW221855   5.856   7.106   8.862  0.4181 -0.2843 -1.2122
 7093SOL     OW21856   1.422   7.814   5.214  0.0261  0.4511 -0.1880
 7093SOL    HW121857   1.478   7.860   5.277 -1.3567  2.1741 -0.1219
 7093SOL    HW221858   1.344   7.791   5.265  0.3001 -1.1926 -0.4716
 7094SOL     OW21859   1.342   6.537   9.366  0.2587  1.1067 -0.1534
 7094SOL    HW121860   1.267   6.495   9.409  1.0280 -0.6773 -0.4673
 7094SOL    HW221861   1.344   6.498   9.279  2.4946 -0.1101  0.3784
 7095SOL     OW21862   4.545   6.349   7.558  0.2625 -0.5990 -0.4742
 7095SOL    HW121863   4.458   6.387   7.552  0.3449 -0.5339 -1.5365
 7095SOL    HW221864   4.540   6.268   7.507  0.5971 -1.0487  0.1872
 7096SOL     OW21865   1.502   3.840   4.347  0.3230  0.4403 -0.3133
 7096SOL    HW121866   1.446   3.917   4.340 -0.8087 -0.1545  1.4243
 7096SOL    HW221867   1.554   3.856   4.426  0.6673 -0.2110 -0.4008
 7097SOL     OW21868   9.890   2.268   4.942 -0.1901  0.1799 -0.3376
 7097SOL    HW121869   9.926   2.243   5.027  1.7458  0.2550 -1.0644
 7097SOL    HW221870   9.964   2.310   4.897 -0.8649 -0.7335 -2.4035
 7098SOL     OW21871   7.072   8.648   8.221  0.1228  0.0453  0.8609
 7098SOL    HW121872   7.059   8.742   8.207  0.9793  0.0399 -0.1324
 7098SOL    HW221873   7.140   8.643   8.288  0.8662  0.1593  0.1306
 7099SOL     OW21874   5.477   0.480   0.597  0.3857  0.1795  0.3044
 7099SOL    HW121875   5.551   0.456   0.541 -0.6347  1.3656 -1.6713
 7099SOL    HW221876   5.456   0.570   0.573 -1.4664  0.0055  1.0553
 7100SOL     OW21877   0.792   9.373   5.026 -0.6144 -0.0050  0.1511
 7100SOL    HW121878   0.755   9.447   4.978 -1.6779 -1.1070 -0.7913
 7100SOL    HW221879   0.846   9.327   4.961  2.3605  1.4133  1.4142
 7101SOL     OW21880   9.088   1.463   2.730  0.2816  0.0596 -0.2618
 7101SOL    HW121881   9.171   1.415   2.731  0.3604  0.1455 -1.4345
 7101SOL    HW221882   9.045   1.434   2.650 -1.1071 -0.4448  0.6223
 7102SOL     OW21883   3.444   0.234   3.476 -0.0271  0.1755 -0.1196
 7102SOL    HW121884   3.500   0.303   3.510  1.1781  0.2608 -2.1191
 7102SOL    HW221885   3.372   0.280   3.432  0.6044  0.1876 -1.1723
 7103SOL     OW21886   8.920   1.200   3.489  0.1177  0.0350 -0.2417
 7103SOL    HW121887   8.966   1.278   3.457 -1.1796  0.6455 -0.7117
 7103SOL    HW221888   8.959   1.127   3.440  2.2626  0.1530  1.1352
 7104SOL     OW21889   5.642   3.637   8.135  0.2871 -0.1660 -0.1432
 7104SOL    HW121890   5.694   3.712   8.166  0.4328 -0.3984  0.1862
 7104SOL    HW221891   5.552   3.670   8.131  0.4507  0.2233 -0.6603
 7105SOL     OW21892   2.159   6.273   9.530  0.0961 -0.2940 -0.1852
 7105SOL    HW121893   2.154   6.354   9.480  3.4913 -0.1717 -0.5643
 7105SOL    HW221894   2.131   6.297   9.618  0.3888  1.1230 -0.4627
 7106SOL     OW21895   9.559   0.864   7.375 -0.3593 -0.3360  0.0348
 7106SOL    HW121896   9.639   0.870   7.427  0.9665 -0.3410 -1.9087
 7106SOL    HW221897   9.516   0.949   7.389  1.1212  0.5659 -0.5957
 7107SOL     OW21898   0.963   0.676   9.417 -0.1755  0.4884 -0.5346
 7107SOL    HW121899   0.946   0.610   9.349  0.2679 -0.9078  0.6583
 7107SOL    HW221900   0.975   0.758   9.368  0.0631 -0.4490 -2.1311
 7108SOL     OW21901   1.176   7.636   3.685 -0.4850  0.0932 -0.3019
 7108SOL    HW121902   1.238   7.571   3.719 -0.5149  0.1029 -0.2309
 7108SOL    HW221903   1.091   7.593   3.690 -0.2141 -0.8856 -2.6861
 7109SOL     OW21904   9.331   0.923   3.503  0.3673 -0.4803  0.4646
 7109SOL    HW121905   9.322   1.013   3.473  1.6078  0.5365  2.8777
 7109SOL    HW221906   9.345   0.872   3.422 -0.6779  1.3836 -0.9735
 7110SOL     OW21907   1.004   8.269   4.349  0.3379 -0.1885  0.0565
 7110SOL    HW121908   1.011   8.235   4.438  0.0165  1.6451  0.8410
 7110SOL    HW221909   0.915   8.247   4.321 -0.1575  0.6957  0.8782
 7111SOL     OW21910   4.052   7.412   9.475 -0.6079  0.3032  0.3868
 7111SOL    HW121911   4.059   7.484   9.413  2.6856  1.8422  2.3074
 7111SOL    HW221912   4.027   7.336   9.421 -0.4772  2.0567 -2.3083
 7112SOL     OW21913   2.960   1.803   6.693  0.3297  0.1863  0.0729
 7112SOL    HW121914   2.868   1.802   6.720  0.1731  1.8087 -0.3370
 7112SOL    HW221915   3.007   1.759   6.764 -0.4860  1.3750  1.3839
 7113SOL     OW21916   4.910   8.383   5.590 -0.3335  0.7715 -0.6927
 7113SOL    HW121917   4.826   8.338   5.597 -1.2932  2.4111 -1.0094
 7113SOL    HW221918   4.958   8.357   5.668 -0.8857 -0.6566 -0.7958
 7114SOL     OW21919   9.435   8.453   4.919 -0.4088  0.4216 -0.1341
 7114SOL    HW121920   9.356   8.494   4.952  0.1436 -1.2563  3.7690
 7114SOL    HW221921   9.427   8.459   4.823 -3.4434  3.4364  0.1156
 7115SOL     OW21922   1.227   6.459   5.976  0.3323 -0.3598 -0.5028
 7115SOL    HW121923   1.238   6.415   5.892 -0.3943 -1.5814  0.0281
 7115SOL    HW221924   1.136   6.488   5.976 -0.0789 -1.6161  0.4414
 7116SOL     OW21925   8.193   7.219   6.919  0.0507  0.4283  0.3127
 7116SOL    HW121926   8.217   7.299   6.872  1.8544 -0.2418 -0.0156
 7116SOL    HW221927   8.202   7.242   7.012 -0.1407  0.7949  0.2423
 7117SOL     OW21928   9.361   5.180   5.133  0.2934  0.4822 -0.1700
 7117SOL    HW121929   9.323   5.210   5.050  0.6819  0.4177 -0.3772
 7117SOL    HW221930   9.427   5.116   5.106 -0.8584 -0.9347  0.2879
 7118SOL     OW21931   2.461   0.821   0.213  0.2722  0.3967 -0.5033
 7118SOL    HW121932   2.426   0.885   0.150  1.2779  1.3832 -0.0817
 7118SOL    HW221933   2.398   0.748   0.210 -0.2142  0.8416 -1.9310
 7119SOL     OW21934   0.034   7.649   0.748 -0.1562 -0.0491 -0.3004
 7119SOL    HW121935   0.047   7.604   0.832 -0.4457 -0.1736 -0.3211
 7119SOL    HW221936   0.000   7.735   0.772  2.4960  1.0367 -0.1335
 7120SOL     OW21937   4.141   4.892   1.745  0.2067 -0.5622  0.4357
 7120SOL    HW121938   4.237   4.899   1.753  0.2939 -1.0317 -0.1106
 7120SOL    HW221939   4.127   4.876   1.651 -0.4975  0.9525  0.2462
 7121SOL     OW21940   0.873   2.012   2.044 -0.3704 -0.1098 -0.0589
 7121SOL    HW121941   0.800   2.069   2.019 -0.4628 -0.5175 -0.7502
 7121SOL    HW221942   0.833   1.945   2.099  0.0870  1.6975  2.6869
 7122SOL     OW21943   9.257   2.265   7.641 -0.1194 -0.5550 -0.1097
 7122SOL    HW121944   9.188   2.297   7.700 -0.2050 -1.4801  0.3111
 7122SOL    HW221945   9.281   2.342   7.589 -0.6216  0.0814  0.5637
 7123SOL     OW21946   4.010   3.627   8.807 -0.0458 -0.2639 -0.1581
 7123SOL    HW121947   3.964   3.697   8.760  0.4779  0.9552  1.0617
 7123SOL    HW221948   4.000   3.650   8.899 -0.0079 -1.9244  0.2863
 7124SOL     OW21949   4.451   8.605   6.951  0.4024 -0.8082 -0.1893
 7124SOL    HW121950   4.464   8.662   6.876  1.4185 -0.9277 -0.1094
 7124SOL    HW221951   4.400   8.657   7.013  1.7954  0.2158  0.1187
 7125SOL     OW21952   3.300   8.684   0.754  0.3775 -0.5995 -0.4983
 7125SOL    HW121953   3.260   8.707   0.670  0.9120 -1.6441 -1.0582
 7125SOL    HW221954   3.392   8.669   0.733  0.2134 -2.4426 -0.0355
 7126SOL     OW21955   2.766   9.423   2.523  0.1799  0.1645 -0.2802
 7126SOL    HW121956   2.797   9.468   2.602 -0.6241 -1.2481  0.8967
 7126SOL    HW221957   2.716   9.349   2.556 -0.3681 -0.3515 -2.1436
 7127SOL     OW21958   3.380   2.978   9.399  0.1777 -0.3247  0.1380
 7127SOL    HW121959   3.295   3.021   9.404  0.4994  0.2175  1.4161
 7127SOL    HW221960   3.372   2.903   9.458  1.0736  0.6563  1.5627
 7128SOL     OW21961   5.490   4.052   5.156  0.1453  0.0301 -0.1204
 7128SOL    HW121962   5.565   4.070   5.213  0.2146 -1.1848  0.1985
 7128SOL    HW221963   5.462   4.138   5.126  0.8757  0.6009  0.7740
 7129SOL     OW21964   9.493   8.533   0.514  0.1261  0.2779 -0.4906
 7129SOL    HW121965   9.494   8.510   0.421 -1.0136 -0.4678 -0.3331
 7129SOL    HW221966   9.465   8.625   0.515  0.4976  0.3977 -0.9012
 7130SOL     OW21967   0.942   5.751   1.239 -0.3205  0.0675  0.3008
 7130SOL    HW121968   1.032   5.736   1.268 -0.6753 -0.0292  1.4387
 7130SOL    HW221969   0.917   5.834   1.280 -0.9032 -0.1586  0.4152
 7131SOL     OW21970   6.633   8.256   1.222 -0.3128 -0.1295 -0.1832
 7131SOL    HW121971   6.554   8.310   1.234  1.1230  2.0263  0.1694
 7131SOL    HW221972   6.704   8.320   1.216  1.4278 -2.0145 -0.4344
 7132SOL     OW21973   7.769   8.003   5.345  0.1460  0.4722  0.1799
 7132SOL    HW121974   7.839   7.966   5.291  0.8848 -0.9320  1.9798
 7132SOL    HW221975   7.693   7.949   5.328  0.0388  0.7775 -0.3243
 7133SOL     OW21976   1.953   9.127   5.526 -0.2173 -0.4024  0.0791
 7133SOL    HW121977   2.022   9.176   5.481  0.2726 -0.7076  0.4910
 7133SOL    HW221978   1.962   9.151   5.618 -2.1631  1.3702 -0.1207
 7134SOL     OW21979   6.494   4.799   3.855 -0.0435 -0.5605  0.3089
 7134SOL    HW121980   6.512   4.723   3.801  1.0038  0.7969 -1.3528
 7134SOL    HW221981   6.579   4.840   3.869 -0.8216  1.7487 -1.1157
 7135SOL     OW21982   7.773   4.617   4.532  0.4541  0.2320 -0.6587
 7135SOL    HW121983   7.752   4.708   4.550 -0.2687 -0.0351 -0.1177
 7135SOL    HW221984   7.747   4.604   4.441  0.9852  0.6818 -0.8809
 7136SOL     OW21985   1.881   8.566   1.997  0.2031  0.2092 -0.0923
 7136SOL    HW121986   1.812   8.632   2.001  0.5598  0.6412 -0.8074
 7136SOL    HW221987   1.950   8.598   2.055  0.2508  0.3158 -0.2077
 7137SOL     OW21988   8.472   6.025   1.707 -0.7656  0.2110 -0.0334
 7137SOL    HW121989   8.425   5.976   1.775 -3.0711  1.8908 -0.2996
 7137SOL    HW221990   8.564   5.998   1.718 -1.2607 -0.7487  2.7194
 7138SOL     OW21991   8.416   5.970   5.769  0.3080  0.3641 -0.3724
 7138SOL    HW121992   8.387   6.034   5.704 -0.9274  0.2969  0.0700
 7138SOL    HW221993   8.382   5.887   5.738  2.2957 -0.2084 -1.1816
 7139SOL     OW21994   8.351   1.393   9.924  0.0455  0.3195 -0.0625
 7139SOL    HW121995   8.300   1.391  10.005  0.7966  0.8515  0.4348
 7139SOL    HW221996   8.291   1.358   9.857 -1.6262  2.5978  0.1287
 7140SOL     OW21997   4.537   5.787   1.870 -0.3957  0.1322  0.1371
 7140SOL    HW121998   4.547   5.847   1.944 -0.8263  0.1362  0.1931
 7140SOL    HW221999   4.592   5.712   1.891 -0.9062 -0.0923  0.7015
 7141SOL     OW22000   6.036   4.529   9.855 -0.2352 -0.1776 -0.1224
 7141SOL    HW122001   6.070   4.554   9.769 -0.7037 -0.5031 -0.4029
 7141SOL    HW222002   6.096   4.572   9.917  1.3248 -1.5766 -0.5964
 7142SOL     OW22003   9.036   8.076   0.562  0.0094 -0.3237  0.1964
 7142SOL    HW122004   9.038   7.995   0.614 -1.3874 -0.0192  0.7637
 7142SOL    HW222005   9.033   8.146   0.627  0.2389  0.1489 -0.2994
 7143SOL     OW22006   0.215   3.764   7.236  0.1660 -0.3401  0.0924
 7143SOL    HW122007   0.272   3.838   7.255  0.6122 -0.7197  0.2436
 7143SOL    HW222008   0.255   3.690   7.281 -0.3745 -0.6392  0.0930
 7144SOL     OW22009   2.080   6.681   3.814  0.8508  0.2054  0.3656
 7144SOL    HW122010   2.101   6.656   3.903 -0.1622  0.9892  0.8462
 7144SOL    HW222011   2.044   6.602   3.774 -2.1805  0.7020  1.8232
 7145SOL     OW22012   7.530   5.663   2.655  0.3020 -0.0217 -0.6507
 7145SOL    HW122013   7.465   5.619   2.600 -0.8674 -1.8236  1.9619
 7145SOL    HW222014   7.590   5.594   2.682 -1.4010 -0.2355  3.3280
 7146SOL     OW22015   2.164   7.864   7.377  0.7010 -0.6029  0.0378
 7146SOL    HW122016   2.160   7.959   7.390  0.6111 -0.7339  0.9683
 7146SOL    HW222017   2.164   7.827   7.465 -0.0598 -1.5064 -0.3338
 7147SOL     OW22018   9.745   7.184   2.182 -0.8312  0.5250  0.3733
 7147SOL    HW122019   9.740   7.090   2.166 -1.0840  0.8323 -1.5717
 7147SOL    HW222020   9.833   7.198   2.218  0.2697 -0.1483 -1.9079
 7148SOL     OW22021   5.746   3.299   6.880 -0.9327  0.0240 -0.3235
 7148SOL    HW122022   5.793   3.298   6.797 -1.3025  2.2095 -0.6188
 7148SOL    HW222023   5.814   3.290   6.946 -0.2182  1.6482 -0.7938
 7149SOL     OW22024   3.633   9.048   5.778 -0.2467  0.1742  0.5376
 7149SOL    HW122025   3.569   9.003   5.722 -0.5198 -0.6869  1.5157
 7149SOL    HW222026   3.583   9.120   5.818 -0.5767 -0.4207  1.2029
 7150SOL     OW22027   1.335   7.914   3.938  0.1067 -0.3472 -0.2305
 7150SOL    HW122028   1.397   7.930   4.009 -0.3932  0.5478  0.0201
 7150SOL    HW222029   1.327   7.998   3.893 -0.1165 -0.7240 -0.9178
 7151SOL     OW22030   9.025   6.932   0.480  0.6336  0.0843  0.5581
 7151SOL    HW122031   8.938   6.898   0.459  1.1113 -0.7026 -0.2289
 7151SOL    HW222032   9.018   7.027   0.469 -0.0619 -0.0022  0.2613
 7152SOL     OW22033   2.231   8.072   4.328 -0.2107 -0.6002 -0.1066
 7152SOL    HW122034   2.181   8.073   4.410 -1.5470 -1.4934 -0.8768
 7152SOL    HW222035   2.313   8.027   4.351 -0.8586 -1.4623  0.6017
 7153SOL     OW22036   8.625   7.416   0.757 -0.0975  0.5647  0.0241
 7153SOL    HW122037   8.575   7.451   0.831 -1.4130 -2.3473  0.6654
 7153SOL    HW222038   8.644   7.325   0.782  0.6295 -0.1051 -2.6525
 7154SOL     OW22039   8.450   2.016   1.572 -0.2675  0.2477  0.0534
 7154SOL    HW122040   8.413   2.073   1.639 -0.6655  0.3593 -0.2566
 7154SOL    HW222041   8.517   2.070   1.528  2.5562 -0.8681  2.5996
 7155SOL     OW22042   0.245   7.722   6.260 -0.6148 -0.1097  0.1253
 7155SOL    HW122043   0.218   7.638   6.223 -0.5741 -0.1162  0.1109
 7155SOL    HW222044   0.334   7.709   6.290 -1.1260 -0.5277  1.5499
 7156SOL     OW22045   7.918   0.277   7.066 -0.6978 -0.3435 -0.4759
 7156SOL    HW122046   7.959   0.282   6.979  0.5645 -1.4450  0.0064
 7156SOL    HW222047   7.824   0.279   7.049 -0.4714 -0.5439 -1.8816
 7157SOL     OW22048   4.745   0.730   6.346  0.2058  0.0115 -0.0779
 7157SOL    HW122049   4.840   0.724   6.338  0.1095 -0.2084 -1.3768
 7157SOL    HW222050   4.719   0.647   6.387  0.5922  0.1769  0.5038
 7158SOL     OW22051   1.695   0.030   6.706  0.0948  0.1206 -0.6659
 7158SOL    HW122052   1.776   0.075   6.732 -1.0901  0.8431  2.1398
 7158SOL    HW222053   1.625   0.092   6.725 -1.4957 -2.1794  1.7485
 7159SOL     OW22054   2.148   3.253   3.539  0.3170  0.3964  0.0588
 7159SOL    HW122055   2.116   3.313   3.607 -0.7843 -0.0337 -0.0511
 7159SOL    HW222056   2.076   3.191   3.527  1.6021 -1.2343  0.4952
 7160SOL     OW22057   9.285   3.541   0.942  0.5643 -0.2271  0.5035
 7160SOL    HW122058   9.262   3.634   0.933 -1.4163 -0.5934  1.1551
 7160SOL    HW222059   9.303   3.529   1.035 -1.2365 -0.8393  0.8312
 7161SOL     OW22060   5.366   6.577   4.331 -0.0119 -0.1297  0.4619
 7161SOL    HW122061   5.405   6.496   4.299 -1.4229 -0.8909  0.5761
 7161SOL    HW222062   5.358   6.563   4.426 -1.2187 -0.3070  0.3462
 7162SOL     OW22063   1.257   5.537   9.223  0.1677  0.0970 -0.7483
 7162SOL    HW122064   1.200   5.516   9.149  1.7460 -1.9218 -1.5099
 7162SOL    HW222065   1.340   5.564   9.182  0.1105  2.1136  0.3251
 7163SOL     OW22066   1.092   7.181   8.144 -0.3308  0.0736  0.5808
 7163SOL    HW122067   1.017   7.161   8.200  0.7161  1.0320  2.4363
 7163SOL    HW222068   1.071   7.267   8.106 -0.9606 -0.4937 -0.3896
 7164SOL     OW22069   1.960   6.698   7.914 -0.3192 -0.4298  0.2911
 7164SOL    HW122070   1.976   6.728   8.003  1.4368  0.8097 -0.3887
 7164SOL    HW222071   2.047   6.690   7.875 -1.0802  0.7821 -1.8353
 7165SOL     OW22072   9.754   3.071   3.145 -0.4890 -0.7296  0.1753
 7165SOL    HW122073   9.731   3.104   3.232 -2.5410  0.2560 -0.6651
 7165SOL    HW222074   9.767   2.977   3.158 -0.5959 -0.5816  1.5614
 7166SOL     OW22075   9.622   0.054   3.884  0.1125 -0.8177 -0.0674
 7166SOL    HW122076   9.655   0.131   3.837  0.4257 -0.6151  0.4824
 7166SOL    HW222077   9.678   0.047   3.961  0.6153 -2.0695 -0.5083
 7167SOL     OW22078   0.262   2.107   1.263 -0.1590 -0.0297  0.2498
 7167SOL    HW122079   0.196   2.165   1.302  0.3152  0.7701 -0.1160
 7167SOL    HW222080   0.219   2.021   1.260 -1.2772  0.5199 -0.1841
 7168SOL     OW22081   9.763   2.850   2.417 -0.1744  0.1545  0.0825
 7168SOL    HW122082   9.712   2.797   2.355 -3.0415  0.6788  1.8404
 7168SOL    HW222083   9.738   2.940   2.398 -0.0326  0.4229  1.1249
 7169SOL     OW22084   4.597   8.724   5.206 -0.5678 -0.3234 -0.2456
 7169SOL    HW122085   4.669   8.765   5.254 -0.7150 -1.3641  0.8914
 7169SOL    HW222086   4.635   8.642   5.173 -0.9466 -0.3955 -0.5014
 7170SOL     OW22087   0.531   4.961   0.219 -0.4445  0.1306 -0.4761
 7170SOL    HW122088   0.501   4.937   0.131 -1.1633 -0.4112 -0.0869
 7170SOL    HW222089   0.492   4.896   0.277 -1.5440  1.5723  0.4757
 7171SOL     OW22090   0.807   6.321   5.391 -0.5512  0.5078 -0.4720
 7171SOL    HW122091   0.873   6.271   5.343 -1.9202  1.2971 -3.3842
 7171SOL    HW222092   0.738   6.258   5.410  0.6814 -0.2188  2.2198
 7172SOL     OW22093   4.448   2.962   0.584 -0.3299 -0.2793  0.2029
 7172SOL    HW122094   4.388   2.936   0.653 -0.1307 -1.6626 -0.1199
 7172SOL    HW222095   4.480   2.880   0.548 -1.1061  0.3543 -2.1263
 7173SOL     OW22096   3.124   7.574   4.565  0.0122 -0.4067 -0.9935
 7173SOL    HW122097   3.088   7.575   4.476 -1.1117  0.2572 -0.5486
 7173SOL    HW222098   3.114   7.665   4.595  1.5847 -0.3219 -0.6472
 7174SOL     OW22099   4.825   4.430   8.804 -0.4515  0.2238  0.0726
 7174SOL    HW122100   4.733   4.436   8.779 -0.7189  0.8067  1.1307
 7174SOL    HW222101   4.871   4.479   8.736 -1.0450  0.8825  0.1313
 7175SOL     OW22102   2.112   0.084   9.764  0.1365  0.6640 -0.1964
 7175SOL    HW122103   2.140   0.039   9.684 -1.8757  1.0414 -1.1892
 7175SOL    HW222104   2.192   0.120   9.801  1.3752 -1.0605 -1.0460
 7176SOL     OW22105   9.886   3.396   2.762 -0.0291  0.2268 -0.5092
 7176SOL    HW122106   9.804   3.417   2.717 -0.2704  1.1033  0.2799
 7176SOL    HW222107   9.858   3.369   2.850  0.4936 -0.0496 -0.4284
 7177SOL     OW22108   0.889   2.258   9.588 -0.0284  0.3187 -0.6833
 7177SOL    HW122109   0.924   2.238   9.675  0.6733 -2.0896 -1.4444
 7177SOL    HW222110   0.909   2.350   9.576  1.1494  0.3682  1.1363
 7178SOL     OW22111   6.101   7.488   2.189 -0.0226 -0.3230 -0.1744
 7178SOL    HW122112   6.056   7.560   2.144  0.6040 -0.1779 -0.5704
 7178SOL    HW222113   6.108   7.518   2.280 -0.9808 -0.4713 -0.0398
 7179SOL     OW22114   9.710   6.039   1.387 -0.2458  0.1905 -0.3604
 7179SOL    HW122115   9.729   5.945   1.381 -1.7728 -0.0583 -2.3346
 7179SOL    HW222116   9.717   6.059   1.481 -0.3562 -2.0067  0.1726
 7180SOL     OW22117   3.984   8.676   1.239 -0.0486 -0.1422 -0.1491
 7180SOL    HW122118   3.961   8.763   1.206 -1.3827 -1.4953 -3.1012
 7180SOL    HW222119   3.914   8.656   1.302 -0.8494  0.1792 -0.9109
 7181SOL     OW22120   9.733   0.205   5.879 -0.2762 -0.1378 -0.0700
 7181SOL    HW122121   9.669   0.264   5.918 -0.9387  0.5072 -2.0378
 7181SOL    HW222122   9.818   0.240   5.905 -0.6783  1.2169 -0.5167
 7182SOL     OW22123   0.305   6.958   3.860 -0.1320 -0.3100  0.3512
 7182SOL    HW122124   0.230   6.915   3.901 -0.8819  0.1947 -0.4547
 7182SOL    HW222125   0.304   7.047   3.894 -0.2287 -0.1477 -0.0683
 7183SOL     OW22126   2.015   7.083   0.699  0.6141 -0.0299 -0.3250
 7183SOL    HW122127   1.992   6.991   0.706  0.0474  0.0826 -0.6888
 7183SOL    HW222128   1.984   7.110   0.613 -1.6661  1.1603  0.7713
 7184SOL     OW22129   0.987   8.544   5.787  0.2081  0.0027 -0.0060
 7184SOL    HW122130   1.002   8.488   5.711 -1.1476  0.3539 -0.5625
 7184SOL    HW222131   0.899   8.522   5.816  0.5399  0.1804  1.2210
 7185SOL     OW22132   8.330   6.339   0.813 -0.3340  0.1145  0.7048
 7185SOL    HW122133   8.322   6.244   0.802 -0.0991  0.1261  0.4492
 7185SOL    HW222134   8.413   6.351   0.859 -0.6604  0.1567  1.3014
 7186SOL     OW22135   7.108   1.501   6.296 -0.3136  0.2932  0.3482
 7186SOL    HW122136   7.024   1.538   6.268 -0.1077  1.2850  0.9843
 7186SOL    HW222137   7.147   1.466   6.216 -0.6924  1.1191 -0.2083
 7187SOL     OW22138   7.621   0.390   4.973 -0.0939  0.1393  0.5083
 7187SOL    HW122139   7.607   0.310   5.023 -0.1186 -0.1766 -0.0009
 7187SOL    HW222140   7.694   0.434   5.018  1.5832 -1.3605 -0.5933
 7188SOL     OW22141   5.930   4.900   9.060  0.7604 -0.4166 -0.0825
 7188SOL    HW122142   5.999   4.959   9.029  0.7988  0.0515  0.8839
 7188SOL    HW222143   5.917   4.922   9.152 -0.2282 -0.9474 -0.0724
 7189SOL     OW22144   3.008   8.528   1.313 -0.2733 -0.1059 -0.0827
 7189SOL    HW122145   2.972   8.463   1.373 -0.4845  0.3004  0.2352
 7189SOL    HW222146   2.941   8.537   1.245  0.6816 -1.8259 -1.3580
 7190SOL     OW22147   1.949   1.951   3.234 -0.0708  0.4070  0.0502
 7190SOL    HW122148   1.944   1.862   3.198 -0.3577 -0.5821  2.3454
 7190SOL    HW222149   1.901   1.946   3.317 -1.1265  3.0403 -0.3085
 7191SOL     OW22150   7.112   1.657   6.721 -0.4505 -0.0597  0.3096
 7191SOL    HW122151   7.107   1.565   6.693 -1.0531 -0.1329  0.6431
 7191SOL    HW222152   7.147   1.653   6.810  1.8640  0.1995 -0.5070
 7192SOL     OW22153   1.380   8.326   0.513  0.5129 -0.0988 -0.3012
 7192SOL    HW122154   1.429   8.407   0.498 -0.6844  0.3114 -2.2164
 7192SOL    HW222155   1.393   8.274   0.433 -0.4130 -0.9162  0.0584
 7193SOL     OW22156   1.076   9.749   0.671 -0.3688  0.8614  0.5142
 7193SOL    HW122157   1.084   9.760   0.765  1.8480 -3.6350  1.1541
 7193SOL    HW222158   1.148   9.799   0.634  1.9487 -1.2898  1.8407
 7194SOL     OW22159   4.383   9.430   6.756  0.4087 -0.3927 -0.3994
 7194SOL    HW122160   4.403   9.339   6.776  1.1297 -0.1900 -0.1721
 7194SOL    HW222161   4.408   9.478   6.835  1.0878  0.1335 -0.9235
 7195SOL     OW22162   3.116   2.593   1.292  0.1863 -0.6446 -0.4172
 7195SOL    HW122163   3.121   2.509   1.339 -0.7119  0.1546  1.2240
 7195SOL    HW222164   3.200   2.601   1.247 -0.1638 -2.9612 -1.6160
 7196SOL     OW22165   6.032   2.813   9.805  0.5578  0.6021 -0.2396
 7196SOL    HW122166   6.109   2.870   9.808  0.8628  0.2136  2.5609
 7196SOL    HW222167   5.970   2.859   9.749  2.3022  1.5790 -1.5017
 7197SOL     OW22168   5.956   4.584   5.372  0.5285 -0.0519  0.6448
 7197SOL    HW122169   5.875   4.536   5.358 -0.2432  1.2362  0.5228
 7197SOL    HW222170   5.978   4.570   5.464 -0.2713  0.2403  0.8842
 7198SOL     OW22171   1.159   1.657   9.295 -0.1059 -0.6749  0.5504
 7198SOL    HW122172   1.092   1.622   9.354 -1.1010  2.7841  1.7017
 7198SOL    HW222173   1.236   1.669   9.350 -0.2505  0.2490  0.5690
 7199SOL     OW22174   9.830   3.526   0.611 -0.0921 -0.3504 -0.2231
 7199SOL    HW122175   9.788   3.448   0.647 -1.3518  0.1172 -0.6398
 7199SOL    HW222176   9.790   3.599   0.657  1.0144  0.0693  0.0957
 7200SOL     OW22177   7.005   7.111   6.398 -0.0818 -0.1626  0.0068
 7200SOL    HW122178   7.096   7.090   6.420 -0.3093 -0.0396  1.1343
 7200SOL    HW222179   7.008   7.203   6.372  0.1185 -0.1564  0.0448
 7201SOL     OW22180   0.603   2.457   5.813 -0.0195  0.2677 -0.2650
 7201SOL    HW122181   0.552   2.494   5.885  0.0498 -0.2359  0.0424
 7201SOL    HW222182   0.557   2.377   5.789  0.5637 -0.1441 -0.0473
 7202SOL     OW22183   2.012   8.395   6.403 -0.1829  0.3440 -0.3429
 7202SOL    HW122184   2.004   8.345   6.321  0.2842  0.4567 -0.4618
 7202SOL    HW222185   1.976   8.481   6.382  2.2958  1.2569 -1.2417
 7203SOL     OW22186   5.531   7.014   8.376 -0.0059  0.1114  0.0997
 7203SOL    HW122187   5.457   7.057   8.333  0.4397  0.9248  0.1292
 7203SOL    HW222188   5.606   7.030   8.318  0.1763 -0.6293  0.1122
 7204SOL     OW22189   7.155   7.239   8.898 -0.2789 -0.5565  0.4217
 7204SOL    HW122190   7.242   7.247   8.937  0.9172 -1.6969 -1.8638
 7204SOL    HW222191   7.120   7.157   8.933 -0.0207 -0.6070  0.5611
 7205SOL     OW22192   9.693   9.869   4.223 -0.1661  0.0302  0.0275
 7205SOL    HW122193   9.671   9.962   4.232 -1.7778 -0.4077  1.0022
 7205SOL    HW222194   9.609   9.826   4.210  0.5516 -1.3216 -0.3110
 7206SOL     OW22195   8.972   8.868   3.539  0.2022  0.5867  0.2708
 7206SOL    HW122196   8.974   8.929   3.612  1.4026 -0.5403  1.2352
 7206SOL    HW222197   8.885   8.879   3.500  0.5272  3.2085  0.0929
 7207SOL     OW22198   8.367   7.841   5.681  0.2599 -0.2226  0.1184
 7207SOL    HW122199   8.459   7.832   5.654  0.0935 -0.6983 -0.2943
 7207SOL    HW222200   8.341   7.928   5.649  0.8003  0.2585  0.9460
 7208SOL     OW22201   0.495   5.894   4.980 -0.0902 -0.0168 -0.1772
 7208SOL    HW122202   0.469   5.931   4.895  1.2149 -0.6518 -0.8943
 7208SOL    HW222203   0.582   5.856   4.963 -0.1004 -0.7383  1.2866
 7209SOL     OW22204   7.130   0.384   5.637  0.6761 -0.4840  0.1186
 7209SOL    HW122205   7.062   0.431   5.686  1.1450  0.9373 -0.5342
 7209SOL    HW222206   7.093   0.298   5.621 -0.3677 -0.2338  1.0714
 7210SOL     OW22207   3.582   4.901   1.844  0.6493 -0.3774 -0.3502
 7210SOL    HW122208   3.587   4.930   1.753  0.0735 -1.0816 -0.6106
 7210SOL    HW222209   3.639   4.962   1.891  0.3395  0.4928 -1.0551
 7211SOL     OW22210   3.320   5.816   7.466  0.0912 -0.2943  0.1518
 7211SOL    HW122211   3.261   5.778   7.401  0.3804 -0.3420 -0.0851
 7211SOL    HW222212   3.291   5.907   7.475 -1.4834 -0.9083  1.7354
 7212SOL     OW22213   9.144   6.935   5.301 -0.0506 -0.5286  0.8403
 7212SOL    HW122214   9.196   7.011   5.275 -0.3867 -0.2622  0.9417
 7212SOL    HW222215   9.164   6.868   5.236 -0.8818  0.1216 -0.1089
 7213SOL     OW22216   0.448   4.522   0.803  0.1843  0.2595 -0.8523
 7213SOL    HW122217   0.533   4.564   0.785  1.5586 -2.1328 -0.3034
 7213SOL    HW222218   0.470   4.432   0.826 -2.3281  0.1465  1.6529
 7214SOL     OW22219   3.311   2.034   3.652 -0.4522  0.0313  0.1197
 7214SOL    HW122220   3.384   2.008   3.707 -0.0658 -1.0619 -0.8748
 7214SOL    HW222221   3.281   1.953   3.610 -2.2433  0.4446  0.5033
 7215SOL     OW22222   3.211   6.768   0.436  0.7839 -0.5516  0.7413
 7215SOL    HW122223   3.289   6.711   0.440  1.9037  0.8313 -0.1729
 7215SOL    HW222224   3.166   6.741   0.356  0.3628 -1.2831  1.2151
 7216SOL     OW22225   0.425   5.065   4.544 -0.1898  0.3381  0.1080
 7216SOL    HW122226   0.428   5.115   4.625 -1.2545  2.9879 -1.3535
 7216SOL    HW222227   0.393   4.979   4.570  0.6914  0.6824  2.6197
 7217SOL     OW22228   2.723   4.268   2.841  0.2734 -0.5905 -0.2431
 7217SOL    HW122229   2.710   4.360   2.865 -0.5820 -0.6192 -0.5281
 7217SOL    HW222230   2.693   4.219   2.918  1.1298 -0.6285  0.0705
 7218SOL     OW22231   3.212   5.385   7.134 -0.2264 -0.4448 -0.2451
 7218SOL    HW122232   3.184   5.337   7.055 -3.0092  1.0311 -0.2800
 7218SOL    HW222233   3.209   5.477   7.108 -0.7810  0.0504  1.4533
 7219SOL     OW22234   6.925   6.376   0.436  0.7621  0.1195  0.1704
 7219SOL    HW122235   7.013   6.340   0.451  0.0292 -2.3419 -0.9170
 7219SOL    HW222236   6.913   6.371   0.342 -0.8533 -0.3926  0.3728
 7220SOL     OW22237   0.705   2.723   1.848 -0.0782  0.6632  0.0651
 7220SOL    HW122238   0.661   2.800   1.813  0.4725  0.6658 -0.6299
 7220SOL    HW222239   0.798   2.746   1.849 -0.0068  0.3805  0.8136
 7221SOL     OW22240   3.085   3.616   6.050  0.0367 -0.0715 -0.3177
 7221SOL    HW122241   3.002   3.639   6.008 -0.7801 -0.6765  0.8683
 7221SOL    HW222242   3.115   3.538   6.003  0.4822  0.7538 -1.4234
 7222SOL     OW22243   8.031   8.281   3.400  0.5508  0.3229 -0.0255
 7222SOL    HW122244   8.009   8.197   3.358  0.3266  0.0615  0.5894
 7222SOL    HW222245   8.071   8.256   3.484 -0.1446  0.8200  0.4744
 7223SOL     OW22246   3.900   2.617   0.170  0.3417 -0.3515 -0.6292
 7223SOL    HW122247   3.922   2.658   0.086  0.7314 -0.3901 -0.5453
 7223SOL    HW222248   3.830   2.671   0.206 -0.4597 -0.8484 -1.3985
 7224SOL     OW22249   6.277   4.605   4.970  0.5521 -0.1758  0.0338
 7224SOL    HW122250   6.211   4.639   4.909 -0.0442 -2.6356 -0.8290
 7224SOL    HW222251   6.227   4.581   5.048  0.8590  0.2960  0.3799
 7225SOL     OW22252   3.197   8.524   5.956  0.8113 -0.2214  0.3826
 7225SOL    HW122253   3.201   8.429   5.941 -1.5185 -0.2284 -0.6019
 7225SOL    HW222254   3.110   8.539   5.993  1.3337  1.4971  1.0101
 7226SOL     OW22255   6.438   2.312   5.801 -0.5625  0.0439  0.0523
 7226SOL    HW122256   6.384   2.345   5.728 -0.6978 -0.8079 -0.2388
 7226SOL    HW222257   6.374   2.285   5.867 -0.4467  0.5073  0.3587
 7227SOL     OW22258   6.853   8.840   6.193 -0.3582 -0.1727 -0.0749
 7227SOL    HW122259   6.823   8.813   6.107 -0.2354 -0.7068  0.0445
 7227SOL    HW222260   6.793   8.909   6.220  0.8465  1.4930 -1.4756
 7228SOL     OW22261   3.526   6.738   3.080  0.5524 -0.4423 -0.1309
 7228SOL    HW122262   3.572   6.820   3.060  0.8820 -0.2750  1.2233
 7228SOL    HW222263   3.464   6.727   3.008  1.2468  0.4345 -0.8860
 7229SOL     OW22264   6.278   1.671   1.169  0.2231 -0.4526  0.4186
 7229SOL    HW122265   6.216   1.744   1.162  1.5465  0.8344  1.4791
 7229SOL    HW222266   6.224   1.593   1.163 -1.7079  0.6073  2.5489
 7230SOL     OW22267   5.115   3.061   7.206 -0.3681 -0.1615  0.2483
 7230SOL    HW122268   5.103   3.012   7.287  0.8894  0.4812  0.8489
 7230SOL    HW222269   5.062   3.014   7.141 -0.5693 -1.2834  1.1989
 7231SOL     OW22270   5.633   7.262   6.194 -0.1985  0.2796 -0.1742
 7231SOL    HW122271   5.545   7.241   6.227 -0.3263  0.8081 -0.1689
 7231SOL    HW222272   5.637   7.218   6.109 -1.5332  2.4470 -1.4888
 7232SOL     OW22273   1.304   7.420   0.778  0.3571  0.4123 -0.1341
 7232SOL    HW122274   1.236   7.402   0.713 -0.6228  1.6712  0.4874
 7232SOL    HW222275   1.301   7.515   0.790  0.2158  0.1935  2.0107
 7233SOL     OW22276   3.815   9.673   7.014 -0.1317 -0.3566 -0.0792
 7233SOL    HW122277   3.876   9.707   6.949  1.0859  1.0286  1.6855
 7233SOL    HW222278   3.858   9.595   7.049  0.6574  0.5740  1.1071
 7234SOL     OW22279   5.823   1.568   9.472  0.1537  0.2500  0.2757
 7234SOL    HW122280   5.813   1.478   9.503  2.0860  0.4489  1.7327
 7234SOL    HW222281   5.918   1.583   9.474 -0.1405  2.4029  0.3565
 7235SOL     OW22282   4.913   6.538   9.711  0.2793  0.4723 -0.5424
 7235SOL    HW122283   4.888   6.618   9.758  2.2387  0.8418 -0.0393
 7235SOL    HW222284   4.991   6.562   9.662  0.0329 -0.7543 -1.5844
 7236SOL     OW22285   5.378   2.544   9.429 -0.2798  0.0688 -0.1238
 7236SOL    HW122286   5.343   2.628   9.399 -0.6482 -1.2533 -3.9337
 7236SOL    HW222287   5.309   2.481   9.409 -0.0547 -1.2734  2.7330
 7237SOL     OW22288   2.066   2.406   6.946  0.0400 -0.0337 -0.2539
 7237SOL    HW122289   1.978   2.443   6.949  0.2238  0.3633  0.4390
 7237SOL    HW222290   2.116   2.456   7.011  1.0359  0.4461 -1.3343
 7238SOL     OW22291   6.111   8.159   8.722 -0.2416 -0.0228 -0.5830
 7238SOL    HW122292   6.070   8.072   8.716  0.8782 -0.7252  1.0269
 7238SOL    HW222293   6.161   8.167   8.641 -1.0357 -0.4940 -1.1433
 7239SOL     OW22294   7.172   7.341   0.229 -0.1892  0.1593  0.2984
 7239SOL    HW122295   7.093   7.307   0.186  0.5380  1.0119 -1.8459
 7239SOL    HW222296   7.218   7.263   0.260 -3.0798 -0.3262  4.1854
 7240SOL     OW22297   4.935   3.240   3.654 -0.2630 -0.4181 -0.4662
 7240SOL    HW122298   5.002   3.178   3.623 -0.3357 -1.1581  0.7835
 7240SOL    HW222299   4.867   3.184   3.691 -0.3087  0.4168  0.7463
 7241SOL     OW22300   7.845   1.634   2.181  0.1014  0.4676  0.0060
 7241SOL    HW122301   7.876   1.565   2.123 -0.4958  1.4317 -1.5160
 7241SOL    HW222302   7.759   1.658   2.146 -0.6910  0.5093  1.8160
 7242SOL     OW22303   3.607   1.649   6.181  0.3783  0.3215  0.0440
 7242SOL    HW122304   3.698   1.620   6.172 -0.0158 -0.5991 -1.2462
 7242SOL    HW222305   3.596   1.667   6.274  1.3206 -1.4955  0.5415
 7243SOL     OW22306   7.160   6.490   1.273  0.6489  0.2026 -0.1216
 7243SOL    HW122307   7.165   6.396   1.255 -0.2498 -0.1694  1.3595
 7243SOL    HW222308   7.236   6.508   1.328  0.4237  0.1745  0.2046
 7244SOL     OW22309   1.332   0.257   7.242 -0.0608  0.3343 -0.3063
 7244SOL    HW122310   1.347   0.323   7.175 -0.9116  1.1000  0.2275
 7244SOL    HW222311   1.261   0.203   7.207 -0.4212  0.6595 -0.0913
 7245SOL     OW22312   6.719   9.252   8.426  0.3899  0.4173 -0.1213
 7245SOL    HW122313   6.690   9.219   8.511 -1.9001 -2.7371 -1.9099
 7245SOL    HW222314   6.779   9.184   8.393  1.7217  1.8750 -0.8577
 7246SOL     OW22315   4.669   8.561   9.550 -0.3589 -0.0586  0.1515
 7246SOL    HW122316   4.692   8.550   9.458  0.2113 -0.4170  0.3350
 7246SOL    HW222317   4.729   8.503   9.598  1.6067  2.4454  1.0089
 7247SOL     OW22318   5.360   4.107   4.717 -0.2656  0.2869 -0.2230
 7247SOL    HW122319   5.348   4.084   4.625  1.6322  0.0937 -0.4518
 7247SOL    HW222320   5.390   4.026   4.759 -0.3888  0.5632  0.4171
 7248SOL     OW22321   1.040   3.693   9.038 -0.2531 -0.4728  0.2392
 7248SOL    HW122322   1.009   3.761   9.098  1.2513 -1.6953  2.5536
 7248SOL    HW222323   0.978   3.695   8.965 -0.2731  3.3236  0.1694
 7249SOL     OW22324   8.173   3.496   7.844  0.7496  0.3275 -0.0989
 7249SOL    HW122325   8.223   3.445   7.781 -0.3536 -0.2133 -0.5763
 7249SOL    HW222326   8.093   3.444   7.858 -0.8024  2.2807 -1.2322
 7250SOL     OW22327   0.079   9.361   4.750 -0.2962 -0.4630  0.0060
 7250SOL    HW122328   0.093   9.316   4.667 -1.8984  0.4991 -0.8390
 7250SOL    HW222329   0.032   9.298   4.804 -0.0896 -0.7603 -0.1594
 7251SOL     OW22330   3.397   6.577   9.140  0.2548  0.0894  0.1082
 7251SOL    HW122331   3.493   6.582   9.142  0.2137  2.2623 -0.6181
 7251SOL    HW222332   3.372   6.582   9.233  0.8286  1.3152  0.2258
 7252SOL     OW22333   4.980   6.361   3.330  0.7287  0.1888 -0.6594
 7252SOL    HW122334   4.914   6.379   3.397  0.4281 -1.0550 -0.5997
 7252SOL    HW222335   4.931   6.362   3.247  0.7562 -0.0703 -0.6795
 7253SOL     OW22336   5.604   7.192   2.809  0.0511 -0.0450  0.3664
 7253SOL    HW122337   5.663   7.216   2.880  2.6363 -0.0325 -1.6478
 7253SOL    HW222338   5.586   7.099   2.822  2.6067 -0.7081 -0.2878
 7254SOL     OW22339   9.184   3.916   6.520 -0.1449  0.6921  0.2570
 7254SOL    HW122340   9.146   3.901   6.434 -0.8844  2.4584  0.2265
 7254SOL    HW222341   9.278   3.897   6.509 -0.4535 -0.4400 -0.5484
 7255SOL     OW22342   6.341   5.359   2.067 -0.0262 -0.2136  0.2127
 7255SOL    HW122343   6.293   5.383   1.987  0.1156  1.6270  0.6371
 7255SOL    HW222344   6.423   5.408   2.061 -0.0473  0.0154  1.5305
 7256SOL     OW22345   3.654   3.453   5.111  0.1585  0.2047  0.0186
 7256SOL    HW122346   3.642   3.406   5.028 -2.2352  0.0015  0.4027
 7256SOL    HW222347   3.626   3.391   5.178 -1.4934  1.5408  0.6613
 7257SOL     OW22348   5.270   2.252   6.662  0.2379 -0.3465  0.2198
 7257SOL    HW122349   5.198   2.196   6.691 -0.9805  0.5770 -0.9288
 7257SOL    HW222350   5.266   2.248   6.566  2.1240 -0.7587  0.1164
 7258SOL     OW22351   8.649   8.655   4.512  0.4095 -0.1708  0.2931
 7258SOL    HW122352   8.717   8.592   4.536  0.4881 -0.3947 -0.4890
 7258SOL    HW222353   8.655   8.724   4.578  0.3964 -0.9264  1.0937
 7259SOL     OW22354   1.014   0.491   1.536 -0.0100 -0.1800  0.4486
 7259SOL    HW122355   0.920   0.482   1.519  0.0960  0.6247 -0.7180
 7259SOL    HW222356   1.045   0.402   1.549 -0.8136 -0.5192  0.1145
 7260SOL     OW22357   1.449   0.842   8.838  0.2662 -0.0487  0.1379
 7260SOL    HW122358   1.400   0.923   8.820  1.3025  0.2378 -1.6749
 7260SOL    HW222359   1.383   0.783   8.874 -0.1733  2.0999  3.2943
 7261SOL     OW22360   4.954   1.710   2.211  1.0303 -0.6218  0.5801
 7261SOL    HW122361   4.939   1.755   2.295 -0.0558 -1.7804  1.0471
 7261SOL    HW222362   4.875   1.730   2.160  1.3818 -0.4889  0.0814
 7262SOL     OW22363   9.345   1.016   6.081 -0.1937 -0.0468  0.0226
 7262SOL    HW122364   9.255   0.982   6.085  0.1519 -1.0506 -0.5954
 7262SOL    HW222365   9.367   1.013   5.988  1.0228 -1.2590  0.3276
 7263SOL     OW22366   8.235   1.417   0.186 -0.1201 -0.7547 -0.1702
 7263SOL    HW122367   8.161   1.458   0.232  0.0752  0.0140 -0.5334
 7263SOL    HW222368   8.301   1.405   0.254 -0.3930 -0.9849  0.0554
 7264SOL     OW22369   9.591   9.083   0.537 -0.3801 -0.7144  0.0675
 7264SOL    HW122370   9.589   9.075   0.441 -0.9262 -1.7833  0.1578
 7264SOL    HW222371   9.669   9.136   0.554  1.1386 -2.5041 -0.8544
 7265SOL     OW22372   2.280   2.684   0.564 -0.1889 -0.0958 -0.5458
 7265SOL    HW122373   2.356   2.697   0.508  0.0617 -0.4447 -0.2963
 7265SOL    HW222374   2.317   2.661   0.650 -0.5573 -2.3614 -0.9216
 7266SOL     OW22375   5.969   7.874   4.507 -0.4340  0.0811  0.3672
 7266SOL    HW122376   6.030   7.947   4.498  0.0510 -0.4322 -0.8537
 7266SOL    HW222377   6.025   7.797   4.515 -0.9336 -0.2473  0.7244
 7267SOL     OW22378   9.574   6.572   6.453 -0.5635 -0.0873 -0.3526
 7267SOL    HW122379   9.661   6.562   6.491 -0.6888  0.9341  0.2302
 7267SOL    HW222380   9.586   6.550   6.360  0.8279  2.2590 -0.8082
 7268SOL     OW22381   6.618   2.990   0.607  0.2736  0.5499  0.1916
 7268SOL    HW122382   6.654   2.907   0.638  0.7764  0.1223 -1.4237
 7268SOL    HW222383   6.581   3.031   0.685  2.5435  0.1071  1.5991
 7269SOL     OW22384   2.571   8.436   2.801  0.3753 -0.1595  0.4398
 7269SOL    HW122385   2.549   8.456   2.893  0.9299  2.3101  0.1078
 7269SOL    HW222386   2.666   8.446   2.797  0.3324 -0.0317 -0.4306
 7270SOL     OW22387   0.486   9.497   6.348 -0.3930  0.2751 -0.5573
 7270SOL    HW122388   0.458   9.502   6.257  0.4929 -1.6805 -1.0070
 7270SOL    HW222389   0.577   9.526   6.346 -0.4502  0.4710 -0.2609
 7271SOL     OW22390   7.793   1.670   6.299  0.0485  0.1070 -0.1634
 7271SOL    HW122391   7.849   1.596   6.320  1.0765  0.9394  0.1393
 7271SOL    HW222392   7.704   1.639   6.314  0.5137 -0.7662  0.8636
 7272SOL     OW22393   0.327   3.279   2.242 -0.3036  0.0861 -0.2705
 7272SOL    HW122394   0.294   3.341   2.307  0.2715  0.2067 -0.0868
 7272SOL    HW222395   0.381   3.333   2.183  2.0607 -0.5505  1.1632
 7273SOL     OW22396   2.716   2.770   7.593  0.3207 -0.0301 -0.1255
 7273SOL    HW122397   2.792   2.818   7.559  0.0366  0.3810 -0.1920
 7273SOL    HW222398   2.750   2.684   7.618  1.6489  1.3467  3.4450
 7274SOL     OW22399   9.306   2.108   1.358 -0.2310  0.1014  0.3487
 7274SOL    HW122400   9.375   2.119   1.424  0.5345 -1.5741 -0.1233
 7274SOL    HW222401   9.228   2.144   1.400  0.3982 -0.2272  1.8753
 7275SOL     OW22402   9.874   2.725   9.922  0.1764  0.0015 -0.1473
 7275SOL    HW122403   9.858   2.636   9.955 -0.1511  0.0501 -0.1733
 7275SOL    HW222404   9.951   2.755   9.971  0.6646 -0.5235 -0.5674
 7276SOL     OW22405   6.033   6.345   1.466  0.2371 -0.1059 -0.8438
 7276SOL    HW122406   6.012   6.435   1.492  1.8746 -0.1151  0.7043
 7276SOL    HW222407   5.988   6.290   1.531  1.9594 -0.2397  0.3002
 7277SOL     OW22408   2.671   4.871   7.696 -0.4063 -0.4934 -0.1590
 7277SOL    HW122409   2.729   4.935   7.655 -2.6522  1.4256 -0.6011
 7277SOL    HW222410   2.604   4.854   7.630 -1.4795 -0.9959  1.0225
 7278SOL     OW22411   5.142   5.519   0.642 -0.1203  0.0074 -0.6753
 7278SOL    HW122412   5.138   5.517   0.546  0.3805  0.5167 -0.7109
 7278SOL    HW222413   5.166   5.609   0.663  0.6132 -0.3132 -0.1058
 7279SOL     OW22414   6.083   1.695   5.556  0.0193 -0.6239  0.2554
 7279SOL    HW122415   6.142   1.768   5.571 -0.3669  0.5702 -3.0914
 7279SOL    HW222416   6.006   1.714   5.610  0.4026  0.8657  0.3200
 7280SOL     OW22417   9.095   7.376   0.907 -0.3843 -0.3294 -0.0648
 7280SOL    HW122418   9.158   7.448   0.903 -1.1493  0.3185 -1.1482
 7280SOL    HW222419   9.131   7.316   0.972  1.8241 -0.4251 -1.2792
 7281SOL     OW22420   6.296   5.824   1.719  0.2115 -0.8572 -0.4131
 7281SOL    HW122421   6.234   5.896   1.708  1.2466  0.2194  0.5068
 7281SOL    HW222422   6.291   5.775   1.637  0.3711  0.9817 -1.5862
 7282SOL     OW22423   8.877   3.191   1.014  0.2844 -0.8587 -0.4496
 7282SOL    HW122424   8.824   3.242   0.951 -0.3269 -0.2209  0.5447
 7282SOL    HW222425   8.967   3.209   0.989  0.0539 -1.1786 -1.5744
 7283SOL     OW22426   9.813   0.874   7.187 -0.3012 -0.0090  0.1567
 7283SOL    HW122427   9.894   0.908   7.149  0.2383 -1.7744 -0.3973
 7283SOL    HW222428   9.826   0.881   7.281  0.4761 -0.1949  0.0689
 7284SOL     OW22429   9.822   4.814   4.693  0.0230  0.1859 -0.6669
 7284SOL    HW122430   9.914   4.835   4.705 -0.7489  2.7527  1.4177
 7284SOL    HW222431   9.794   4.870   4.620 -0.1616  0.2620 -0.5372
 7285SOL     OW22432   2.018   7.145   5.410  0.0722 -0.2714  0.2754
 7285SOL    HW122433   1.944   7.186   5.363  0.9567  0.7921 -0.2510
 7285SOL    HW222434   2.047   7.212   5.471  0.3108 -0.8654  0.8220
 7286SOL     OW22435   4.158   7.645   9.335  0.4486  0.0925  0.8071
 7286SOL    HW122436   4.179   7.737   9.325  2.0129 -0.4826 -2.4048
 7286SOL    HW222437   4.076   7.633   9.288 -0.9831  0.1516  3.1369
 7287SOL     OW22438   5.070   4.798   3.651  0.0824 -0.4190  0.1987
 7287SOL    HW122439   5.045   4.876   3.601  2.7350  0.5495  0.2099
 7287SOL    HW222440   5.136   4.755   3.596  1.3806 -0.5862  1.8117
 7288SOL     OW22441   9.076   9.881   1.179  0.0570  0.1563  0.1829
 7288SOL    HW122442   9.053   9.968   1.211 -2.3427 -0.4376  0.2211
 7288SOL    HW222443   9.070   9.825   1.256  2.9196  0.0878  0.4615
 7289SOL     OW22444   0.785   5.071   4.771 -0.2739  0.3168 -0.5713
 7289SOL    HW122445   0.798   5.017   4.693 -0.0500 -1.8694  0.9048
 7289SOL    HW222446   0.706   5.122   4.751 -0.4852 -0.5256 -2.0347
 7290SOL     OW22447   3.778   3.027   4.439 -0.0481  0.1163 -0.4358
 7290SOL    HW122448   3.745   3.069   4.519 -0.4828 -0.0548 -0.5224
 7290SOL    HW222449   3.808   3.100   4.385 -1.5257  0.4024 -0.9151
 7291SOL     OW22450   7.948   7.034   1.613  0.1180 -0.5864  0.2985
 7291SOL    HW122451   7.944   7.049   1.707  1.0390 -0.5311  0.3322
 7291SOL    HW222452   7.944   6.939   1.604 -0.6305 -0.5671  0.3500
 7292SOL     OW22453   7.451   3.660   1.302  0.2678 -0.0675 -0.4543
 7292SOL    HW122454   7.542   3.631   1.311  0.2260 -0.0719  0.0097
 7292SOL    HW222455   7.450   3.746   1.345 -0.4235 -1.0197  1.5627
 7293SOL     OW22456   8.596   2.777   5.181  0.0304  0.8899  0.4204
 7293SOL    HW122457   8.653   2.727   5.239 -1.2259  1.1861  1.9951
 7293SOL    HW222458   8.508   2.759   5.213 -0.6381  1.8679 -0.7801
 7294SOL     OW22459   6.438   9.913   9.359 -0.2098 -1.1542 -0.6632
 7294SOL    HW122460   6.451   9.887   9.450  3.9817  0.5566 -0.5440
 7294SOL    HW222461   6.371   9.981   9.362 -1.1023 -2.0334  0.8715
 7295SOL     OW22462   1.840   6.004   0.958  0.5623 -0.1334  0.4089
 7295SOL    HW122463   1.929   5.975   0.975  1.2552  1.3560 -0.4554
 7295SOL    HW222464   1.850   6.096   0.932 -1.0400 -0.4369 -1.4447
 7296SOL     OW22465   1.946   6.228   2.614 -0.1253 -0.1600 -0.1221
 7296SOL    HW122466   1.908   6.142   2.630  0.4143 -0.3749  0.0288
 7296SOL    HW222467   1.960   6.230   2.519 -0.1902 -0.2183 -0.1329
 7297SOL     OW22468   7.790   3.913   5.477  0.1101 -0.4334 -0.3735
 7297SOL    HW122469   7.792   3.817   5.480  0.0509 -0.4209  0.1826
 7297SOL    HW222470   7.703   3.936   5.508  0.2003 -0.1918 -0.2999
 7298SOL     OW22471   8.495   0.489   2.974  0.4565  0.5858 -0.1171
 7298SOL    HW122472   8.498   0.476   3.069  0.0868  3.4090  0.3612
 7298SOL    HW222473   8.403   0.509   2.955  0.6480  0.6766 -0.9868
 7299SOL     OW22474   4.193   8.981   2.437 -0.2991  0.0585 -0.2596
 7299SOL    HW122475   4.137   9.051   2.470  0.6257 -0.0622  1.6867
 7299SOL    HW222476   4.256   9.025   2.380 -0.1451  0.7176  0.4085
 7300SOL     OW22477   7.266   6.761   6.095 -0.1412  0.2464 -0.4343
 7300SOL    HW122478   7.305   6.677   6.072  0.1217 -0.4965  2.3690
 7300SOL    HW222479   7.323   6.798   6.162 -0.6861  2.3206 -1.0118
 7301SOL     OW22480   3.384   8.695   2.398  0.0203 -0.3636 -0.6259
 7301SOL    HW122481   3.386   8.748   2.478  0.1937 -2.2517  0.6938
 7301SOL    HW222482   3.399   8.757   2.327 -1.8228  1.6323  0.6421
 7302SOL     OW22483   9.130   5.531   6.017  0.5483  0.1762  0.1503
 7302SOL    HW122484   9.211   5.582   6.016  1.1777 -0.7326  1.9133
 7302SOL    HW222485   9.085   5.557   6.097 -0.0947 -0.5781  0.0515
 7303SOL     OW22486   4.044   6.664   1.095 -0.1413  0.4300  1.0682
 7303SOL    HW122487   4.105   6.618   1.152  0.3561  1.0283  1.0397
 7303SOL    HW222488   3.996   6.595   1.049  0.1388 -0.0508  1.4938
 7304SOL     OW22489   5.430   4.191   7.235 -0.3533  0.3801 -0.0777
 7304SOL    HW122490   5.512   4.162   7.277 -0.6005  0.2611  0.3247
 7304SOL    HW222491   5.386   4.109   7.210  0.2144  0.4497 -1.4137
 7305SOL     OW22492   8.658   1.379   3.564 -0.0602  0.0119  0.3303
 7305SOL    HW122493   8.584   1.327   3.532  0.8877 -1.2747  0.1702
 7305SOL    HW222494   8.637   1.395   3.656 -0.5314 -0.3655  0.2968
 7306SOL     OW22495   0.501   7.043   1.995  0.2292  0.2117  0.3194
 7306SOL    HW122496   0.430   6.993   2.036  0.3002  1.6007  2.2609
 7306SOL    HW222497   0.488   7.029   1.901 -0.8714 -1.8832  0.7061
 7307SOL     OW22498   9.382   3.017   2.712  0.0950 -0.3312  0.4938
 7307SOL    HW122499   9.442   3.081   2.751  0.9846 -0.9195  0.1364
 7307SOL    HW222500   9.366   2.953   2.781 -1.4427  0.6773  1.1146
 7308SOL     OW22501   7.258   5.058   2.690  0.0719 -0.7482  0.1257
 7308SOL    HW122502   7.243   5.068   2.596  0.4382  1.4386  0.2528
 7308SOL    HW222503   7.267   4.964   2.703 -1.3136 -1.2030 -1.8112
 7309SOL     OW22504   2.322   1.433   7.721  0.0033  0.2066  0.1041
 7309SOL    HW122505   2.321   1.401   7.630 -1.2803  1.8368 -0.5219
 7309SOL    HW222506   2.414   1.437   7.744  0.2662 -2.9067 -0.0911
 7310SOL     OW22507   7.335   7.574   3.365  0.2963 -0.3182  0.0175
 7310SOL    HW122508   7.300   7.541   3.283 -0.2950  2.3232 -0.8933
 7310SOL    HW222509   7.300   7.515   3.432 -1.4169 -0.9614 -1.3733
 7311SOL     OW22510   0.178   5.399   3.226 -0.3747 -0.5682 -0.3360
 7311SOL    HW122511   0.189   5.452   3.146  0.7342 -0.1568  0.0756
 7311SOL    HW222512   0.242   5.434   3.287 -0.3871 -1.6720  0.3356
 7312SOL     OW22513   5.121   8.253   6.441 -0.2017  0.1370 -0.2499
 7312SOL    HW122514   5.157   8.241   6.354  1.6976 -0.6880  0.5920
 7312SOL    HW222515   5.063   8.178   6.454 -0.9408  0.5626 -0.9785
 7313SOL     OW22516   2.096   4.145   0.198  0.0517 -0.1068  0.2788
 7313SOL    HW122517   2.107   4.084   0.271  2.3314  1.0315  0.9789
 7313SOL    HW222518   2.007   4.129   0.166 -1.1385 -0.4793  3.4386
 7314SOL     OW22519   3.747   9.870   5.466  0.2310  0.4483  0.1673
 7314SOL    HW122520   3.813   9.862   5.397  0.5035 -0.8839  0.5478
 7314SOL    HW222521   3.675   9.918   5.425  0.9764  0.9348 -0.5986
 7315SOL     OW22522   0.934   3.689   5.894  0.1238  0.0428 -0.3548
 7315SOL    HW122523   0.952   3.760   5.955  0.7985 -0.3155 -0.1246
 7315SOL    HW222524   0.936   3.610   5.948  0.9709 -0.3044 -0.8714
 7316SOL     OW22525   1.401   7.835   4.796  0.4004 -0.3851 -0.0678
 7316SOL    HW122526   1.475   7.845   4.735  0.5668  1.5790  0.3935
 7316SOL    HW222527   1.437   7.861   4.881 -0.6130 -0.2376  0.3208
 7317SOL     OW22528   9.736   5.952   1.767 -0.0197 -0.1620 -0.2095
 7317SOL    HW122529   9.762   5.948   1.859  0.7525 -1.5721 -0.4472
 7317SOL    HW222530   9.771   6.035   1.735 -0.1472  0.2569  0.7309
 7318SOL     OW22531   9.454   4.178   2.468  0.0633  0.3804  0.5535
 7318SOL    HW122532   9.516   4.182   2.541  2.0643  1.1789 -1.0939
 7318SOL    HW222533   9.452   4.086   2.443  0.6520  0.3570  0.5810
 7319SOL     OW22534   9.241   6.981   7.475 -0.5777  0.2247  0.4338
 7319SOL    HW122535   9.158   7.004   7.433 -0.0341  1.0350 -0.2263
 7319SOL    HW222536   9.227   6.996   7.568 -0.4761  2.6756  0.1290
 7320SOL     OW22537   4.264   4.853   9.022  0.0225  0.2437 -0.1003
 7320SOL    HW122538   4.309   4.803   8.954 -1.2301 -1.3918  0.2032
 7320SOL    HW222539   4.192   4.897   8.976  1.4396  2.3200 -0.4672
 7321SOL     OW22540   9.271   0.696   7.924  0.1778 -0.0400  0.9741
 7321SOL    HW122541   9.287   0.602   7.930  1.0610  0.0154 -0.0992
 7321SOL    HW222542   9.205   0.714   7.991  1.5264 -1.0528  2.6538
 7322SOL     OW22543   5.340   5.026  -0.007  0.7549 -0.2812 -0.0800
 7322SOL    HW122544   5.376   5.113  -0.027  1.6682 -0.4154  0.9098
 7322SOL    HW222545   5.400   4.989   0.058 -0.8320 -0.7512  1.1981
 7323SOL     OW22546   7.042   8.044   2.612 -0.3555  0.1642 -0.4131
 7323SOL    HW122547   7.091   7.985   2.554 -0.4554  0.8187 -1.1837
 7323SOL    HW222548   7.031   7.994   2.693 -0.7394 -1.0056 -1.1615
 7324SOL     OW22549   9.715   9.817   7.175 -0.2629 -0.2434  0.5783
 7324SOL    HW122550   9.733   9.911   7.176  2.9138 -0.7487  0.9561
 7324SOL    HW222551   9.796   9.777   7.206 -0.8436 -3.2064 -1.3485
 7325SOL     OW22552   5.874   4.955   8.249  0.5996  0.3444 -0.8114
 7325SOL    HW122553   5.821   5.031   8.274 -0.2394  0.0589 -1.6787
 7325SOL    HW222554   5.957   4.993   8.219  1.4407  0.7396  1.7092
 7326SOL     OW22555   7.018   8.890   2.808  0.4489  0.7184 -0.2631
 7326SOL    HW122556   7.106   8.886   2.846  0.5784  0.9050 -0.5394
 7326SOL    HW222557   6.986   8.800   2.811  0.5672  0.6836  0.0291
 7327SOL     OW22558   2.304   8.861   2.760  0.5295  0.9718  0.7125
 7327SOL    HW122559   2.313   8.957   2.761 -0.5314  1.0934  0.3865
 7327SOL    HW222560   2.347   8.833   2.679  1.5527  1.0821  1.2083
 7328SOL     OW22561   4.163   6.291   3.743  0.2230 -0.3158 -0.2813
 7328SOL    HW122562   4.098   6.254   3.803  2.0482 -0.3913  1.7508
 7328SOL    HW222563   4.158   6.234   3.665 -2.4429 -0.0011 -0.4372
 7329SOL     OW22564   9.369   5.997   1.056  0.2245  0.3375 -0.5915
 7329SOL    HW122565   9.421   5.946   1.118  0.3551 -0.0062 -0.9723
 7329SOL    HW222566   9.281   5.997   1.092  0.4290  0.6582 -0.0972
 7330SOL     OW22567   7.652   1.742   4.761 -0.6067  0.8298 -0.0740
 7330SOL    HW122568   7.660   1.808   4.691  1.1601  0.0043 -0.7108
 7330SOL    HW222569   7.714   1.771   4.828 -0.7051  0.4534  0.1785
 7331SOL     OW22570   9.935   7.652   7.052  0.2130 -0.1885 -0.3570
 7331SOL    HW122571   9.924   7.602   7.133 -1.3778 -0.3431 -0.6324
 7331SOL    HW222572   9.980   7.592   6.993 -0.1242 -0.6770 -0.1261
 7332SOL     OW22573   9.043   3.859   5.200 -0.1229  0.1588  0.1850
 7332SOL    HW122574   9.127   3.898   5.180 -0.0187  0.2678  0.7999
 7332SOL    HW222575   8.989   3.932   5.231 -0.5932  0.1697 -0.6426
 7333SOL     OW22576   2.189   3.851   9.651 -0.5168  0.1839 -0.1031
 7333SOL    HW122577   2.146   3.781   9.601  0.5892 -1.9577  1.7663
 7333SOL    HW222578   2.239   3.900   9.585 -1.1256 -0.9226 -1.4525
 7334SOL     OW22579   4.534   9.849   2.470  0.4871 -0.4327 -0.2059
 7334SOL    HW122580   4.578   9.768   2.498  0.2656 -0.5413 -0.1736
 7334SOL    HW222581   4.588   9.881   2.397  1.3572  0.1144  0.6452
 7335SOL     OW22582   1.497   5.985   9.506  0.1758  0.3808 -0.2552
 7335SOL    HW122583   1.517   5.898   9.470 -0.3569  0.6918 -1.3567
 7335SOL    HW222584   1.411   5.976   9.545 -0.1044  0.5224 -0.8210
 7336SOL     OW22585   2.747   0.828   4.656 -0.1119 -0.3275  0.1092
 7336SOL    HW122586   2.765   0.900   4.717 -0.5568 -0.1750  0.0668
 7336SOL    HW222587   2.829   0.779   4.652 -0.1525 -0.4980  1.0461
 7337SOL     OW22588   1.048   8.096   9.715 -0.1475  0.0267  0.1745
 7337SOL    HW122589   1.098   8.057   9.643  0.6544 -0.2524  0.8663
 7337SOL    HW222590   0.987   8.156   9.672  0.8382  0.4478 -0.6952
 7338SOL     OW22591   2.762   3.503   5.999 -0.0700 -0.0837  0.1916
 7338SOL    HW122592   2.728   3.532   5.914  1.7569  0.7941 -0.2911
 7338SOL    HW222593   2.812   3.423   5.979 -1.8456 -1.4523  0.9142
 7339SOL     OW22594   8.221   3.960   5.999  0.3846  0.0377 -0.1596
 7339SOL    HW122595   8.298   3.927   5.952 -1.0457 -1.2379 -1.7536
 7339SOL    HW222596   8.213   3.903   6.075 -0.5341 -1.6963 -1.4842
 7340SOL     OW22597   5.112   2.054   3.623  0.4511  0.0878  0.5659
 7340SOL    HW122598   5.165   2.009   3.557  0.2487 -2.0490  1.7614
 7340SOL    HW222599   5.044   2.099   3.573  0.9088 -0.6138 -0.7432
 7341SOL     OW22600   8.862   0.670   6.979  0.1199  0.3568  0.1202
 7341SOL    HW122601   8.855   0.589   6.928  0.0793  0.0419  0.6232
 7341SOL    HW222602   8.956   0.687   6.982  0.1922 -0.1013  0.6732
 7342SOL     OW22603   4.659   1.627   4.989  0.4086 -0.0770 -0.0908
 7342SOL    HW122604   4.693   1.698   5.044  0.5857  1.0204 -1.5449
 7342SOL    HW222605   4.568   1.616   5.016  1.0203 -1.0063  1.8092
 7343SOL     OW22606   8.709   2.915   5.881  0.6280  0.1175 -0.1974
 7343SOL    HW122607   8.785   2.942   5.932  1.0161 -0.5167 -0.4387
 7343SOL    HW222608   8.635   2.925   5.942  1.0856 -0.6641  0.5020
 7344SOL     OW22609   7.226   2.957   3.988  0.3163 -0.0089  0.2067
 7344SOL    HW122610   7.241   3.052   3.988  2.1001 -0.0556 -4.3546
 7344SOL    HW222611   7.314   2.919   3.994 -0.2057 -1.3189 -0.1435
 7345SOL     OW22612   6.913   1.949   5.975 -0.1931 -0.0254 -0.2755
 7345SOL    HW122613   6.943   1.952   5.884  0.8177  2.0032  0.0633
 7345SOL    HW222614   6.949   2.029   6.015 -0.4070 -0.9778  1.9742
 7346SOL     OW22615   0.739   8.030   2.918 -0.3481 -0.0366 -0.0846
 7346SOL    HW122616   0.817   8.065   2.962 -0.9635  0.4379  0.6561
 7346SOL    HW222617   0.758   8.041   2.825  0.6722 -0.3857  0.0603
 7347SOL     OW22618   7.864   3.257   2.382 -0.2298  0.3807 -0.5493
 7347SOL    HW122619   7.953   3.269   2.347 -0.4406 -1.1059 -1.6909
 7347SOL    HW222620   7.875   3.257   2.477  1.0621 -0.3204 -0.6794
 7348SOL     OW22621   2.232   5.947   9.711 -0.7295  0.5339 -0.0537
 7348SOL    HW122622   2.173   5.897   9.655 -0.7823 -0.0679  0.5240
 7348SOL    HW222623   2.304   5.972   9.653  0.7653 -2.6637  0.1951
 7349SOL     OW22624   8.111   0.100   3.641  0.1104 -0.2460 -0.1734
 7349SOL    HW122625   8.189   0.154   3.654  0.9796 -1.5540  0.1715
 7349SOL    HW222626   8.097   0.101   3.546  0.0389  0.6488 -0.1689
 7350SOL     OW22627   9.318   1.961   5.208  0.0521  0.4866 -0.5082
 7350SOL    HW122628   9.244   1.908   5.239 -0.5916  1.2325 -0.7240
 7350SOL    HW222629   9.285   2.001   5.128  0.6882  0.8535 -0.5855
 7351SOL     OW22630   8.951   1.476   8.162 -0.3816 -0.3951  0.1182
 7351SOL    HW122631   8.972   1.397   8.113  1.9611  0.8705 -1.0882
 7351SOL    HW222632   8.940   1.447   8.252  1.0691 -2.0124 -0.1967
 7352SOL     OW22633   8.991   0.810   4.234 -0.0849  0.4735 -0.4147
 7352SOL    HW122634   8.950   0.891   4.262  1.1743  0.5389  1.3956
 7352SOL    HW222635   8.948   0.789   4.150 -0.4838  2.9274 -0.8994
 7353SOL     OW22636   0.568   5.707   3.357 -0.0447 -0.1007  0.0201
 7353SOL    HW122637   0.637   5.724   3.422 -0.3517  1.9704 -0.1186
 7353SOL    HW222638   0.589   5.766   3.284 -3.3517  2.6854  1.0680
 7354SOL     OW22639   2.122   8.447   7.269 -0.2617  0.3071 -0.4040
 7354SOL    HW122640   2.061   8.503   7.221  1.0525  0.9176 -1.4237
 7354SOL    HW222641   2.187   8.420   7.204  1.2711  0.6993  0.8957
 7355SOL     OW22642   8.296   1.257   1.720  0.5391 -0.0353  0.3519
 7355SOL    HW122643   8.327   1.222   1.637  1.5178  0.2793  0.5691
 7355SOL    HW222644   8.317   1.350   1.716  1.1140 -0.1219  1.1784
 7356SOL     OW22645   0.368   6.719   8.508  0.4046  0.2969  0.0358
 7356SOL    HW122646   0.309   6.776   8.557  0.4530 -0.3912  0.9242
 7356SOL    HW222647   0.318   6.638   8.494  1.0013 -0.1695  0.5095
 7357SOL     OW22648   0.011   4.884   6.485 -0.1921  0.6305 -0.1890
 7357SOL    HW122649   0.090   4.830   6.490 -1.2313 -1.1016 -1.2711
 7357SOL    HW222650   0.043   4.974   6.479  1.6151  0.1669  1.6216
 7358SOL     OW22651   0.586   0.867   5.388 -0.4584 -0.6695 -0.2291
 7358SOL    HW122652   0.666   0.819   5.366  0.3828  1.1091 -1.1997
 7358SOL    HW222653   0.605   0.958   5.367 -2.0717  0.1160  1.3684
 7359SOL     OW22654   8.978   2.401   5.297  0.3378  0.4978  0.2595
 7359SOL    HW122655   9.002   2.312   5.324  0.4837  0.5550  0.3245
 7359SOL    HW222656   8.991   2.454   5.376  0.6665  0.6491  0.1073
 7360SOL     OW22657   0.291   0.933   7.514  0.6544  0.0101 -0.2270
 7360SOL    HW122658   0.241   1.010   7.485  1.0224  1.9492  3.5879
 7360SOL    HW222659   0.370   0.934   7.460  0.9092  2.7502  0.0386
 7361SOL     OW22660   6.740   2.403   4.554  0.4441 -0.1813  0.7296
 7361SOL    HW122661   6.681   2.443   4.491  0.5444 -1.6625 -0.3466
 7361SOL    HW222662   6.703   2.425   4.640 -1.3452 -0.5975  0.0913
 7362SOL     OW22663   4.283   5.206   9.340  0.0479  0.0839 -0.0778
 7362SOL    HW122664   4.258   5.290   9.378 -3.5785 -1.4401  1.3758
 7362SOL    HW222665   4.271   5.143   9.412 -0.5345 -2.0653 -1.9576
 7363SOL     OW22666   9.381   8.875   8.104  0.7362 -0.4165 -0.2558
 7363SOL    HW122667   9.365   8.839   8.191 -0.1154  2.3103  0.7905
 7363SOL    HW222668   9.414   8.800   8.053 -0.2114 -2.4407  1.9403
 7364SOL     OW22669   8.475   4.188   1.004  0.0098 -0.3379  0.0674
 7364SOL    HW122670   8.416   4.165   1.076 -0.5433  0.2333 -0.1901
 7364SOL    HW222671   8.479   4.284   1.007 -0.9090 -0.2216 -1.3381
 7365SOL     OW22672   4.135   8.742   3.450  0.7226  0.3461  0.7813
 7365SOL    HW122673   4.197   8.670   3.434  1.2630  1.0763 -0.6437
 7365SOL    HW222674   4.054   8.714   3.407  0.7245  0.2968  0.8101
 7366SOL     OW22675   6.315   3.959   5.735 -0.6247 -0.1109  0.4465
 7366SOL    HW122676   6.279   4.021   5.799 -1.7742 -1.5642  1.2454
 7366SOL    HW222677   6.409   3.962   5.751 -0.5453  1.9496 -0.0354
 7367SOL     OW22678   0.265   4.647   7.430  0.0837  0.0538 -0.4583
 7367SOL    HW122679   0.334   4.692   7.478 -0.0571 -2.0398  1.9057
 7367SOL    HW222680   0.309   4.577   7.383 -0.0134  1.0248 -2.0649
 7368SOL     OW22681   9.367   9.926   1.134  0.3680 -0.2019  0.0730
 7368SOL    HW122682   9.404   9.880   1.058  1.2419  0.6361 -0.0291
 7368SOL    HW222683   9.277   9.894   1.140  0.4953 -0.7862 -0.9067
 7369SOL     OW22684   6.682   2.577   7.575 -0.0700  0.0841 -0.0490
 7369SOL    HW122685   6.617   2.602   7.509  0.4106  0.3833 -0.4175
 7369SOL    HW222686   6.765   2.571   7.526  0.6082  1.8687  0.7880
 7370SOL     OW22687   4.250   5.362   7.006 -0.5061 -0.4683  0.1046
 7370SOL    HW122688   4.223   5.277   6.972  0.7155 -1.4280  1.4444
 7370SOL    HW222689   4.194   5.425   6.959 -1.4373 -1.9786 -0.9057
 7371SOL     OW22690   2.429   2.146   9.372  0.8336 -0.0557  0.6128
 7371SOL    HW122691   2.487   2.111   9.305  1.1868 -0.1157  0.9472
 7371SOL    HW222692   2.341   2.139   9.334  0.8604 -1.5162  0.7631
 7372SOL     OW22693   1.144   1.599   7.433  0.8418  0.5601 -0.1279
 7372SOL    HW122694   1.144   1.503   7.434  0.5596  0.4852 -2.0748
 7372SOL    HW222695   1.067   1.624   7.483  1.3922 -0.1843  1.1347
 7373SOL     OW22696   1.223   9.021   0.211 -0.4310 -0.3997 -0.2716
 7373SOL    HW122697   1.242   9.023   0.117  0.0955  2.3965 -0.1923
 7373SOL    HW222698   1.143   9.072   0.220 -0.9640 -1.3807  0.7341
 7374SOL     OW22699   2.075   5.644   2.155  0.2097  0.0497  0.4293
 7374SOL    HW122700   2.129   5.689   2.221  1.3352  1.1325 -1.1647
 7374SOL    HW222701   1.985   5.665   2.180  0.6260  0.8985  1.3048
 7375SOL     OW22702   7.649   8.114   1.342  0.1604  0.1872  0.1409
 7375SOL    HW122703   7.632   8.187   1.282 -0.4353 -0.2858 -0.2721
 7375SOL    HW222704   7.630   8.149   1.429  0.3026  0.6572 -0.0177
 7376SOL     OW22705   5.962   9.848   5.909 -0.0954 -0.4054 -0.4923
 7376SOL    HW122706   5.951   9.935   5.945 -1.2336 -1.0097  0.7136
 7376SOL    HW222707   5.883   9.833   5.857 -0.5213 -1.1540  0.3272
 7377SOL     OW22708   9.248   1.427   2.332  0.9254  0.2661  0.0718
 7377SOL    HW122709   9.290   1.373   2.264 -0.6452  0.6102 -1.2291
 7377SOL    HW222710   9.183   1.369   2.372  0.6905  0.5707  0.1327
 7378SOL     OW22711   8.939   1.848   3.399  0.2810 -0.1119  0.0283
 7378SOL    HW122712   8.894   1.876   3.320  0.2645 -0.4538 -0.0850
 7378SOL    HW222713   9.024   1.891   3.396  0.7217 -1.0006 -0.7458
 7379SOL     OW22714   7.656   5.415   3.088 -0.1118 -0.2922  0.0259
 7379SOL    HW122715   7.650   5.509   3.070  0.5168 -0.2156  0.1890
 7379SOL    HW222716   7.726   5.407   3.152 -0.7621 -0.7904  0.6973
 7380SOL     OW22717   0.350   0.735   0.988  0.3024  0.4597 -0.8006
 7380SOL    HW122718   0.387   0.759   1.074  0.9388 -1.5593 -0.4584
 7380SOL    HW222719   0.416   0.765   0.925  0.5328  0.6432 -0.4776
 7381SOL     OW22720   7.173   4.302   7.203  0.5323  0.0701 -0.2182
 7381SOL    HW122721   7.244   4.345   7.156  0.2754 -0.0864 -0.7592
 7381SOL    HW222722   7.201   4.302   7.294  0.2264  2.0341 -0.0725
 7382SOL     OW22723   3.329   1.264   3.732 -0.1107  0.2484 -0.2021
 7382SOL    HW122724   3.317   1.289   3.824 -1.5459  0.7942 -0.5173
 7382SOL    HW222725   3.381   1.336   3.695 -1.6693  1.3445 -0.3837
 7383SOL     OW22726   2.790   0.365   4.678  0.1539  0.4810 -0.3406
 7383SOL    HW122727   2.746   0.450   4.674 -0.4055  0.1826 -0.7038
 7383SOL    HW222728   2.754   0.316   4.604  0.3553 -0.1306 -0.0382
 7384SOL     OW22729   3.261   5.647   5.113  0.5123 -0.4869 -0.2332
 7384SOL    HW122730   3.304   5.561   5.108  0.2904 -0.5373 -1.6703
 7384SOL    HW222731   3.170   5.629   5.090  0.4088  0.1003 -0.2747
 7385SOL     OW22732   4.929   1.105   0.565  0.1885 -0.1817 -0.3166
 7385SOL    HW122733   4.915   1.126   0.657  0.6822 -0.2910 -0.2150
 7385SOL    HW222734   4.856   1.048   0.542 -0.7965  1.0635 -0.4104
 7386SOL     OW22735   3.479   2.191   6.186  0.1811  0.7380 -0.4175
 7386SOL    HW122736   3.409   2.149   6.235 -1.1612  1.0222 -2.0041
 7386SOL    HW222737   3.518   2.119   6.135  2.3941  0.1918  1.8539
 7387SOL     OW22738   6.290   3.709   6.335  0.1680  0.2888 -0.4445
 7387SOL    HW122739   6.242   3.786   6.367 -0.7372 -0.3132 -0.3099
 7387SOL    HW222740   6.273   3.709   6.241 -0.7298 -0.3396 -0.2921
 7388SOL     OW22741   4.162   9.954   7.700 -0.3388  0.4656  0.3242
 7388SOL    HW122742   4.088   9.913   7.744 -1.7874  1.1197 -1.3910
 7388SOL    HW222743   4.190   9.889   7.635 -0.9081  1.0970 -0.5742
 7389SOL     OW22744   1.745   5.410   4.036 -0.1858  0.1768  0.3495
 7389SOL    HW122745   1.779   5.326   4.069  2.1439  0.3663 -1.2967
 7389SOL    HW222746   1.812   5.474   4.060 -1.0138  1.2381 -0.1078
 7390SOL     OW22747   5.578   1.408   0.017  0.4214  0.0892 -0.0063
 7390SOL    HW122748   5.513   1.473  -0.009  1.2527  1.1800  0.5628
 7390SOL    HW222749   5.596   1.429   0.109  0.6087 -1.0420  0.2259
 7391SOL     OW22750   6.007   6.863   0.313 -0.4863  0.4244 -0.0375
 7391SOL    HW122751   5.989   6.905   0.229 -0.9075  0.6054  0.1417
 7391SOL    HW222752   6.040   6.933   0.369 -0.1300  0.2884 -0.0719
 7392SOL     OW22753   0.820   2.970   9.263  0.1645  0.0177  0.2131
 7392SOL    HW122754   0.741   2.920   9.244  0.6906 -0.1471 -1.8027
 7392SOL    HW222755   0.851   2.936   9.346  0.5091 -3.1092 -1.0596
 7393SOL     OW22756   8.489   0.113   7.123 -0.3502 -0.1704  0.0485
 7393SOL    HW122757   8.422   0.155   7.177 -0.5006 -0.2657 -0.0625
 7393SOL    HW222758   8.508   0.178   7.055 -1.4605 -0.7414 -0.8433
 7394SOL     OW22759   8.410   3.192   1.614  0.2180  0.4627  0.1758
 7394SOL    HW122760   8.505   3.203   1.614  0.0809  1.8569 -0.5944
 7394SOL    HW222761   8.377   3.264   1.666 -0.4434  0.1061  0.2589
 7395SOL     OW22762   7.556   5.349   2.587  0.5000  0.5184 -0.4846
 7395SOL    HW122763   7.647   5.329   2.610  0.5747  1.7232  0.3639
 7395SOL    HW222764   7.534   5.284   2.521  1.3657 -0.9795  0.6242
 7396SOL     OW22765   5.566   2.858   3.364 -0.3266 -0.0210  0.3950
 7396SOL    HW122766   5.472   2.874   3.378 -0.6388 -2.3965  1.5785
 7396SOL    HW222767   5.568   2.784   3.303  0.6909 -1.2899  1.8966
 7397SOL     OW22768   4.539   5.840   0.683 -0.0635  0.0662  0.3192
 7397SOL    HW122769   4.509   5.874   0.767 -1.3758  0.7084 -0.3642
 7397SOL    HW222770   4.558   5.918   0.631  0.4242 -0.3166 -0.0806
 7398SOL     OW22771   2.470   2.487   0.089 -0.1798 -0.1838 -0.2885
 7398SOL    HW122772   2.542   2.535   0.131  0.6210 -1.0964 -0.5878
 7398SOL    HW222773   2.400   2.488   0.154 -0.3437  1.7041 -0.4237
 7399SOL     OW22774   1.979   5.030   8.667 -0.4304  0.5990  0.5250
 7399SOL    HW122775   2.023   5.109   8.637  0.1723  0.2085  0.3596
 7399SOL    HW222776   1.886   5.047   8.652 -0.2241  0.8339 -0.5894
 7400SOL     OW22777   0.897   0.732   9.111 -0.4767 -0.3340 -0.5079
 7400SOL    HW122778   0.959   0.661   9.122 -1.3296 -1.1708 -0.9744
 7400SOL    HW222779   0.831   0.698   9.051 -0.9198  0.8416 -0.7271
 7401SOL     OW22780   2.491   5.317   1.707 -0.1484  0.0212  0.2263
 7401SOL    HW122781   2.441   5.236   1.718 -1.0608  0.7196  1.4532
 7401SOL    HW222782   2.499   5.353   1.795 -0.5421  1.7129 -0.3873
 7402SOL     OW22783   0.790   4.712   3.175  0.1207  0.2570 -0.2517
 7402SOL    HW122784   0.778   4.671   3.090  0.9924  1.2906 -0.9052
 7402SOL    HW222785   0.703   4.748   3.197 -0.2940 -0.6861 -0.3245
 7403SOL     OW22786   7.496   2.257   3.044 -0.4053 -0.0548  0.0666
 7403SOL    HW122787   7.474   2.330   3.101  1.0931 -0.1170  0.7726
 7403SOL    HW222788   7.502   2.182   3.102 -0.7412 -0.5119 -0.4753
 7404SOL     OW22789   3.076   5.712   2.378  1.1453  0.0723 -0.0635
 7404SOL    HW122790   3.044   5.707   2.468  0.0421  1.2003 -0.3565
 7404SOL    HW222791   2.996   5.712   2.324  1.7777 -0.4595 -1.0336
 7405SOL     OW22792   7.249   8.993   7.662 -0.0273  0.0134 -0.0303
 7405SOL    HW122793   7.193   8.931   7.615 -1.6979  1.3325  0.1457
 7405SOL    HW222794   7.192   9.032   7.728  0.5496  2.6532 -0.9464
 7406SOL     OW22795   4.965   9.308   4.110  0.1927 -0.3663  0.1793
 7406SOL    HW122796   5.056   9.320   4.137  0.4488 -0.1720 -0.7296
 7406SOL    HW222797   4.918   9.383   4.146  0.3353 -0.5933  0.8583
 7407SOL     OW22798   1.072   4.286   8.670 -0.2388  0.3673 -0.7792
 7407SOL    HW122799   1.149   4.281   8.613  1.3753 -1.5942  1.3958
 7407SOL    HW222800   1.037   4.197   8.672 -0.6529  0.5369  0.7115
 7408SOL     OW22801   5.126   2.714   0.216 -0.2886 -0.6276  0.9880
 7408SOL    HW122802   5.161   2.627   0.237 -0.6432 -0.8873  0.5282
 7408SOL    HW222803   5.194   2.775   0.246  1.1480 -1.1470 -0.9540
 7409SOL     OW22804   0.150   1.781   5.315  0.5840 -0.2816  0.0869
 7409SOL    HW122805   0.216   1.765   5.248 -0.7537  0.4923 -1.4791
 7409SOL    HW222806   0.073   1.811   5.267 -0.4129  0.3882  1.9788
 7410SOL     OW22807   6.964   0.074   9.883 -0.6257  0.0303 -0.8204
 7410SOL    HW122808   6.977   0.122   9.965  0.3269  0.7385 -1.3618
 7410SOL    HW222809   6.876   0.098   9.854 -0.5253  0.6821 -0.5878
 7411SOL     OW22810   9.552   4.875   8.700 -0.5228 -0.0334 -0.5815
 7411SOL    HW122811   9.474   4.901   8.650 -1.1502  1.1336  0.9206
 7411SOL    HW222812   9.520   4.865   8.790  0.1150 -4.1001 -0.6240
 7412SOL     OW22813   2.567   9.184   0.184  0.2050  0.1293  0.8304
 7412SOL    HW122814   2.535   9.159   0.098 -0.0673  0.8338  0.7173
 7412SOL    HW222815   2.658   9.154   0.186 -0.3209 -1.5382  1.0102
 7413SOL     OW22816   8.102   2.835   4.430  0.3474  0.7111 -0.5390
 7413SOL    HW122817   8.132   2.919   4.396  1.3788  0.7884  0.5063
 7413SOL    HW222818   8.102   2.777   4.354 -0.0421  1.5577 -1.2004
 7414SOL     OW22819   1.949   3.230   2.715 -0.3504 -0.0101 -0.3836
 7414SOL    HW122820   1.992   3.312   2.737 -0.6446 -0.2605  1.2998
 7414SOL    HW222821   1.952   3.179   2.796 -2.4577 -0.6264 -0.6274
 7415SOL     OW22822   8.953   9.760   0.413  0.6266  0.0295 -0.6256
 7415SOL    HW122823   9.005   9.680   0.419  1.6092  0.6947 -0.1839
 7415SOL    HW222824   9.017   9.831   0.409 -0.2256  0.7961 -1.2349
 7416SOL     OW22825   6.988   5.300   0.028  0.2726 -0.3688  0.0942
 7416SOL    HW122826   6.913   5.246   0.004  0.2990  0.0427 -0.9563
 7416SOL    HW222827   7.058   5.238   0.046 -0.3950 -0.7708  1.4134
 7417SOL     OW22828   5.184   3.302   8.443  0.4084  0.4531  0.4116
 7417SOL    HW122829   5.219   3.218   8.471  0.2390  0.0476 -0.5325
 7417SOL    HW222830   5.236   3.367   8.490  0.6811 -0.1718  0.9953
 7418SOL     OW22831   6.832   9.765   1.161  0.3009 -0.6099  0.4022
 7418SOL    HW122832   6.854   9.836   1.221  0.2011 -0.3999  0.1889
 7418SOL    HW222833   6.859   9.686   1.208  1.2021 -0.3815  0.2836
 7419SOL     OW22834   4.774   2.784   1.628 -0.6348  1.1810  0.3155
 7419SOL    HW122835   4.785   2.698   1.587  0.2092  1.1600  0.5618
 7419SOL    HW222836   4.743   2.841   1.557  0.2231  1.0069 -0.2222
 7420SOL     OW22837   4.589   2.221   5.248  0.2144 -0.0127 -0.3383
 7420SOL    HW122838   4.549   2.305   5.271 -1.9849 -1.0877  0.0390
 7420SOL    HW222839   4.540   2.191   5.172 -1.1482 -2.2945  1.3248
 7421SOL     OW22840   0.177   6.483   0.290  0.0537  0.2636  0.3133
 7421SOL    HW122841   0.171   6.469   0.195  1.6183  1.9205 -0.0924
 7421SOL    HW222842   0.145   6.572   0.302 -1.6361 -0.4789  1.5955
 7422SOL     OW22843   4.468   5.102   9.904  0.1892 -0.2411 -0.0062
 7422SOL    HW122844   4.373   5.094   9.914  0.2341 -2.1871 -0.7068
 7422SOL    HW222845   4.480   5.141   9.817  0.0353 -0.1269  0.0240
 7423SOL     OW22846   2.525   8.923   9.062 -0.6923 -0.3206 -0.3247
 7423SOL    HW122847   2.515   9.018   9.065  1.1998 -0.1085  0.0533
 7423SOL    HW222848   2.589   8.908   8.992  1.1013 -1.0771  1.3870
 7424SOL     OW22849   4.273   2.994   4.145  0.0940 -0.1423 -0.4736
 7424SOL    HW122850   4.282   3.050   4.068  2.2570  0.6792  0.3038
 7424SOL    HW222851   4.264   3.055   4.219  0.5266 -0.8410  0.1787
 7425SOL     OW22852   0.465   5.133   6.766 -0.7447  0.3848 -0.0845
 7425SOL    HW122853   0.464   5.228   6.758  0.2108  0.3644 -0.6145
 7425SOL    HW222854   0.388   5.112   6.819 -1.3477  1.3951 -0.5393
 7426SOL     OW22855   0.194   5.189   1.712 -0.4167  0.1937  0.6475
 7426SOL    HW122856   0.128   5.136   1.757 -0.4309  0.4624  0.9399
 7426SOL    HW222857   0.269   5.188   1.770 -0.1071 -0.2338  0.2471
 7427SOL     OW22858   9.648   9.217   5.834 -0.1658 -0.1938  0.6823
 7427SOL    HW122859   9.570   9.162   5.832 -1.4831  1.5802  1.4902
 7427SOL    HW222860   9.707   9.172   5.895 -0.2718 -1.8560 -0.3776
 7428SOL     OW22861   4.160   1.263   7.745  0.2824  0.2811  0.2955
 7428SOL    HW122862   4.158   1.169   7.727  1.8608  0.3369 -0.3920
 7428SOL    HW222863   4.191   1.302   7.663 -0.9126  1.4785  0.3804
 7429SOL     OW22864   9.762   8.057   8.804 -0.1331  0.1270 -0.1540
 7429SOL    HW122865   9.674   8.083   8.831  0.5023  0.8348  1.3413
 7429SOL    HW222866   9.790   8.127   8.745  0.3949  1.3236  1.4448
 7430SOL     OW22867   0.992   3.832   5.076 -0.2423 -0.3503  0.1949
 7430SOL    HW122868   0.922   3.782   5.034 -0.4516 -0.9708  1.2204
 7430SOL    HW222869   1.026   3.772   5.144  1.2283 -0.0306 -0.2279
 7431SOL     OW22870   7.142   5.951   0.771  0.3348 -0.1403  0.5912
 7431SOL    HW122871   7.049   5.932   0.779 -0.0364  1.3197  0.0732
 7431SOL    HW222872   7.182   5.913   0.849 -0.7541 -0.3770  1.0442
 7432SOL     OW22873   0.223   1.146   0.904  0.0875 -0.3269  0.1827
 7432SOL    HW122874   0.225   1.124   0.811 -0.4840 -0.4322  0.1924
 7432SOL    HW222875   0.130   1.145   0.927  0.2331 -0.4266  0.7835
 7433SOL     OW22876   0.768   4.380   0.586 -0.1587 -0.2072  0.5520
 7433SOL    HW122877   0.762   4.456   0.643  2.5695 -0.5888  1.5183
 7433SOL    HW222878   0.837   4.403   0.523 -0.6139 -1.1683 -0.3298
 7434SOL     OW22879   7.111   1.858   5.402 -0.8889  0.4893  0.0071
 7434SOL    HW122880   7.147   1.770   5.395 -1.1913  0.2887  0.8572
 7434SOL    HW222881   7.151   1.907   5.330 -1.5349 -0.6217 -1.1472
 7435SOL     OW22882   3.040   6.670   8.176  0.0373  0.3388  0.1239
 7435SOL    HW122883   2.952   6.640   8.154  0.6173 -0.0071 -1.8862
 7435SOL    HW222884   3.095   6.593   8.168  0.5941  0.6095  1.1179
 7436SOL     OW22885   4.750   9.967   5.176  0.2397 -0.3360  0.4326
 7436SOL    HW122886   4.696   9.958   5.098 -0.3784  2.4809  0.4257
 7436SOL    HW222887   4.689   9.986   5.247  0.9298 -1.0585  1.2487
 7437SOL     OW22888   5.428   9.128   6.017  0.0811  0.3162 -0.0941
 7437SOL    HW122889   5.501   9.106   5.958  0.3895 -1.6781  0.9398
 7437SOL    HW222890   5.455   9.210   6.058  0.7497  0.7212 -1.2849
 7438SOL     OW22891   8.272   7.975   2.316 -0.4601  0.1678 -0.0401
 7438SOL    HW122892   8.348   7.970   2.258  1.1834  0.8617  1.9195
 7438SOL    HW222893   8.249   7.884   2.334  0.6934 -0.0724  0.2831
 7439SOL     OW22894   3.630   3.638   2.671  0.5634  0.3196 -0.0706
 7439SOL    HW122895   3.594   3.550   2.662  0.5137  0.3371 -0.0444
 7439SOL    HW222896   3.619   3.678   2.585 -2.6592  1.5315  0.7559
 7440SOL     OW22897   5.132   4.655   9.527  0.3782 -0.1079 -0.3604
 7440SOL    HW122898   5.183   4.575   9.516  0.0100 -0.2276 -1.2844
 7440SOL    HW222899   5.069   4.654   9.455 -0.4426  0.4105  0.3263
 7441SOL     OW22900   8.788   7.678   7.288  0.1556  0.6179  0.2796
 7441SOL    HW122901   8.829   7.692   7.373 -0.0600 -0.9511  0.6747
 7441SOL    HW222902   8.839   7.608   7.247 -1.3706 -0.5665  0.3076
 7442SOL     OW22903   7.794   3.625   6.153 -0.4491 -0.5182 -0.2294
 7442SOL    HW122904   7.884   3.658   6.148  0.2513 -2.4304 -1.4584
 7442SOL    HW222905   7.803   3.530   6.141 -2.6082 -0.7787 -0.0631
 7443SOL     OW22906   0.103   3.179   2.650  0.0414 -0.3639  0.5677
 7443SOL    HW122907   0.042   3.243   2.686 -0.4413 -0.3187 -0.2972
 7443SOL    HW222908   0.113   3.114   2.719  0.1633  0.3803  1.2781
 7444SOL     OW22909   7.852   4.791   0.464  0.5004  0.1799 -0.4939
 7444SOL    HW122910   7.872   4.745   0.382 -1.6577 -1.0669 -0.4220
 7444SOL    HW222911   7.765   4.758   0.489  0.0318  2.3316  1.0402
 7445SOL     OW22912   2.915   6.925   1.756 -0.2129 -0.0934  0.0577
 7445SOL    HW122913   2.841   6.928   1.695  0.3522  5.0961 -0.8432
 7445SOL    HW222914   2.987   6.964   1.707  2.1614 -1.7111  2.0565
 7446SOL     OW22915   8.428   7.832   9.996  0.4545  1.1459 -0.1468
 7446SOL    HW122916   8.347   7.840   9.946 -0.1637 -0.7773  0.4879
 7446SOL    HW222917   8.497   7.839   9.930 -0.3143 -0.1129 -1.1269
 7447SOL     OW22918   4.790   8.361   3.837 -0.1740 -0.6588  0.4586
 7447SOL    HW122919   4.770   8.305   3.762  0.8747 -0.3783 -0.0451
 7447SOL    HW222920   4.779   8.304   3.913 -1.3171 -0.9308  0.1144
 7448SOL     OW22921   2.313   3.596   0.433  1.0473 -0.6592 -0.3246
 7448SOL    HW122922   2.288   3.513   0.472  0.8526 -0.5055 -0.1190
 7448SOL    HW222923   2.231   3.629   0.395  1.4006 -1.2079 -1.6138
 7449SOL     OW22924   5.413   9.941   4.051 -0.4131 -0.3879 -0.1180
 7449SOL    HW122925   5.357  10.017   4.038 -0.8064 -0.9270 -1.8662
 7449SOL    HW222926   5.450   9.953   4.139  0.2041  2.2393 -0.6424
 7450SOL     OW22927   6.779   0.328   0.424  0.1430  0.2586 -0.8008
 7450SOL    HW122928   6.823   0.411   0.443 -0.3323  0.7162 -1.6855
 7450SOL    HW222929   6.827   0.264   0.477 -0.1244  1.2351  0.6813
 7451SOL     OW22930   0.340   4.930   7.448 -0.3775 -0.8063 -0.0008
 7451SOL    HW122931   0.272   4.927   7.516  0.1914  0.8573  0.7024
 7451SOL    HW222932   0.298   4.893   7.371 -1.3430 -1.9187  1.0062
 7452SOL     OW22933   2.506   5.894   5.395  0.3370 -0.1140 -0.5452
 7452SOL    HW122934   2.437   5.875   5.458  1.3694  0.9796  0.9743
 7452SOL    HW222935   2.460   5.932   5.320 -0.8190 -0.5859 -0.0953
 7453SOL     OW22936   5.908   5.540   3.997 -0.5015  0.1490  0.0707
 7453SOL    HW122937   5.883   5.509   4.084  1.0234  1.6078  1.0716
 7453SOL    HW222938   5.972   5.476   3.966 -0.7864 -0.1817  0.1591
 7454SOL     OW22939   1.046   7.385   1.496  0.2019  0.2597 -0.0501
 7454SOL    HW122940   1.028   7.292   1.507  1.7072  0.0698  1.2383
 7454SOL    HW222941   1.110   7.388   1.425  0.4703  0.2470  0.1853
 7455SOL     OW22942   9.545   4.572   8.869 -0.1898  0.2563 -0.1859
 7455SOL    HW122943   9.613   4.638   8.883  0.0204 -0.1124  0.5795
 7455SOL    HW222944   9.555   4.511   8.942  1.0779 -1.8862 -1.9860
 7456SOL     OW22945   5.801   2.578   2.907  1.0666 -0.6248 -0.5124
 7456SOL    HW122946   5.758   2.500   2.873  0.8452 -0.1522 -1.3193
 7456SOL    HW222947   5.866   2.601   2.841 -0.0215  0.8639 -1.1077
 7457SOL     OW22948   1.965   2.606   8.037 -0.1526  0.2454 -0.1188
 7457SOL    HW122949   1.956   2.512   8.051  0.3866  0.5819  3.4054
 7457SOL    HW222950   2.058   2.620   8.020 -0.4080  0.0852 -1.7842
 7458SOL     OW22951   8.451   3.193   8.011  0.0317  0.0953  0.1716
 7458SOL    HW122952   8.454   3.288   8.026 -1.2486  0.2293 -0.3054
 7458SOL    HW222953   8.412   3.184   7.924  0.6612 -0.8567 -0.0178
 7459SOL     OW22954   3.345   5.601   9.022 -0.0578 -0.6081 -0.2919
 7459SOL    HW122955   3.322   5.686   8.984  1.4202 -0.0654 -0.0521
 7459SOL    HW222956   3.436   5.612   9.051  0.6519 -2.7052 -1.4941
 7460SOL     OW22957   3.607   7.800   8.981  0.4392 -0.4285  0.2880
 7460SOL    HW122958   3.700   7.817   8.963  0.2429  0.2482 -0.0963
 7460SOL    HW222959   3.608   7.740   9.056  1.1586  0.8936  1.3761
 7461SOL     OW22960   3.347   5.877   8.930  0.8178  0.1087 -0.0369
 7461SOL    HW122961   3.319   5.929   8.854 -1.8691 -2.8523 -1.3258
 7461SOL    HW222962   3.283   5.898   8.998 -1.5547 -2.7067 -1.2121
 7462SOL     OW22963   7.873   3.950   6.132 -0.4527 -0.1641  0.1302
 7462SOL    HW122964   7.932   3.875   6.126 -2.0853 -1.4716 -0.2902
 7462SOL    HW222965   7.798   3.926   6.078 -0.5891  2.2350 -0.8691
 7463SOL     OW22966   8.261   6.921   3.161 -0.4223  0.3224 -0.2929
 7463SOL    HW122967   8.194   6.976   3.201  0.7335  1.8765 -0.3678
 7463SOL    HW222968   8.223   6.891   3.079 -1.7324 -0.4660  0.5826
 7464SOL     OW22969   7.298   5.840   5.255  0.2768 -0.4541 -0.0017
 7464SOL    HW122970   7.232   5.832   5.186 -0.5433  0.9602  0.5839
 7464SOL    HW222971   7.352   5.915   5.229  0.2533 -0.2027  0.6543
 7465SOL     OW22972   9.534   1.281   6.564  0.1372  0.3595  0.3163
 7465SOL    HW122973   9.598   1.317   6.626 -0.9133  1.4578  0.8204
 7465SOL    HW222974   9.574   1.294   6.478  1.4495 -0.8221  0.7160
 7466SOL     OW22975   1.318   6.235   8.364  0.0169  0.1066 -0.0517
 7466SOL    HW122976   1.328   6.139   8.368 -0.7982  0.0468  1.2915
 7466SOL    HW222977   1.308   6.254   8.271  0.9095 -1.0385 -0.4034
 7467SOL     OW22978   5.295   5.608   7.860 -0.0941  0.3508 -0.2846
 7467SOL    HW122979   5.255   5.644   7.780  0.9106  0.8799 -0.5646
 7467SOL    HW222980   5.273   5.671   7.928 -1.2184 -0.2579 -0.0580
 7468SOL     OW22981   7.404   1.746   6.590 -0.2621 -0.5395  0.2861
 7468SOL    HW122982   7.411   1.839   6.609 -0.1790 -0.5147  0.1395
 7468SOL    HW222983   7.323   1.737   6.541 -0.1904 -0.5225  0.1656
 7469SOL     OW22984   6.519   7.780   0.056  0.7577 -0.6316  0.0864
 7469SOL    HW122985   6.446   7.732   0.017  0.8476 -0.5291 -0.2120
 7469SOL    HW222986   6.497   7.785   0.149  0.9624 -1.6397  0.2076
 7470SOL     OW22987   4.997   1.449   2.252 -0.5277  0.2065 -0.5073
 7470SOL    HW122988   4.915   1.413   2.218 -0.8469  1.1649 -0.7680
 7470SOL    HW222989   4.993   1.542   2.232  0.5428  0.3007 -0.3456
 7471SOL     OW22990   7.616   7.111   0.752 -0.6878  0.1480 -0.2559
 7471SOL    HW122991   7.694   7.056   0.761 -0.2432  0.8524  0.3530
 7471SOL    HW222992   7.627   7.156   0.669 -0.7796 -0.2605 -0.4910
 7472SOL     OW22993   7.493   8.361   7.284 -0.8558 -0.2282  0.4073
 7472SOL    HW122994   7.402   8.387   7.296 -0.5866  0.3123  1.2785
 7472SOL    HW222995   7.541   8.443   7.272 -0.1125 -0.3016  2.4936
 7473SOL     OW22996   8.309   3.039   9.955  0.1744  0.0455  0.1430
 7473SOL    HW122997   8.267   3.082  10.029  0.6040 -3.4161  2.6690
 7473SOL    HW222998   8.391   3.087   9.942  0.1650  0.6690  2.0962
 7474SOL     OW22999   9.435   6.522   0.422 -0.1673  0.8424  0.5523
 7474SOL    HW123000   9.384   6.449   0.457  2.5341 -0.9885  1.0442
 7474SOL    HW223001   9.400   6.537   0.335 -1.4291 -0.3979  0.8158
 7475SOL     OW23002   5.284   4.007   2.642  0.4535 -0.1855  0.5990
 7475SOL    HW123003   5.245   3.985   2.558  1.2766 -0.3016  0.2380
 7475SOL    HW223004   5.300   3.922   2.684 -1.1217 -0.1087  1.4418
 7476SOL     OW23005   7.889   6.860   2.291 -0.7150  0.1783 -0.3054
 7476SOL    HW123006   7.909   6.816   2.208 -1.7523  1.0733 -1.0677
 7476SOL    HW223007   7.856   6.790   2.347 -2.1904 -0.0892 -1.4388
 7477SOL     OW23008   0.169   0.879   4.684  0.3040 -0.2662  0.1015
 7477SOL    HW123009   0.135   0.931   4.757 -1.7247 -0.3950 -0.6883
 7477SOL    HW223010   0.094   0.825   4.656  1.6430 -1.8109 -0.6854
 7478SOL     OW23011   6.244   4.549   5.263 -0.5290  0.2638 -0.2006
 7478SOL    HW123012   6.285   4.632   5.286 -1.2258  1.2375 -2.2544
 7478SOL    HW223013   6.160   4.550   5.310  0.2216 -0.1639  1.2255
 7479SOL     OW23014   5.952   4.629   4.512  0.0251  0.2098 -0.1543
 7479SOL    HW123015   5.895   4.692   4.468 -0.6629 -0.1007  0.2872
 7479SOL    HW223016   6.023   4.613   4.449 -1.4747 -1.0378 -1.6178
 7480SOL     OW23017   2.227   1.273   4.734 -0.1802 -0.2880 -0.0196
 7480SOL    HW123018   2.263   1.336   4.796 -0.9128  0.6079 -0.4729
 7480SOL    HW223019   2.204   1.197   4.787  0.2242  0.0275  0.6222
 7481SOL     OW23020   4.622   2.290   9.104 -0.0579 -0.0092  0.0965
 7481SOL    HW123021   4.536   2.328   9.087  0.8127  1.4764 -1.3221
 7481SOL    HW223022   4.654   2.262   9.018  1.1412  0.0695  0.4869
 7482SOL     OW23023   4.710   9.255   0.103 -0.1935  0.7279  0.1522
 7482SOL    HW123024   4.622   9.243   0.139 -0.4201  0.1255 -0.5813
 7482SOL    HW223025   4.700   9.327   0.040 -0.4475 -0.1752 -0.8571
 7483SOL     OW23026   1.730   3.430   2.043  0.4665  0.8956  0.5321
 7483SOL    HW123027   1.705   3.520   2.022 -1.1010  0.1774 -0.9038
 7483SOL    HW223028   1.658   3.376   2.010  0.2097 -0.7666  3.4665
 7484SOL     OW23029   0.696   7.614   9.491 -0.1066  0.8817  0.0951
 7484SOL    HW123030   0.777   7.665   9.488  0.5885 -0.2277 -0.8547
 7484SOL    HW223031   0.634   7.665   9.438 -0.1540  1.8777  1.0623
 7485SOL     OW23032   1.892   8.567   9.290  0.8297 -0.1224  0.2401
 7485SOL    HW123033   1.946   8.627   9.238 -0.3422 -0.5236 -1.5725
 7485SOL    HW223034   1.913   8.480   9.256 -1.8015 -0.1998 -1.5040
 7486SOL     OW23035   2.694   4.474   2.500  0.5690  0.1168 -0.0840
 7486SOL    HW123036   2.677   4.546   2.561  0.9784  0.8501 -0.8124
 7486SOL    HW223037   2.725   4.402   2.555  1.6000  0.9882  0.5189
 7487SOL     OW23038   1.621   9.918   7.740 -0.8807 -0.2609  0.3223
 7487SOL    HW123039   1.693   9.876   7.786  1.0198 -0.0067 -2.2034
 7487SOL    HW223040   1.543   9.871   7.770  0.3507 -0.9643  2.6802
 7488SOL     OW23041   4.356   4.279   7.879 -0.0765 -0.3938  0.1524
 7488SOL    HW123042   4.316   4.265   7.965  3.4584 -0.8163  1.9042
 7488SOL    HW223043   4.363   4.374   7.871 -4.0042 -0.0768 -1.6536
 7489SOL     OW23044   7.285   9.540   4.546  0.2422 -0.7280  0.3283
 7489SOL    HW123045   7.267   9.463   4.600 -0.0413 -1.0925 -0.2800
 7489SOL    HW223046   7.350   9.510   4.483  0.2381 -0.4314  0.1843
 7490SOL     OW23047   7.713   2.015   2.222  0.2914 -1.1972 -0.9085
 7490SOL    HW123048   7.761   2.008   2.139 -0.2112 -1.5860 -1.1658
 7490SOL    HW223049   7.641   2.075   2.203 -0.4817 -2.1596 -1.0659
 7491SOL     OW23050   9.570   6.471   6.197  0.0929  0.4079  0.1222
 7491SOL    HW123051   9.612   6.435   6.120  0.6004 -0.0662  0.6090
 7491SOL    HW223052   9.482   6.434   6.197  0.4056 -0.3668  0.2813
 7492SOL     OW23053   0.867   7.955   4.273  0.1435  0.6724  0.0699
 7492SOL    HW123054   0.813   8.033   4.260 -1.1590 -0.2912 -0.4546
 7492SOL    HW223055   0.917   7.946   4.192  0.0387  0.7560 -0.0039
 7493SOL     OW23056   4.118   6.198   0.223 -0.4353 -0.3146  0.0093
 7493SOL    HW123057   4.060   6.266   0.189  1.1515  0.9698 -0.2575
 7493SOL    HW223058   4.163   6.240   0.296  0.5881 -1.0583 -0.1745
 7494SOL     OW23059   2.956   4.382   9.239  0.1141 -0.4335 -0.1064
 7494SOL    HW123060   3.011   4.448   9.197  0.9291 -0.9907  0.0538
 7494SOL    HW223061   2.928   4.424   9.321  1.7063 -0.7440  0.6241
 7495SOL     OW23062   1.575   7.974   6.437  0.2318  0.0241  0.0759
 7495SOL    HW123063   1.551   7.934   6.354  2.3758 -0.1536 -0.5053
 7495SOL    HW223064   1.671   7.975   6.437  0.2868  0.4716  2.3306
 7496SOL     OW23065   4.305   6.340   0.404  0.2630  0.1939  0.0864
 7496SOL    HW123066   4.392   6.327   0.440 -0.4713  0.2149  1.9759
 7496SOL    HW223067   4.270   6.415   0.451 -1.7125 -1.3645  1.2901
 7497SOL     OW23068   6.651   8.117   6.695  0.0409 -0.0178  0.0253
 7497SOL    HW123069   6.640   8.137   6.602  0.1647  1.4609  0.3130
 7497SOL    HW223070   6.590   8.044   6.710 -1.7893  1.2865 -0.6839
 7498SOL     OW23071   1.962   0.379   9.071 -0.1429  0.3803  0.4815
 7498SOL    HW123072   1.886   0.329   9.042 -0.5361  0.5978  1.1142
 7498SOL    HW223073   2.032   0.352   9.012 -0.4622 -0.5627  0.5136
 7499SOL     OW23074   3.342   6.297   4.347 -0.0564 -0.4281  0.2935
 7499SOL    HW123075   3.423   6.349   4.342 -0.3823  0.0090 -3.1468
 7499SOL    HW223076   3.278   6.348   4.297 -1.8584 -1.8123  1.0688
 7500SOL     OW23077   1.817   7.203   8.145 -0.3843  0.2068 -0.4232
 7500SOL    HW123078   1.893   7.259   8.133  2.0537 -3.0490 -1.7612
 7500SOL    HW223079   1.773   7.203   8.059 -0.4496  0.1320 -0.3902
 7501SOL     OW23080   9.755   5.639   5.080 -0.1531  0.1641 -0.8042
 7501SOL    HW123081   9.841   5.622   5.040 -0.1642 -1.4419 -0.2037
 7501SOL    HW223082   9.772   5.639   5.174 -0.8508 -0.3506 -0.6778
 7502SOL     OW23083   3.536   0.810   3.538  0.3972  0.2794 -0.1582
 7502SOL    HW123084   3.503   0.899   3.542 -1.3542 -0.3277  0.0543
 7502SOL    HW223085   3.513   0.779   3.451 -0.1028 -0.3408  0.1833
 7503SOL     OW23086   1.859   2.324   0.321  0.6549  0.0431 -0.1901
 7503SOL    HW123087   1.902   2.291   0.242 -0.0170 -0.7899 -0.2273
 7503SOL    HW223088   1.766   2.327   0.298  0.5647  0.7895  0.2361
 7504SOL     OW23089   9.564   0.645   2.425  0.2444 -0.1995 -0.8210
 7504SOL    HW123090   9.512   0.583   2.477 -0.4615  0.7021 -0.4275
 7504SOL    HW223091   9.505   0.719   2.410  1.2486  0.6205 -0.8173
 7505SOL     OW23092   4.345   2.575   3.488 -0.1969 -0.1180 -0.2796
 7505SOL    HW123093   4.421   2.616   3.527  0.5418 -1.5704 -0.1271
 7505SOL    HW223094   4.378   2.493   3.451 -1.9829 -1.7403  1.4749
 7506SOL     OW23095   4.430   3.831   8.627  0.2152  0.2152  0.6815
 7506SOL    HW123096   4.472   3.758   8.675 -1.2321 -0.1704  1.4167
 7506SOL    HW223097   4.496   3.858   8.564  1.3824 -0.7162  1.4366
 7507SOL     OW23098   3.531   2.262   5.332 -0.4261 -0.0065  0.6491
 7507SOL    HW123099   3.482   2.274   5.414 -0.1092  2.1827  0.5756
 7507SOL    HW223100   3.618   2.298   5.350  0.5176 -1.8413  0.0895
 7508SOL     OW23101   3.421   6.188   4.595  0.1200 -0.1934  0.5604
 7508SOL    HW123102   3.484   6.132   4.551  0.2310  0.4786 -0.1658
 7508SOL    HW223103   3.401   6.256   4.531  0.0430  0.6299  1.4316
 7509SOL     OW23104   4.029   8.805   5.744 -0.0836 -0.1347 -0.0376
 7509SOL    HW123105   4.075   8.781   5.664 -1.9551 -2.2059 -0.5989
 7509SOL    HW223106   4.063   8.746   5.811 -1.4501 -1.3185 -0.3375
 7510SOL     OW23107   0.271   5.951   8.037  0.5372  0.3191  0.1294
 7510SOL    HW123108   0.252   6.031   7.987  0.8113  0.2462 -0.0932
 7510SOL    HW223109   0.310   5.892   7.973  2.2781  0.7487  0.7242
 7511SOL     OW23110   4.432   5.518   3.869 -0.0804  0.0927  0.3509
 7511SOL    HW123111   4.343   5.551   3.874 -0.3428 -0.7274  1.9429
 7511SOL    HW223112   4.459   5.533   3.779 -1.7345  0.5866 -0.0900
 7512SOL     OW23113   0.408   0.854   4.124  0.2987 -0.5951 -0.2603
 7512SOL    HW123114   0.385   0.773   4.080  0.4487  0.1464 -1.7895
 7512SOL    HW223115   0.499   0.843   4.150  1.1772 -0.0334 -2.7736
 7513SOL     OW23116   6.677   2.798   0.240  0.1545  0.0212  0.2682
 7513SOL    HW123117   6.717   2.715   0.212 -1.8003 -0.7103 -0.5335
 7513SOL    HW223118   6.587   2.774   0.264 -1.1090  2.1758 -1.8946
 7514SOL     OW23119   7.404   0.987   3.000 -0.0982  0.2117 -0.5066
 7514SOL    HW123120   7.310   1.005   2.999 -0.1550 -0.0796 -0.8708
 7514SOL    HW223121   7.417   0.927   2.926  0.7832  2.2723 -2.1210
 7515SOL     OW23122   1.397   0.613   3.962 -0.0572 -0.1039 -0.0016
 7515SOL    HW123123   1.349   0.670   4.022  0.3365  0.2469 -0.0092
 7515SOL    HW223124   1.443   0.551   4.018 -0.7832 -0.6547 -0.0116
 7516SOL     OW23125   6.351   1.956   3.143 -0.3416 -0.1151  0.1257
 7516SOL    HW123126   6.356   1.863   3.121 -0.0244 -0.7588  2.5593
 7516SOL    HW223127   6.435   1.975   3.185  1.1871  2.3323 -3.5794
 7517SOL     OW23128   9.893   7.884   0.820 -0.0398 -0.6436  0.0182
 7517SOL    HW123129   9.874   7.916   0.908  0.6963 -0.2226  0.0373
 7517SOL    HW223130   9.941   7.956   0.778 -2.5447  0.2092 -1.6071
 7518SOL     OW23131   2.189   6.101   5.223  0.1636  0.1822  0.4984
 7518SOL    HW123132   2.234   6.148   5.292  1.7306  0.1220 -0.4387
 7518SOL    HW223133   2.242   6.023   5.208 -0.5077 -0.1366 -0.3137
 7519SOL     OW23134   3.370   7.744   6.242 -0.7565 -0.4059 -0.4494
 7519SOL    HW123135   3.454   7.706   6.270 -1.0000 -1.0182 -0.5394
 7519SOL    HW223136   3.304   7.683   6.275 -1.1021 -0.6941 -1.6246
 7520SOL     OW23137   7.045   7.690   7.283 -0.4042  0.2053  0.0257
 7520SOL    HW123138   7.124   7.703   7.230 -1.1733 -2.0696 -1.8462
 7520SOL    HW223139   7.034   7.595   7.287 -2.3417  0.4199  1.3740
 7521SOL     OW23140   8.329   4.616   7.006  0.1495  0.2902 -0.8146
 7521SOL    HW123141   8.417   4.582   6.990  1.1630  2.2502  0.2014
 7521SOL    HW223142   8.323   4.693   6.950 -0.0019  1.5028  0.8123
 7522SOL     OW23143   6.601   2.192   4.293  0.1149  0.2462  0.3305
 7522SOL    HW123144   6.566   2.229   4.211 -3.0050 -2.2126  0.3422
 7522SOL    HW223145   6.694   2.213   4.291 -0.0139  1.1955 -3.3492
 7523SOL     OW23146   2.263   2.362   2.186  0.2623  0.4191  0.0048
 7523SOL    HW123147   2.314   2.284   2.206 -1.5348 -0.4183  1.6405
 7523SOL    HW223148   2.231   2.392   2.271 -1.5347  1.1917 -0.8878
 7524SOL     OW23149   8.211   8.295   6.995  0.3214  1.1982  0.3257
 7524SOL    HW123150   8.280   8.246   7.041  1.7514  2.5595 -0.2839
 7524SOL    HW223151   8.145   8.311   7.063 -0.3455 -1.7204  0.4893
 7525SOL     OW23152   7.901   4.995   9.376  0.2493  0.0244 -0.4209
 7525SOL    HW123153   7.814   4.975   9.411  0.2076  0.6342 -0.1589
 7525SOL    HW223154   7.956   5.006   9.454  0.5731 -0.3975 -0.5857
 7526SOL     OW23155   3.925   8.727   0.155  0.1056 -0.0241  0.4429
 7526SOL    HW123156   3.937   8.715   0.250 -0.8688 -0.9827  0.4635
 7526SOL    HW223157   3.831   8.742   0.145  0.0465 -0.9422 -0.4662
 7527SOL     OW23158   5.079   0.763   6.713 -0.3796 -0.4705  0.1089
 7527SOL    HW123159   5.070   0.815   6.792 -0.0882 -0.7451  0.3259
 7527SOL    HW223160   5.152   0.703   6.731  0.2403  0.0189 -0.6694
 7528SOL     OW23161   2.402   2.283   8.087  0.1988 -0.0162  0.0883
 7528SOL    HW123162   2.477   2.236   8.123  0.1189 -0.5031 -0.3789
 7528SOL    HW223163   2.341   2.215   8.060 -0.3463  0.3730  0.3134
 7529SOL     OW23164   7.745   0.213   1.153 -0.1030  0.1746  0.1813
 7529SOL    HW123165   7.676   0.220   1.087  1.5616 -2.1398 -2.0193
 7529SOL    HW223166   7.811   0.276   1.125 -0.5794  1.2146  1.3353
 7530SOL     OW23167   1.644   7.567   2.074 -0.2448  0.4364  0.4015
 7530SOL    HW123168   1.555   7.587   2.046 -0.4336 -1.2626 -0.3321
 7530SOL    HW223169   1.635   7.492   2.132  0.6913  0.4156  0.5485
 7531SOL     OW23170   2.059   0.841   9.439 -0.7064 -0.1810 -0.4106
 7531SOL    HW123171   2.085   0.881   9.356 -0.0444 -1.0736 -0.6521
 7531SOL    HW223172   2.135   0.852   9.496 -1.0278  0.1171 -0.0339
 7532SOL     OW23173   0.970   4.633   2.435 -0.2905  0.1454  0.2678
 7532SOL    HW123174   0.963   4.543   2.465  1.2032 -0.2281 -0.4015
 7532SOL    HW223175   1.019   4.627   2.353 -1.5392  1.4275 -0.6350
 7533SOL     OW23176   2.366   6.391   4.260 -0.0904 -0.2651  0.0806
 7533SOL    HW123177   2.308   6.422   4.330 -2.2216 -3.3556 -0.1290
 7533SOL    HW223178   2.328   6.425   4.180  0.3559  0.4282  0.1527
 7534SOL     OW23179   0.421   0.797   1.239  0.2025  0.3449  0.6658
 7534SOL    HW123180   0.418   0.892   1.250  1.8686  0.3665  1.3167
 7534SOL    HW223181   0.377   0.762   1.316  0.7503  0.6005  1.1049
 7535SOL     OW23182   6.095   3.154   2.047 -0.0012  0.2849  0.1762
 7535SOL    HW123183   6.159   3.194   1.987  0.1395  1.0978  0.8550
 7535SOL    HW223184   6.024   3.125   1.989  1.5421 -1.8723 -0.7639
 7536SOL     OW23185   9.214   8.344   6.318  0.5832  0.5858 -0.4309
 7536SOL    HW123186   9.301   8.378   6.337  0.9969  0.0549 -1.3142
 7536SOL    HW223187   9.193   8.379   6.231 -0.2530  1.0194 -0.0666
 7537SOL     OW23188   2.157   8.255   1.594  0.6546  0.4210  1.0733
 7537SOL    HW123189   2.136   8.316   1.523  0.7628 -1.0982 -0.3322
 7537SOL    HW223190   2.089   8.272   1.660 -0.5889  0.6297 -0.1983
 7538SOL     OW23191   3.004   1.922   9.277 -0.0195 -0.0196 -0.2361
 7538SOL    HW123192   2.953   1.984   9.329  0.2053  1.1214 -1.3131
 7538SOL    HW223193   3.088   1.917   9.322 -0.3103 -0.1664  0.2994
 7539SOL     OW23194   0.234   7.117   8.187 -0.0589  0.8345  0.0295
 7539SOL    HW123195   0.244   7.032   8.230 -1.7432  0.1310 -0.8698
 7539SOL    HW223196   0.323   7.142   8.163  0.4280 -0.9185 -0.1234
 7540SOL     OW23197   6.312   7.645   1.609  0.0637 -0.5715 -0.5775
 7540SOL    HW123198   6.406   7.659   1.608 -0.3208  3.0018  0.2798
 7540SOL    HW223199   6.300   7.567   1.664  2.4371 -0.1532  0.6814
 7541SOL     OW23200   6.767   6.995   8.324 -0.1806  0.0368 -0.0319
 7541SOL    HW123201   6.731   7.082   8.305 -0.0425  0.0285 -0.3204
 7541SOL    HW223202   6.777   6.995   8.420  1.6659  1.0723 -0.1743
 7542SOL     OW23203   5.281   9.755   6.867  0.5561  0.2353  0.0930
 7542SOL    HW123204   5.303   9.663   6.878  0.4132  0.0066 -1.3174
 7542SOL    HW223205   5.236   9.779   6.948 -0.3372 -1.2278  0.0731
 7543SOL     OW23206   8.088   6.963   6.901  0.7364 -0.2370 -0.3070
 7543SOL    HW123207   8.136   7.045   6.911  2.8559 -1.4189 -0.0872
 7543SOL    HW223208   8.105   6.936   6.810  1.2438 -1.0931  0.0239
 7544SOL     OW23209   3.688   0.048   8.732  0.1405  0.9331 -0.1693
 7544SOL    HW123210   3.699   0.116   8.665 -0.7353  0.2580 -1.0270
 7544SOL    HW223211   3.662   0.096   8.810 -0.6818  1.5901 -0.8204
 7545SOL     OW23212   2.704   4.153   7.988 -0.2364 -0.1533 -0.1041
 7545SOL    HW123213   2.655   4.194   7.916  0.5403  0.2963 -0.3983
 7545SOL    HW223214   2.689   4.210   8.063 -0.5389 -0.2716 -0.0760
 7546SOL     OW23215   8.768   3.816   4.739 -0.2800  0.5692 -0.5017
 7546SOL    HW123216   8.703   3.785   4.802  1.7203 -1.7505  0.6090
 7546SOL    HW223217   8.803   3.896   4.777 -1.2335  0.8769 -0.2460
 7547SOL     OW23218   1.195   8.487   6.630  0.1200  0.0528  0.0569
 7547SOL    HW123219   1.126   8.550   6.611  1.4359  1.1396 -1.3791
 7547SOL    HW223220   1.276   8.532   6.607  1.5288 -0.5504  3.2558
 7548SOL     OW23221   3.831   4.110   7.363  0.2701  0.0117 -0.1273
 7548SOL    HW123222   3.792   4.184   7.408 -1.0585 -0.8573  0.2123
 7548SOL    HW223223   3.827   4.038   7.426  3.0567 -0.0006  0.1778
 7549SOL     OW23224   3.705   1.398   1.101  0.1387 -0.1350 -0.3851
 7549SOL    HW123225   3.651   1.447   1.039  0.8646  0.7436 -0.3322
 7549SOL    HW223226   3.791   1.394   1.061 -0.1674 -2.4733 -0.9709
 7550SOL     OW23227   6.706   0.734   2.427 -0.0977 -0.0091  0.4013
 7550SOL    HW123228   6.778   0.749   2.366  0.6120  2.8902  1.7932
 7550SOL    HW223229   6.636   0.697   2.372  1.2001  0.4839 -1.7052
 7551SOL     OW23230   7.669   5.921   7.647 -0.3655  0.0867  0.5554
 7551SOL    HW123231   7.590   5.872   7.622  0.4361 -1.1901  0.4305
 7551SOL    HW223232   7.676   5.990   7.580 -1.4716  0.3610  0.6893
 7552SOL     OW23233   9.363   5.382   2.814  0.2090 -0.3717  0.2719
 7552SOL    HW123234   9.430   5.385   2.746  0.5453  0.8024  0.6231
 7552SOL    HW223235   9.280   5.375   2.767  0.4927 -0.5398 -0.2091
 7553SOL     OW23236   2.168   7.812   1.650  0.1736  0.2178  0.2550
 7553SOL    HW123237   2.196   7.726   1.620  1.0634  0.7985 -0.6782
 7553SOL    HW223238   2.248   7.854   1.682 -0.6805 -0.2427  3.3120
 7554SOL     OW23239   7.520   8.016   7.045 -0.1793 -0.0035  0.2434
 7554SOL    HW123240   7.615   8.018   7.037 -0.1649 -0.8164  0.0755
 7554SOL    HW223241   7.505   7.969   7.128 -0.4286  0.3698  0.4084
 7555SOL     OW23242   6.959   0.085   8.947  0.0502 -0.2090 -0.0655
 7555SOL    HW123243   6.964   0.009   9.005 -0.5813  0.4396  0.8564
 7555SOL    HW223244   7.033   0.140   8.972 -1.6048  1.2743  1.9211
 7556SOL     OW23245   7.091   1.782   0.943 -0.1451 -0.0227 -0.2535
 7556SOL    HW123246   7.049   1.843   1.004  1.3923 -0.5044  1.3483
 7556SOL    HW223247   7.034   1.705   0.944 -0.6458  0.3445 -0.1763
 7557SOL     OW23248   6.958   9.958   2.176  0.2735  0.0111  0.5342
 7557SOL    HW123249   6.955  10.019   2.250 -0.2806 -1.7478  2.0280
 7557SOL    HW223250   6.866   9.945   2.151  0.4962  2.1166 -1.8994
 7558SOL     OW23251   5.373   5.887   9.100 -0.3192  0.6776  0.0460
 7558SOL    HW123252   5.394   5.930   9.183  2.2592  1.8548 -1.0907
 7558SOL    HW223253   5.280   5.903   9.087 -1.1848 -0.8087  3.3485
 7559SOL     OW23254   4.328   1.087   4.495 -0.1514  0.3086 -0.0088
 7559SOL    HW123255   4.298   1.044   4.575  0.0510  1.0738  0.4919
 7559SOL    HW223256   4.363   1.172   4.525 -0.3783  0.7459 -0.9465
 7560SOL     OW23257   0.365   8.689   3.848 -0.3906  0.1238  0.3034
 7560SOL    HW123258   0.411   8.621   3.798 -0.3874  0.6338 -0.3988
 7560SOL    HW223259   0.431   8.756   3.865 -0.6498  0.4417  0.0716
 7561SOL     OW23260   8.828   3.963   3.074 -0.0814 -0.1083 -0.2865
 7561SOL    HW123261   8.792   3.907   3.144  0.2137  0.4361  0.3105
 7561SOL    HW223262   8.776   4.042   3.078  0.4608  0.2488 -0.1398
 7562SOL     OW23263   3.736   2.258   1.188  0.2857 -0.4719 -0.1429
 7562SOL    HW123264   3.670   2.314   1.229  0.6126 -0.1306 -0.0788
 7562SOL    HW223265   3.690   2.217   1.115 -0.5380 -1.7240  1.0260
 7563SOL     OW23266   3.513   5.078   1.637  0.0123 -0.8201  0.7791
 7563SOL    HW123267   3.419   5.095   1.637  0.1550  0.0975 -0.1903
 7563SOL    HW223268   3.537   5.072   1.544  1.3032  1.4911  0.8860
 7564SOL     OW23269   5.564   9.694   7.902  0.1597  0.1834  0.3105
 7564SOL    HW123270   5.565   9.623   7.966  0.5789 -1.4630 -1.4147
 7564SOL    HW223271   5.657   9.712   7.885  0.1322 -1.2811 -1.7228
 7565SOL     OW23272   8.369   2.139   7.230 -0.2310  0.1189 -0.0782
 7565SOL    HW123273   8.461   2.114   7.226  0.3778  1.7313  1.7480
 7565SOL    HW223274   8.346   2.163   7.141  1.2242 -0.0080 -0.5096
 7566SOL     OW23275   5.109   5.642   8.270 -0.6501 -0.1975  0.0774
 7566SOL    HW123276   5.024   5.661   8.309 -0.3167  0.3823  0.5296
 7566SOL    HW223277   5.116   5.704   8.196 -1.1096 -1.0255 -0.6802
 7567SOL     OW23278   9.247   9.661   3.067  0.5720  0.2294  0.1653
 7567SOL    HW123279   9.330   9.627   3.099  0.6880 -0.0077 -0.3754
 7567SOL    HW223280   9.254   9.655   2.972 -0.1252  0.0713  0.1222
 7568SOL     OW23281   7.260   7.340   4.023  0.0255 -0.0306  0.7310
 7568SOL    HW123282   7.185   7.295   4.061 -0.2252 -1.4865 -1.2852
 7568SOL    HW223283   7.335   7.308   4.073 -0.4364 -0.5865  1.0880
 7569SOL     OW23284   6.951   6.468   7.513  0.6540  0.0174  0.3326
 7569SOL    HW123285   6.896   6.404   7.559  0.4026 -0.7117 -0.9358
 7569SOL    HW223286   6.946   6.547   7.567  0.9516 -0.9963  1.9345
 7570SOL     OW23287   3.522   9.675   2.382  0.4079 -0.4465  0.2956
 7570SOL    HW123288   3.575   9.706   2.308  1.5309  0.1900  1.3313
 7570SOL    HW223289   3.585   9.635   2.442 -0.1682  0.8856  1.8565
 7571SOL     OW23290   7.345   3.684   4.888 -0.3571  0.1125  0.0259
 7571SOL    HW123291   7.327   3.642   4.972  0.2958  1.7921  1.0411
 7571SOL    HW223292   7.313   3.774   4.898 -0.4703  0.2851 -1.6014
 7572SOL     OW23293   0.661   4.667   6.320 -0.0306 -0.1344  0.5829
 7572SOL    HW123294   0.666   4.676   6.415 -3.0731 -0.2862  0.8457
 7572SOL    HW223295   0.683   4.755   6.287  1.6719 -0.2413  1.3342
 7573SOL     OW23296   5.223   4.262   5.383 -0.4187 -0.4737 -0.1604
 7573SOL    HW123297   5.279   4.259   5.306 -1.6767 -0.8246 -1.0894
 7573SOL    HW223298   5.273   4.312   5.448  1.2262 -1.3268 -0.7204
 7574SOL     OW23299   3.487   7.432   2.126  0.8474  0.1674  0.6507
 7574SOL    HW123300   3.394   7.410   2.128  0.7173  0.6225 -0.1611
 7574SOL    HW223301   3.494   7.513   2.176  1.2174 -1.2011  2.9860
 7575SOL     OW23302   7.815   4.315   4.413  0.1870 -0.1928  0.5967
 7575SOL    HW123303   7.873   4.351   4.345 -0.3325 -0.5929 -0.0706
 7575SOL    HW223304   7.749   4.267   4.364 -0.8120  0.4062  1.3360
 7576SOL     OW23305   3.205   6.119   3.959  0.7165 -0.3961 -0.1796
 7576SOL    HW123306   3.216   6.163   3.875 -1.1677 -0.0193 -0.2817
 7576SOL    HW223307   3.268   6.162   4.017 -1.4624  3.0797 -0.0823
 7577SOL     OW23308   1.106   7.277   7.540  0.3184 -0.2257  0.0353
 7577SOL    HW123309   1.157   7.352   7.572 -0.3076  1.2553 -2.2437
 7577SOL    HW223310   1.157   7.200   7.567  1.2849  1.0019  1.9256
 7578SOL     OW23311   7.229   0.053   2.733  0.0029 -0.1997 -0.0369
 7578SOL    HW123312   7.306   0.000   2.753  0.4573  0.1607 -0.7836
 7578SOL    HW223313   7.202   0.089   2.818  0.7392 -0.2239  0.2150
 7579SOL     OW23314   8.038   5.559   0.695 -0.1322 -0.7230  0.0345
 7579SOL    HW123315   8.095   5.578   0.769  0.2333 -0.0900 -0.4001
 7579SOL    HW223316   7.950   5.570   0.729  0.0023  2.8469 -0.3723
 7580SOL     OW23317   6.753   5.831   8.169  0.1623  0.0814  0.2341
 7580SOL    HW123318   6.660   5.811   8.182  0.1493  0.5975  0.9852
 7580SOL    HW223319   6.756   5.880   8.087 -0.2872  0.4270  0.4216
 7581SOL     OW23320   6.939   4.095   5.444 -0.4253  0.5115 -0.0266
 7581SOL    HW123321   6.965   4.014   5.400  1.2798  2.4541 -2.9233
 7581SOL    HW223322   6.853   4.117   5.407 -0.3490  0.6212 -0.1398
 7582SOL     OW23323   0.898   9.664   2.630 -0.3114 -0.4690 -0.4674
 7582SOL    HW123324   0.919   9.589   2.685 -0.6996 -1.5006 -1.6697
 7582SOL    HW223325   0.811   9.644   2.594 -0.4020  0.5389 -0.8423
 7583SOL     OW23326   6.177   0.642   8.376  0.0604 -0.1136 -0.4529
 7583SOL    HW123327   6.244   0.596   8.325 -0.0680 -1.8613  0.8670
 7583SOL    HW223328   6.227   0.696   8.437  0.2327  0.3465 -0.9942
 7584SOL     OW23329   0.594   5.336   1.955  0.0344  0.2202 -0.1979
 7584SOL    HW123330   0.567   5.423   1.926  0.2914  0.3006 -0.1972
 7584SOL    HW223331   0.595   5.343   2.051 -2.0141 -0.3936 -0.0765
 7585SOL     OW23332   6.892   7.447   4.140 -0.2655 -0.4933 -0.9239
 7585SOL    HW123333   6.809   7.435   4.095 -0.9027  1.8250 -0.4998
 7585SOL    HW223334   6.927   7.529   4.105  1.0556 -0.5939  0.0810
 7586SOL     OW23335   1.026   9.536   4.816  0.2693  0.4025 -0.8331
 7586SOL    HW123336   0.969   9.489   4.755 -0.9973  0.9424 -0.0886
 7586SOL    HW223337   0.976   9.614   4.841  0.4365 -0.1402  1.4298
 7587SOL     OW23338   8.346   1.804   9.236 -0.0905 -0.1372 -0.2995
 7587SOL    HW123339   8.406   1.732   9.219 -1.0045 -0.7786 -0.8425
 7587SOL    HW223340   8.403   1.881   9.245  0.9129 -0.9445  0.5128
 7588SOL     OW23341   3.467   7.888   1.527  0.0318 -0.0426  0.1484
 7588SOL    HW123342   3.512   7.804   1.510 -0.8440 -0.3026 -1.0746
 7588SOL    HW223343   3.386   7.882   1.476  0.5430  2.0681 -1.0496
 7589SOL     OW23344   1.680   7.457   5.992 -0.2137 -0.2178 -0.5748
 7589SOL    HW123345   1.594   7.465   5.951  0.1154 -0.4928 -1.3233
 7589SOL    HW223346   1.661   7.426   6.081 -0.8309 -1.1812 -1.0313
 7590SOL     OW23347   1.093   2.619   9.156  0.3101 -0.4565 -0.0847
 7590SOL    HW123348   1.082   2.712   9.178  1.7468  0.1349 -1.7036
 7590SOL    HW223349   1.003   2.586   9.148 -0.2282  0.8015  0.4019
 7591SOL     OW23350   0.196   7.997   5.182  0.0103  0.1493 -0.6064
 7591SOL    HW123351   0.243   8.026   5.259 -0.3117 -0.1789 -0.2841
 7591SOL    HW223352   0.235   7.913   5.159  0.9493  0.8211 -1.5465
 7592SOL     OW23353   5.447   6.058   2.432  0.1698  0.3831  0.1475
 7592SOL    HW123354   5.474   6.002   2.505 -0.4854 -2.1745 -1.4514
 7592SOL    HW223355   5.528   6.075   2.384  0.2007 -0.1494  0.0099
 7593SOL     OW23356   8.540   1.787   8.170 -0.0758 -0.0535 -0.1526
 7593SOL    HW123357   8.558   1.700   8.206 -0.9299  0.3134  1.2317
 7593SOL    HW223358   8.616   1.840   8.193 -0.0416 -0.1539 -0.0406
 7594SOL     OW23359   1.665   8.440   8.774  0.2398 -0.0623  0.0817
 7594SOL    HW123360   1.648   8.368   8.835 -1.0032  0.4435  0.3482
 7594SOL    HW223361   1.680   8.516   8.830  1.7652 -0.1236 -0.1920
 7595SOL     OW23362   3.418   8.283   9.796 -0.3664  0.0787 -0.0399
 7595SOL    HW123363   3.355   8.238   9.853 -1.6347 -0.0469 -1.4681
 7595SOL    HW223364   3.501   8.239   9.812 -1.2661 -1.8324 -0.3127
 7596SOL     OW23365   3.360   3.864   4.379 -0.3436  0.3066 -0.3896
 7596SOL    HW123366   3.415   3.790   4.403 -0.1322  0.7061  0.3961
 7596SOL    HW223367   3.384   3.933   4.441 -0.2280  1.1732 -1.3652
 7597SOL     OW23368   6.648   8.853   7.905  0.1329 -0.0154 -0.1361
 7597SOL    HW123369   6.579   8.828   7.968  1.3299 -2.9188  0.2131
 7597SOL    HW223370   6.601   8.890   7.831 -1.6653 -0.3456  0.7819
 7598SOL     OW23371   9.060   1.839   9.562 -0.1936 -0.3623  0.1065
 7598SOL    HW123372   8.980   1.842   9.510  0.4281  0.7274 -0.8303
 7598SOL    HW223373   9.064   1.926   9.603 -0.5748 -1.1215  1.8857
 7599SOL     OW23374   1.203   2.150   1.245 -0.8094 -0.0284 -0.2954
 7599SOL    HW123375   1.294   2.177   1.229 -0.4891 -0.9924 -0.1977
 7599SOL    HW223376   1.187   2.174   1.337 -0.2910 -0.7870  0.0061
 7600SOL     OW23377   0.782   5.239   3.489 -0.3696  0.1884  0.0913
 7600SOL    HW123378   0.784   5.173   3.420  1.5465 -0.1929  0.4471
 7600SOL    HW223379   0.806   5.321   3.446  0.0588  0.0946  0.1418
 7601SOL     OW23380   3.943   6.156   6.528  0.0986 -0.1369 -0.0499
 7601SOL    HW123381   3.910   6.141   6.617 -0.0017 -1.7715 -0.3266
 7601SOL    HW223382   3.876   6.211   6.487 -1.0627 -1.3222  0.1775
 7602SOL     OW23383   3.475   0.771   6.037  0.5046 -0.2492  0.1931
 7602SOL    HW123384   3.545   0.712   6.009  0.3099 -0.1155 -0.6091
 7602SOL    HW223385   3.462   0.829   5.962 -0.7328 -0.5149  0.1856
 7603SOL     OW23386   3.241   6.030   0.951  0.9540 -0.5071  0.1533
 7603SOL    HW123387   3.167   5.974   0.973  0.4691 -0.1686 -0.5461
 7603SOL    HW223388   3.217   6.116   0.985  2.2815 -0.9685  2.3972
 7604SOL     OW23389   8.600   0.239   1.267 -0.3676 -0.2609 -0.5216
 7604SOL    HW123390   8.586   0.222   1.174  1.2931 -0.0546 -0.8386
 7604SOL    HW223391   8.609   0.152   1.307  0.0318 -0.3211 -0.7446
 7605SOL     OW23392   8.977   9.195   8.409 -0.3170  0.1895 -0.0545
 7605SOL    HW123393   8.959   9.289   8.402 -0.2619  0.2511  0.6162
 7605SOL    HW223394   8.908   9.161   8.465  0.3686  0.0433  0.7100
 7606SOL     OW23395   4.904   9.614   9.153  0.8227 -0.4078 -0.3491
 7606SOL    HW123396   4.968   9.558   9.108  1.2773  0.5727 -0.9448
 7606SOL    HW223397   4.940   9.623   9.242  0.1878 -1.9207  0.1008
 7607SOL     OW23398   1.279   5.918   2.983 -0.2263 -0.0187  0.1155
 7607SOL    HW123399   1.319   5.832   2.968  0.5704  0.2873  0.4210
 7607SOL    HW223400   1.313   5.973   2.913  0.2900  0.3692  0.6571
 7608SOL     OW23401   5.163   3.496   2.658 -0.1629  0.0511  0.2574
 7608SOL    HW123402   5.215   3.420   2.633 -0.2868 -0.6795  2.0484
 7608SOL    HW223403   5.224   3.553   2.704 -0.8122 -0.7563  2.2679
 7609SOL     OW23404   0.564   8.613   3.636  0.2858  0.3813  0.3632
 7609SOL    HW123405   0.627   8.668   3.682 -0.1995  1.7582 -0.5269
 7609SOL    HW223406   0.585   8.626   3.543  1.0265 -2.0445  0.1268
 7610SOL     OW23407   2.140   4.259   7.666  0.0725  0.2904 -0.2976
 7610SOL    HW123408   2.148   4.343   7.620  1.2762  1.5405  1.9954
 7610SOL    HW223409   2.173   4.277   7.754 -1.7164 -2.0497  0.9752
 7611SOL     OW23410   3.864   4.566   7.292  0.1743 -0.5136 -0.8032
 7611SOL    HW123411   3.940   4.620   7.309 -0.7222  0.6993 -0.5489
 7611SOL    HW223412   3.803   4.623   7.246 -1.0467 -1.0953  0.0323
 7612SOL     OW23413   6.654   0.354   1.321  0.3675  0.3894  0.0726
 7612SOL    HW123414   6.577   0.352   1.377  0.9646  0.6838  0.9396
 7612SOL    HW223415   6.666   0.447   1.300  1.3821  0.5506  1.2573
 7613SOL     OW23416   7.556   8.960   0.408 -0.1090 -0.5231 -0.9268
 7613SOL    HW123417   7.584   9.008   0.331 -0.1831  0.6359 -0.2534
 7613SOL    HW223418   7.471   8.922   0.383 -1.3690  1.9276 -0.6375
 7614SOL     OW23419   2.504   5.450   6.183 -0.0955  0.2513 -0.5128
 7614SOL    HW123420   2.491   5.473   6.090  1.0116  0.1803 -0.6948
 7614SOL    HW223421   2.549   5.526   6.220  2.1500 -0.9094 -0.7396
 7615SOL     OW23422   0.397   7.459   0.974 -0.4848 -0.1508  0.2325
 7615SOL    HW123423   0.306   7.431   0.962 -0.0773 -1.7159  0.5832
 7615SOL    HW223424   0.449   7.388   0.938  0.6177 -0.0655  1.5855
 7616SOL     OW23425   9.768   0.422   2.681 -0.0157  0.3918  0.7769
 7616SOL    HW123426   9.795   0.386   2.597  1.5465  0.2421  1.3118
 7616SOL    HW223427   9.846   0.469   2.713 -0.0595 -0.8094  2.8144
 7617SOL     OW23428   1.947   8.776   1.463  0.2085  0.0772  0.2494
 7617SOL    HW123429   1.987   8.762   1.549  1.0386  1.7183  0.1751
 7617SOL    HW223430   1.890   8.851   1.476  0.3703  0.3583 -0.6394
 7618SOL     OW23431   5.788   1.466   8.503  0.0528 -0.2055 -0.1659
 7618SOL    HW123432   5.700   1.429   8.506 -0.5157  0.9977 -1.1805
 7618SOL    HW223433   5.817   1.469   8.594 -0.5580 -1.5106  0.0879
 7619SOL     OW23434   6.212   0.240   7.741 -0.2065 -0.6636  0.3786
 7619SOL    HW123435   6.226   0.333   7.720  1.0886 -0.6044  1.3538
 7619SOL    HW223436   6.260   0.227   7.823 -1.7775 -1.8017  1.1804
 7620SOL     OW23437   3.042   6.463   6.575  0.7060 -0.7237 -0.7444
 7620SOL    HW123438   3.010   6.539   6.526  2.3251 -1.4397 -3.0601
 7620SOL    HW223439   3.000   6.388   6.534 -0.0079 -1.2141  0.7937
 7621SOL     OW23440   2.209   8.409   2.056 -0.1404 -0.4833 -0.3713
 7621SOL    HW123441   2.159   8.370   2.127  0.2827 -0.4748 -0.0650
 7621SOL    HW223442   2.233   8.496   2.089  2.6090 -1.5421  0.7189
 7622SOL     OW23443   4.392   2.721   2.490  0.3853  0.8866 -0.6639
 7622SOL    HW123444   4.356   2.670   2.563 -0.2951  0.9950 -0.9154
 7622SOL    HW223445   4.363   2.674   2.412 -1.3133  2.3024 -0.9481
 7623SOL     OW23446   0.204   7.018   2.966 -0.1220  0.2140 -0.1008
 7623SOL    HW123447   0.275   6.973   2.921 -0.4300 -0.6471  0.2443
 7623SOL    HW223448   0.247   7.081   3.023  0.3955 -0.7021  0.5425
 7624SOL     OW23449   6.544   0.702   3.755 -0.3050  0.3465  0.9406
 7624SOL    HW123450   6.577   0.729   3.841  0.8528 -1.5606  1.1568
 7624SOL    HW223451   6.451   0.688   3.768 -0.2543  0.6785  1.7262
 7625SOL     OW23452   8.076   5.884   1.170  0.1697  0.6740  0.3414
 7625SOL    HW123453   8.073   5.805   1.115 -0.4797  1.2362 -0.4642
 7625SOL    HW223454   8.153   5.931   1.139  1.0114  0.0087  1.3520
 7626SOL     OW23455   7.163   2.047   2.714  0.9526 -0.6899 -0.8592
 7626SOL    HW123456   7.211   2.023   2.635  0.9074  0.6454 -1.3201
 7626SOL    HW223457   7.083   1.994   2.711  1.5661 -1.6256 -0.9988
 7627SOL     OW23458   8.243   6.102   5.566 -0.4456  0.4010 -0.1004
 7627SOL    HW123459   8.252   6.193   5.594 -1.6731  0.5411 -0.1340
 7627SOL    HW223460   8.150   6.091   5.549 -0.3390 -0.9263  0.1032
 7628SOL     OW23461   3.127   0.108   3.314 -0.5344  0.1054 -0.3121
 7628SOL    HW123462   3.147   0.081   3.224  0.4106  1.6625 -0.6011
 7628SOL    HW223463   3.153   0.200   3.318 -2.4782  0.6505  0.9862
 7629SOL     OW23464   1.720   9.859   4.586 -0.2144 -0.9632  0.3101
 7629SOL    HW123465   1.683   9.842   4.673  0.1833 -1.7000  0.3397
 7629SOL    HW223466   1.811   9.831   4.592  0.4534  1.0302  0.2916
 7630SOL     OW23467   0.325   2.411   5.011  0.5510  0.1013  0.1440
 7630SOL    HW123468   0.294   2.452   5.092 -0.7352  0.3513 -0.4396
 7630SOL    HW223469   0.398   2.465   4.982  0.4965  0.4874  0.7097
 7631SOL     OW23470   6.999   6.921   9.813 -0.1022 -0.0392 -0.4028
 7631SOL    HW123471   7.086   6.913   9.774  0.4084 -1.5164  0.9343
 7631SOL    HW223472   7.003   7.002   9.863  0.3550  0.1476 -0.7337
 7632SOL     OW23473   1.054   9.843   2.758 -0.6706  0.8198 -0.3263
 7632SOL    HW123474   0.986   9.788   2.719  0.4998 -0.3570 -0.7743
 7632SOL    HW223475   1.005   9.908   2.809 -2.1403 -1.4691  1.4504
 7633SOL     OW23476   6.366   9.892   9.657  0.8522  0.6057 -0.4170
 7633SOL    HW123477   6.404   9.979   9.663  0.3414  0.7337  2.2671
 7633SOL    HW223478   6.278   9.902   9.693  0.4347 -0.8405 -0.9728
 7634SOL     OW23479   5.274   0.304   7.418  0.1309 -0.0746 -0.1410
 7634SOL    HW123480   5.218   0.251   7.362  2.7459 -0.8628 -2.1676
 7634SOL    HW223481   5.325   0.241   7.469 -1.0245  0.6293  2.0537
 7635SOL     OW23482   7.550   0.177   2.468  0.1728 -0.0403 -0.1002
 7635SOL    HW123483   7.456   0.158   2.470 -0.0932  1.0718 -1.1539
 7635SOL    HW223484   7.556   0.272   2.459  1.4249 -0.0190  0.6650
 7636SOL     OW23485   7.287   0.530   8.885 -0.7721 -0.4591  0.0191
 7636SOL    HW123486   7.296   0.523   8.789 -1.7841  0.6771 -0.1785
 7636SOL    HW223487   7.200   0.566   8.898  0.5435  2.6074  1.2329
 7637SOL     OW23488   1.818   2.254   7.690  0.0549 -0.2457 -0.3180
 7637SOL    HW123489   1.848   2.224   7.776  0.3702 -0.2103 -0.4152
 7637SOL    HW223490   1.754   2.188   7.663  0.1047 -0.3646 -0.1484
 7638SOL     OW23491   7.176   0.880   2.227  0.2802 -0.3780  0.4553
 7638SOL    HW123492   7.265   0.858   2.256  0.5366  1.1047  0.9024
 7638SOL    HW223493   7.180   0.974   2.209 -1.2717 -0.2378  0.7591
 7639SOL     OW23494   5.365   3.866   8.807  0.0894 -0.1721 -0.1413
 7639SOL    HW123495   5.407   3.781   8.795 -0.0348 -0.2301 -0.1558
 7639SOL    HW223496   5.334   3.891   8.719 -0.3167 -0.3395 -0.0462
 7640SOL     OW23497   5.531   6.433   0.103  0.6238  0.1805 -0.2945
 7640SOL    HW123498   5.539   6.349   0.149 -2.2546  0.0751  0.1823
 7640SOL    HW223499   5.543   6.412   0.011 -0.2666 -0.8118 -0.1966
 7641SOL     OW23500   1.864   8.273   0.697  0.6588  0.3997  0.2594
 7641SOL    HW123501   1.888   8.254   0.606  0.4168 -0.1316  0.2995
 7641SOL    HW223502   1.928   8.225   0.749 -0.3990 -1.0033  0.3672
 7642SOL     OW23503   5.056   5.208   3.471 -0.5561 -0.1959 -0.1227
 7642SOL    HW123504   5.043   5.298   3.501  0.7484 -0.2068  0.5343
 7642SOL    HW223505   5.143   5.184   3.502 -1.2658 -2.0539  0.6096
 7643SOL     OW23506   2.254   1.997   8.895 -0.4500 -0.4634 -0.1822
 7643SOL    HW123507   2.335   2.035   8.861  0.1114 -0.8863  0.6338
 7643SOL    HW223508   2.185   2.057   8.868  0.0038 -0.6283 -1.7765
 7644SOL     OW23509   4.492   6.682   9.752  0.0978 -0.2039  0.3945
 7644SOL    HW123510   4.443   6.625   9.693 -2.6939 -0.4830  2.7543
 7644SOL    HW223511   4.521   6.624   9.822  1.5836  0.4715  0.3763
 7645SOL     OW23512   3.897   2.301   1.860  0.0082 -0.9086 -0.1856
 7645SOL    HW123513   3.895   2.275   1.767  1.8918 -0.3160 -0.4423
 7645SOL    HW223514   3.864   2.390   1.861  1.1425 -0.4616 -0.5062
 7646SOL     OW23515   5.369   4.434   7.611 -0.3953 -0.1608  0.2844
 7646SOL    HW123516   5.338   4.356   7.656 -2.0147  1.2342  1.7116
 7646SOL    HW223517   5.292   4.469   7.567 -0.3199  1.9106  1.6667
 7647SOL     OW23518   4.603   6.673   0.144 -0.4148 -0.2110  0.2425
 7647SOL    HW123519   4.688   6.704   0.173 -0.3126 -0.0945 -0.1723
 7647SOL    HW223520   4.618   6.642   0.055 -1.1711  1.5207 -0.5375
 7648SOL     OW23521   5.041   5.425   2.229 -0.0803 -0.0811  0.5149
 7648SOL    HW123522   4.961   5.458   2.271 -0.3406  1.5832 -1.1695
 7648SOL    HW223523   5.092   5.387   2.301 -1.5356  0.5214  1.9233
 7649SOL     OW23524   9.299   5.153   3.655  0.1750 -0.2430 -0.5440
 7649SOL    HW123525   9.224   5.209   3.677  0.1495 -0.2892 -0.5136
 7649SOL    HW223526   9.263   5.065   3.649  0.3375 -0.3582  0.1015
 7650SOL     OW23527   0.115   8.227   7.776 -0.2473 -0.1002  0.5367
 7650SOL    HW123528   0.134   8.307   7.825  1.9866 -0.6350  0.6258
 7650SOL    HW223529   0.086   8.165   7.843  1.3454 -0.3712  1.0157
 7651SOL     OW23530   4.287   4.438   3.064 -0.2089  0.0969 -0.6096
 7651SOL    HW123531   4.342   4.361   3.077  0.8593  0.8586 -0.5292
 7651SOL    HW223532   4.277   4.476   3.151 -0.5993  0.1556 -0.6758
 7652SOL     OW23533   4.071   1.753   2.255 -0.0204  0.2377  0.4676
 7652SOL    HW123534   4.118   1.812   2.314  1.3020 -0.9493  0.6626
 7652SOL    HW223535   4.139   1.718   2.197 -0.9967 -0.0470 -0.5322
 7653SOL     OW23536   5.217   4.608   5.253  0.5105 -0.4022 -0.4055
 7653SOL    HW123537   5.223   4.674   5.322  0.2596 -1.0065  0.2059
 7653SOL    HW223538   5.295   4.623   5.199  0.7036  0.0878  0.0041
 7654SOL     OW23539   2.007   0.283   5.823 -0.2093  0.2485  0.3498
 7654SOL    HW123540   2.027   0.359   5.769  0.6150  0.8591  1.4687
 7654SOL    HW223541   1.949   0.317   5.891 -0.1261 -0.2044  0.6510
 7655SOL     OW23542   7.874   5.281   7.210 -0.6495  0.6755 -0.0780
 7655SOL    HW123543   7.842   5.193   7.190 -0.0431  0.7861 -1.6923
 7655SOL    HW223544   7.889   5.280   7.304 -1.5778 -0.6326  0.0798
 7656SOL     OW23545   5.059   7.225   6.307  0.6273  0.5281 -0.2074
 7656SOL    HW123546   5.034   7.147   6.357  1.9622 -0.4530 -0.9903
 7656SOL    HW223547   5.064   7.194   6.216  2.6107  1.1346 -0.3508
 7657SOL     OW23548   3.453   0.176   4.053 -0.6277  0.3772  0.2931
 7657SOL    HW123549   3.543   0.168   4.084  0.0010 -0.1960 -1.5044
 7657SOL    HW223550   3.419   0.087   4.052 -0.6813  0.3941 -0.4243
 7658SOL     OW23551   3.708   0.297   0.794 -0.1301  0.2200 -0.7350
 7658SOL    HW123552   3.650   0.280   0.719 -0.0665  0.5487 -0.8647
 7658SOL    HW223553   3.653   0.344   0.856 -0.4395 -0.8620 -0.1733
 7659SOL     OW23554   3.754   4.284   1.512  0.0864  1.0270 -0.3395
 7659SOL    HW123555   3.750   4.303   1.418  0.0849 -1.0473 -0.8063
 7659SOL    HW223556   3.838   4.240   1.524 -1.0637 -1.1639  0.0925
 7660SOL     OW23557   7.876   3.389   5.428  0.0638 -0.4510  0.5046
 7660SOL    HW123558   7.868   3.312   5.371 -0.7901  1.1437 -1.6408
 7660SOL    HW223559   7.850   3.356   5.515 -0.7878 -2.4680 -0.4347
 7661SOL     OW23560   4.600   7.493   4.987 -0.5038  0.5821 -0.1683
 7661SOL    HW123561   4.631   7.566   5.042  0.6653 -0.5011  0.6645
 7661SOL    HW223562   4.660   7.493   4.912 -0.5325  0.4956 -0.1910
 7662SOL     OW23563   5.157   0.899   0.455 -0.6540  0.4207  0.0758
 7662SOL    HW123564   5.166   0.899   0.360  2.7456  0.7952  0.2577
 7662SOL    HW223565   5.110   0.979   0.475  1.3034  2.0049 -1.2272
 7663SOL     OW23566   4.662   0.917   0.274  0.1156  0.0492  0.5351
 7663SOL    HW123567   4.567   0.903   0.280  0.4023 -3.5345 -0.8982
 7663SOL    HW223568   4.680   0.918   0.180  1.4317  2.0011  0.7519
 7664SOL     OW23569   1.770   3.912   1.831 -0.1662  0.3988  0.1661
 7664SOL    HW123570   1.857   3.909   1.792 -1.3178  0.9329 -2.7802
 7664SOL    HW223571   1.759   4.002   1.861  0.3729  0.2630  0.7791
 7665SOL     OW23572   4.799   5.290   6.189  0.7339 -0.0062 -0.5205
 7665SOL    HW123573   4.894   5.300   6.195  0.8371  2.0239 -3.2451
 7665SOL    HW223574   4.784   5.259   6.100 -1.1408 -1.3386  0.2138
 7666SOL     OW23575   8.799   3.196   0.273 -0.4078 -0.8563  0.4093
 7666SOL    HW123576   8.844   3.260   0.218 -1.1320  0.3523  1.1904
 7666SOL    HW223577   8.863   3.172   0.340 -0.0965 -1.0599  0.0453
 7667SOL     OW23578   4.223   2.408   3.804 -0.1792 -0.3671 -0.6251
 7667SOL    HW123579   4.275   2.486   3.823 -4.2250  2.1797  1.3294
 7667SOL    HW223580   4.242   2.349   3.877 -0.4395  0.8130  0.4401
 7668SOL     OW23581   3.624   9.394   5.037 -0.4777  0.1205 -0.5129
 7668SOL    HW123582   3.647   9.304   5.057 -0.1328  0.3966  0.4071
 7668SOL    HW223583   3.638   9.403   4.943 -1.4728 -1.0480 -0.7867
 7669SOL     OW23584   2.161   2.856   1.434  0.4186 -0.1392 -0.4786
 7669SOL    HW123585   2.187   2.773   1.474  0.9398  0.8627  1.3621
 7669SOL    HW223586   2.230   2.875   1.371  0.8048 -0.6165 -0.2075
 7670SOL     OW23587   7.223   5.121   2.140 -0.3064  0.5159 -0.0679
 7670SOL    HW123588   7.171   5.106   2.219  1.7652  0.8414  1.4485
 7670SOL    HW223589   7.196   5.052   2.080 -1.4772 -0.1609  1.1827
 7671SOL     OW23590   3.996   3.836   0.821 -0.1502 -0.3606  0.2338
 7671SOL    HW123591   3.904   3.859   0.826  0.2020  1.5506 -0.9328
 7671SOL    HW223592   4.015   3.831   0.727  0.7639 -1.5146  0.4509
 7672SOL     OW23593   9.561   8.590   6.923 -0.4750 -0.2717 -0.4463
 7672SOL    HW123594   9.655   8.605   6.926 -0.4184 -0.3717 -1.3991
 7672SOL    HW223595   9.532   8.640   6.846 -0.8973 -1.8264 -1.3260
 7673SOL     OW23596   8.228   9.734   4.880 -0.0078 -0.2643  0.2763
 7673SOL    HW123597   8.185   9.779   4.808  0.5606  0.1861  0.2112
 7673SOL    HW223598   8.300   9.792   4.905  0.9008 -1.2488  0.0243
 7674SOL     OW23599   0.117   3.213   8.390  0.5462 -0.0027  0.0789
 7674SOL    HW123600   0.185   3.194   8.325  1.3394 -0.7353  1.1029
 7674SOL    HW223601   0.157   3.191   8.474 -1.2881 -1.4342  0.6370
 7675SOL     OW23602   7.213   4.399   6.585  0.3650  0.5808 -0.0683
 7675SOL    HW123603   7.190   4.363   6.670 -0.5629  1.4828  0.0687
 7675SOL    HW223604   7.138   4.380   6.529  0.6455  0.6750 -0.4868
 7676SOL     OW23605   4.259   0.249   5.845  0.2496  0.1079  0.1003
 7676SOL    HW123606   4.221   0.264   5.932  1.6056  0.1540  0.7137
 7676SOL    HW223607   4.333   0.191   5.861  0.3244 -0.1414 -1.0799
 7677SOL     OW23608   3.231   5.341   6.870  0.9287  0.0437  0.0541
 7677SOL    HW123609   3.150   5.316   6.826  1.3224  1.3852 -1.5024
 7677SOL    HW223610   3.300   5.316   6.808  1.8310 -1.9216  1.7283
 7678SOL     OW23611   9.242   2.641   3.554 -0.1629 -0.4473  0.0666
 7678SOL    HW123612   9.290   2.723   3.565  2.5382 -2.0523  1.1274
 7678SOL    HW223613   9.155   2.659   3.591  0.6459  1.6471  1.1078
 7679SOL     OW23614   3.925   0.007   6.110  0.2366 -0.4046 -0.6128
 7679SOL    HW123615   3.834  -0.008   6.087  0.2777  1.9350 -2.8102
 7679SOL    HW223616   3.922   0.035   6.202 -1.2567 -0.2758 -0.6730
 7680SOL     OW23617   4.677   0.684   0.461 -0.9667 -0.7879 -0.4193
 7680SOL    HW123618   4.629   0.767   0.457 -0.7764 -0.7035 -1.0794
 7680SOL    HW223619   4.640   0.631   0.391 -0.4783 -0.9296 -0.5752
 7681SOL     OW23620   1.263   0.411   4.689 -0.1253 -0.2031 -0.6115
 7681SOL    HW123621   1.175   0.379   4.710  0.0073 -1.1903 -1.4844
 7681SOL    HW223622   1.309   0.410   4.773 -0.9444  0.3423 -0.1432
 7682SOL     OW23623   3.932   7.834   7.486  0.4108 -0.3219 -0.7729
 7682SOL    HW123624   3.914   7.819   7.579  0.2160  2.9580 -0.1788
 7682SOL    HW223625   4.026   7.819   7.477  0.3283 -1.2708 -0.2079
 7683SOL     OW23626   4.111   0.150   3.541  0.6410  0.0845  0.4041
 7683SOL    HW123627   4.147   0.234   3.570 -0.8289 -0.3396  3.9852
 7683SOL    HW223628   4.086   0.165   3.450 -0.4015  3.8579  1.1371
 7684SOL     OW23629   9.911   1.449   3.170  0.9609 -0.0090  0.1856
 7684SOL    HW123630   9.909   1.545   3.173  3.3456  0.0673  1.4308
 7684SOL    HW223631   9.948   1.429   3.084 -2.4496 -0.0194 -1.4536
 7685SOL     OW23632   7.959   3.910   0.680  0.4796  0.4563 -0.3387
 7685SOL    HW123633   7.985   3.821   0.656  0.2083  0.1732  0.3927
 7685SOL    HW223634   8.040   3.961   0.675  0.8975 -0.1054  0.4926
 7686SOL     OW23635   7.307   0.796   0.995 -0.0324  0.0158 -0.1213
 7686SOL    HW123636   7.213   0.809   0.984  0.2563  2.8058 -0.1100
 7686SOL    HW223637   7.320   0.790   1.089 -0.2074 -0.6998 -0.1365
 7687SOL     OW23638   3.332   1.076   4.495 -0.4410 -0.0635 -0.5969
 7687SOL    HW123639   3.287   0.993   4.484  0.1746 -0.5906  0.6653
 7687SOL    HW223640   3.398   1.059   4.562 -0.6430  1.5667  0.0721
 7688SOL     OW23641   5.957   2.075   0.351 -0.3711 -0.0159 -0.1839
 7688SOL    HW123642   5.964   2.030   0.435 -0.3634  0.3866  0.0345
 7688SOL    HW223643   6.041   2.060   0.308  0.5036  1.6774  0.8472
 7689SOL     OW23644   6.743   5.869   6.726 -0.3553 -1.0149 -0.7569
 7689SOL    HW123645   6.688   5.792   6.738  0.0263 -1.2389 -0.3874
 7689SOL    HW223646   6.827   5.844   6.764 -0.8443  0.3157  1.4153
 7690SOL     OW23647   3.524   7.717   2.236  0.2433  0.0118  0.1665
 7690SOL    HW123648   3.602   7.751   2.191  0.9847  1.6685  2.4798
 7690SOL    HW223649   3.451   7.765   2.197  0.0132 -2.6751 -3.1391
 7691SOL     OW23650   5.353   2.268   9.924 -0.1539  0.2808  0.5790
 7691SOL    HW123651   5.433   2.229   9.959  0.3636 -1.3821 -2.1976
 7691SOL    HW223652   5.282   2.214   9.959  0.4988 -2.9013 -2.5018
 7692SOL     OW23653   0.976   3.014   5.597 -0.5026 -0.1337  0.1428
 7692SOL    HW123654   1.062   3.006   5.637 -0.2539  0.6084 -0.2309
 7692SOL    HW223655   0.964   2.932   5.550  0.2615  0.0013 -0.3008
 7693SOL     OW23656   3.010   1.930   0.674  0.5499 -0.3090  0.7157
 7693SOL    HW123657   3.013   1.992   0.747  0.7620  1.7418 -0.9444
 7693SOL    HW223658   3.100   1.924   0.644  0.1480  0.6590 -0.7701
 7694SOL     OW23659   3.718   8.770   3.223  0.0003  0.1248  0.1708
 7694SOL    HW123660   3.724   8.862   3.250 -0.3649 -0.0772  0.9617
 7694SOL    HW223661   3.771   8.765   3.144  0.0337  1.0169  0.1242
 7695SOL     OW23662   8.754   2.495   5.678 -0.1922 -0.7141 -0.7121
 7695SOL    HW123663   8.807   2.465   5.753 -1.7459  0.4569  0.9435
 7695SOL    HW223664   8.818   2.523   5.613  1.2503 -3.2489 -0.5114
 7696SOL     OW23665   7.205   3.334   5.548  0.0900  0.0977 -0.0772
 7696SOL    HW123666   7.201   3.240   5.566 -0.3431  0.3040  0.9841
 7696SOL    HW223667   7.134   3.372   5.601  0.8885  1.1318  0.2842
 7697SOL     OW23668   8.402   7.474   9.398  0.1722 -0.3409 -0.2582
 7697SOL    HW123669   8.382   7.466   9.305 -1.3508 -1.2881  0.1134
 7697SOL    HW223670   8.373   7.391   9.436 -0.1334  0.3970  1.1933
 7698SOL     OW23671   5.054   3.194   1.011  0.6889 -0.0916 -0.4028
 7698SOL    HW123672   5.004   3.264   0.969  0.4545  0.2461  0.4167
 7698SOL    HW223673   5.101   3.152   0.939 -2.7694 -2.1750 -1.6608
 7699SOL     OW23674   8.052   6.547   2.954 -0.1532  0.1666 -0.2792
 7699SOL    HW123675   8.085   6.513   3.037  0.8325  1.0663 -0.2814
 7699SOL    HW223676   7.976   6.491   2.933 -1.3147  0.8118  1.9321
 7700SOL     OW23677   2.475   9.110   9.913 -0.2285  0.9460  0.4460
 7700SOL    HW123678   2.450   9.018   9.925 -0.2748  0.9182  0.1552
 7700SOL    HW223679   2.530   9.109   9.834 -1.2120  1.3398 -0.2572
 7701SOL     OW23680   3.297   3.825   6.125 -0.6238 -0.3741  0.5105
 7701SOL    HW123681   3.248   3.895   6.081 -0.8965  0.8593  2.6090
 7701SOL    HW223682   3.238   3.750   6.123 -1.3135  0.1577  0.2380
 7702SOL     OW23683   8.422   1.867   4.783  0.5161 -0.2207  0.2419
 7702SOL    HW123684   8.374   1.831   4.708 -0.6673 -0.5086  1.1199
 7702SOL    HW223685   8.378   1.831   4.860  1.0386  0.9194  1.1067
 7703SOL     OW23686   6.175   3.935   6.434  0.5855  0.5700  0.2877
 7703SOL    HW123687   6.125   3.998   6.486  0.1564  0.6200 -0.1773
 7703SOL    HW223688   6.208   3.985   6.359  0.1813  0.2339 -0.1203
 7704SOL     OW23689   5.579   5.984   4.400 -0.0692 -0.4669  0.3309
 7704SOL    HW123690   5.625   6.051   4.350 -1.4320  0.0285 -0.3082
 7704SOL    HW223691   5.533   6.034   4.468 -0.6863 -0.7995  0.1633
 7705SOL     OW23692   3.463   9.588   1.935  0.2855 -0.1137 -0.1242
 7705SOL    HW123693   3.503   9.519   1.989 -0.5576 -0.0210  0.6372
 7705SOL    HW223694   3.388   9.546   1.893  0.0803  0.2022 -0.0765
 7706SOL     OW23695   5.295   7.132   3.323  0.0008  0.7124 -0.5726
 7706SOL    HW123696   5.311   7.148   3.416 -0.7057 -0.6741 -0.1958
 7706SOL    HW223697   5.234   7.201   3.297  0.0988  1.0273  0.0215
 7707SOL     OW23698   0.688   9.566   7.419 -0.4028 -1.0646  0.1986
 7707SOL    HW123699   0.600   9.581   7.452 -0.5255  0.8425 -0.8456
 7707SOL    HW223700   0.678   9.559   7.325  0.7121  1.2018 -0.1703
 7708SOL     OW23701   8.165   3.601   2.313 -0.2320 -0.6659 -0.3333
 7708SOL    HW123702   8.250   3.644   2.305 -0.1158 -0.6891  0.6531
 7708SOL    HW223703   8.101   3.669   2.291  0.0172 -0.4889 -0.5179
 7709SOL     OW23704   1.887   2.650   3.471  0.3356 -0.2820 -0.2453
 7709SOL    HW123705   1.856   2.677   3.558  0.3798 -0.4925 -0.1633
 7709SOL    HW223706   1.929   2.566   3.486  1.6323  0.3500 -0.2305
 7710SOL     OW23707   1.333   4.247   8.512  0.4703  0.5759 -0.3846
 7710SOL    HW123708   1.299   4.280   8.429  0.4495 -0.0626 -0.6384
 7710SOL    HW223709   1.404   4.307   8.535  0.6215  0.6270 -0.9746
 7711SOL     OW23710   4.086   8.835   4.863  0.0506 -0.3833 -0.4820
 7711SOL    HW123711   4.048   8.894   4.799 -1.0098 -0.4101  0.0973
 7711SOL    HW223712   4.012   8.782   4.893  0.5986 -0.6173  0.4906
 7712SOL     OW23713   0.576   3.701   7.223  0.4930  0.1735  0.0528
 7712SOL    HW123714   0.604   3.784   7.261  1.7064 -1.4610  3.1097
 7712SOL    HW223715   0.498   3.677   7.273  2.0281 -1.9710  1.6372
 7713SOL     OW23716   0.758   7.858   1.848  0.0953 -0.5368  0.2636
 7713SOL    HW123717   0.674   7.836   1.807 -0.3299  0.2151  0.7047
 7713SOL    HW223718   0.823   7.808   1.799 -0.5553 -0.7165 -0.4237
 7714SOL     OW23719   2.816   1.781   4.512 -0.7459  0.1154 -0.6378
 7714SOL    HW123720   2.809   1.754   4.421 -0.7837 -0.9885 -0.3256
 7714SOL    HW223721   2.901   1.746   4.541 -0.7577  0.4065 -0.2380
 7715SOL     OW23722   2.438   6.841   9.314  0.0833  0.1006 -0.5242
 7715SOL    HW123723   2.390   6.863   9.394 -0.4386 -0.3606 -0.7099
 7715SOL    HW223724   2.487   6.762   9.337  0.8314  0.6103 -0.3123
 7716SOL     OW23725   6.745   6.889   0.732  0.3023  0.0862  0.5385
 7716SOL    HW123726   6.707   6.963   0.780  1.4207  0.3773  1.0342
 7716SOL    HW223727   6.720   6.903   0.641 -2.0591 -0.5901  1.0089
 7717SOL     OW23728   7.593   6.873   1.665  0.2416 -0.5743 -0.2430
 7717SOL    HW123729   7.539   6.794   1.654 -0.6121 -0.1023  0.3524
 7717SOL    HW223730   7.591   6.916   1.580 -0.5876 -0.4205 -0.1578
 7718SOL     OW23731   6.663   0.117   3.486  0.7614 -0.2526 -0.1472
 7718SOL    HW123732   6.756   0.094   3.494  0.8017  0.2079  0.9165
 7718SOL    HW223733   6.664   0.206   3.451  0.7772  0.2515  1.0825
 7719SOL     OW23734   0.153   6.572   1.304 -0.0913  0.4696 -0.1029
 7719SOL    HW123735   0.247   6.591   1.303 -0.3110  1.7354  0.6430
 7719SOL    HW223736   0.125   6.592   1.393 -1.1738  0.6851 -0.4722
 7720SOL     OW23737   5.118   1.894   0.647 -0.4360 -0.1835  1.1174
 7720SOL    HW123738   5.117   1.958   0.718  1.8548  2.9784 -1.3895
 7720SOL    HW223739   5.065   1.934   0.578  1.4530 -0.6775 -0.7172
 7721SOL     OW23740   6.753   0.686   7.353 -0.0780  0.0679  0.8543
 7721SOL    HW123741   6.731   0.712   7.264 -0.3696 -0.4093  0.7841
 7721SOL    HW223742   6.756   0.768   7.402  0.6543  0.3959  0.2898
 7722SOL     OW23743   4.886   4.676   4.467  0.0230  0.1473  0.3148
 7722SOL    HW123744   4.861   4.586   4.445  1.8508 -0.3946  0.2860
 7722SOL    HW223745   4.808   4.728   4.448 -1.2227 -1.4794  0.7394
 7723SOL     OW23746   4.980   4.311   1.883 -0.6214  0.1630 -0.4708
 7723SOL    HW123747   4.920   4.275   1.948 -0.1265 -1.0498 -0.6508
 7723SOL    HW223748   5.063   4.265   1.899 -0.7783 -1.0529 -2.6793
 7724SOL     OW23749   0.525   7.215   3.574  0.0734 -0.5380  0.1671
 7724SOL    HW123750   0.477   7.141   3.610  0.0068 -0.6274 -0.0976
 7724SOL    HW223751   0.602   7.176   3.532 -0.7860 -0.6414 -1.3901
 7725SOL     OW23752   5.800   7.960   1.748 -0.5379 -0.2913  0.0326
 7725SOL    HW123753   5.895   7.945   1.742 -0.4492  0.0399  0.5347
 7725SOL    HW223754   5.792   8.045   1.792 -1.0745 -0.6660  0.6724
 7726SOL     OW23755   1.435   9.267   3.617 -0.1171  0.6443 -0.0882
 7726SOL    HW123756   1.526   9.294   3.629 -0.6642  2.3297  0.6055
 7726SOL    HW223757   1.397   9.276   3.704 -0.9631 -0.0511 -0.3762
 7727SOL     OW23758   0.615   8.776   7.380  1.0337  0.1967  0.3781
 7727SOL    HW123759   0.653   8.846   7.326  3.4914 -0.3420  1.2780
 7727SOL    HW223760   0.667   8.777   7.460 -0.0198 -1.5565  1.1342
 7728SOL     OW23761   6.789   0.298   1.976  0.2524  0.1858  0.5073
 7728SOL    HW123762   6.875   0.262   1.996  0.1668 -0.9965 -1.0953
 7728SOL    HW223763   6.782   0.294   1.881 -1.6020  0.1872  0.5952
 7729SOL     OW23764   3.806   0.971   9.283  0.4963  0.3484  0.1911
 7729SOL    HW123765   3.807   1.006   9.372  1.3640  0.6630  0.0712
 7729SOL    HW223766   3.714   0.950   9.266  0.4442 -0.6645  1.5297
 7730SOL     OW23767   0.637   6.839   2.138 -0.2687 -0.0241 -0.0344
 7730SOL    HW123768   0.658   6.917   2.087  0.6351  1.2776  2.2014
 7730SOL    HW223769   0.547   6.852   2.167  0.5837  1.4617  2.2822
 7731SOL     OW23770   8.141   2.082   6.155  0.1832 -0.4767 -0.2040
 7731SOL    HW123771   8.133   2.159   6.099 -0.6016 -0.1373  0.3579
 7731SOL    HW223772   8.120   2.114   6.243  0.6838 -1.1567  0.1743
 7732SOL     OW23773   9.376   5.551   4.869  0.4096 -0.2507 -0.8962
 7732SOL    HW123774   9.437   5.478   4.863  1.5104  0.4205  0.9682
 7732SOL    HW223775   9.313   5.523   4.935 -0.5246 -0.3950 -1.8309
 7733SOL     OW23776   1.308   3.120   9.167 -0.1041  0.1295  0.2382
 7733SOL    HW123777   1.342   3.181   9.101  0.9220 -1.2876 -0.5937
 7733SOL    HW223778   1.213   3.118   9.150 -0.1303  1.2603  0.1136
 7734SOL     OW23779   1.701   2.665   9.225  0.2161 -0.0963  0.0852
 7734SOL    HW123780   1.635   2.692   9.161 -0.5175  1.7458  1.5094
 7734SOL    HW223781   1.779   2.645   9.173 -0.6934  0.2008 -1.4413
 7735SOL     OW23782   1.104   4.062   9.204  0.1704 -0.1660  0.0081
 7735SOL    HW123783   1.061   4.007   9.270  0.9672 -0.8022  0.0169
 7735SOL    HW223784   1.151   4.128   9.256 -2.9975  2.3534 -0.0338
 7736SOL     OW23785   0.017   3.938   7.805  0.2454  0.0613 -0.0133
 7736SOL    HW123786  -0.050   3.940   7.873 -0.4839 -0.0855 -0.7156
 7736SOL    HW223787   0.073   3.865   7.828 -0.8336 -0.8956 -0.3358
 7737SOL     OW23788   1.204   0.164   1.607  0.3275  0.1760  0.5252
 7737SOL    HW123789   1.139   0.169   1.537 -0.0480  2.4744  0.9553
 7737SOL    HW223790   1.206   0.072   1.632 -1.2337 -0.2936 -0.9197
 7738SOL     OW23791   6.828   8.708   9.092  0.2894  0.3893  0.3118
 7738SOL    HW123792   6.790   8.703   9.004 -1.5859  0.3450  1.0861
 7738SOL    HW223793   6.853   8.800   9.101 -1.2297  0.8258  0.3750
 7739SOL     OW23794   8.006   9.454   0.489 -0.1811  0.0158  0.8079
 7739SOL    HW123795   7.979   9.378   0.438  0.5163 -0.8870  1.7363
 7739SOL    HW223796   7.924   9.498   0.512 -0.5401  0.0009 -0.4074
 7740SOL     OW23797   5.707   8.652   0.393 -0.3094 -0.1553  0.2001
 7740SOL    HW123798   5.781   8.592   0.401 -1.5759 -2.0332 -1.1640
 7740SOL    HW223799   5.699   8.692   0.480  1.8724 -0.3802  0.5489
 7741SOL     OW23800   5.063   1.063   2.832 -0.7567  0.4576 -0.2854
 7741SOL    HW123801   5.072   0.972   2.805 -4.4928 -0.6007  1.3240
 7741SOL    HW223802   5.108   1.068   2.917 -0.5526  0.0836 -0.3735
 7742SOL     OW23803   3.667   6.042   1.508 -0.1260 -0.1813  0.2664
 7742SOL    HW123804   3.655   6.011   1.418  0.4184 -1.7127  0.6896
 7742SOL    HW223805   3.760   6.030   1.525 -0.2901 -0.2194  1.1576
 7743SOL     OW23806   1.248   0.981   1.724 -0.1603 -0.2169  0.5512
 7743SOL    HW123807   1.252   1.036   1.647 -0.9720 -0.4570  0.3249
 7743SOL    HW223808   1.289   0.898   1.698  0.5917  0.0873  0.7351
 7744SOL     OW23809   0.147   0.984   6.673  0.0826  0.1383  0.3487
 7744SOL    HW123810   0.074   0.943   6.722  0.1815 -1.1922 -0.5664
 7744SOL    HW223811   0.202   0.910   6.647  0.5292  0.9153 -0.9651
 7745SOL     OW23812   6.496   9.622   8.144 -0.6547 -0.0199  0.0993
 7745SOL    HW123813   6.425   9.567   8.178 -0.3486 -1.2653 -1.1971
 7745SOL    HW223814   6.576   9.577   8.171 -0.3640  0.7143  0.4871
 7746SOL     OW23815   4.069   5.662   8.919  0.1524  0.1481  0.2529
 7746SOL    HW123816   4.091   5.573   8.889 -0.4305 -0.7519  2.3066
 7746SOL    HW223817   4.120   5.673   8.999 -0.2636  1.4397  0.3602
 7747SOL     OW23818   1.882   8.027   6.426 -0.3253  0.1654 -0.1989
 7747SOL    HW123819   1.853   8.051   6.338 -0.6547  0.4539 -0.0125
 7747SOL    HW223820   1.931   7.945   6.414  1.2251  1.1405 -0.9095
 7748SOL     OW23821   1.477   1.388   4.225  0.1545 -0.0037 -0.4081
 7748SOL    HW123822   1.383   1.380   4.243 -0.2948  0.1972 -2.4641
 7748SOL    HW223823   1.517   1.317   4.275 -0.7903  1.2364  2.3137
 7749SOL     OW23824   4.755   2.988   4.665  0.6525 -0.4319  0.7540
 7749SOL    HW123825   4.688   3.048   4.699 -0.4451 -1.0180 -0.3138
 7749SOL    HW223826   4.709   2.906   4.651  1.2360 -0.4469 -1.3819
 7750SOL     OW23827   3.741   4.873   2.157  0.2666  0.2702  0.3077
 7750SOL    HW123828   3.661   4.887   2.207  0.3036  0.7686  0.2413
 7750SOL    HW223829   3.754   4.956   2.110  0.0543 -0.2951 -0.7837
 7751SOL     OW23830   4.095   0.116   2.835  0.5456  0.0393  0.6038
 7751SOL    HW123831   4.158   0.155   2.774  0.2476 -1.3861 -0.6850
 7751SOL    HW223832   4.010   0.147   2.805  0.4810  0.2864  1.0406
 7752SOL     OW23833   5.468   2.289   8.635  0.0533  0.2855  0.1841
 7752SOL    HW123834   5.404   2.353   8.604  0.2865  0.8373  0.8016
 7752SOL    HW223835   5.468   2.220   8.569 -1.3228  0.1781  0.2615
 7753SOL     OW23836   7.646   9.682   9.887  0.2920  0.0690  0.0760
 7753SOL    HW123837   7.692   9.601   9.866 -1.0064 -0.6166 -0.1939
 7753SOL    HW223838   7.568   9.654   9.934 -1.1517  0.9855 -1.6326
 7754SOL     OW23839   9.041   3.652   8.631  0.2037  0.2178  0.5308
 7754SOL    HW123840   8.973   3.719   8.630 -2.2369 -2.1042  0.1140
 7754SOL    HW223841   9.064   3.643   8.724 -0.3643  0.7739  0.7299
 7755SOL     OW23842   4.312   8.383   4.699 -0.5996 -0.3843 -0.1133
 7755SOL    HW123843   4.316   8.370   4.604 -0.1196  1.6959 -0.4398
 7755SOL    HW223844   4.398   8.353   4.731 -0.7157 -0.9716 -0.3453
 7756SOL     OW23845   5.814   0.531   3.965  0.1915  0.1023 -0.0518
 7756SOL    HW123846   5.849   0.602   3.911 -1.5897  0.7807 -0.4082
 7756SOL    HW223847   5.880   0.518   4.033  0.9436  1.5541 -0.4546
 7757SOL     OW23848   5.590   9.841   4.295  0.3914 -0.0317 -0.1284
 7757SOL    HW123849   5.635   9.924   4.278 -1.7510  1.0402 -0.8770
 7757SOL    HW223850   5.542   9.856   4.377 -2.5561  0.6815 -1.8572
 7758SOL     OW23851   1.130   2.600   5.917 -0.1240  0.7194  0.4218
 7758SOL    HW123852   1.196   2.533   5.901  0.6982  1.0610  2.0806
 7758SOL    HW223853   1.084   2.570   5.996 -1.8582  0.5822 -0.5923
 7759SOL     OW23854   5.243   2.208   9.174  0.2465  0.1918 -0.2997
 7759SOL    HW123855   5.324   2.171   9.139  0.5678  1.7864 -1.3006
 7759SOL    HW223856   5.181   2.135   9.170  1.1700 -0.5811 -1.1125
 7760SOL     OW23857   7.852   6.817   8.940 -0.7692 -0.1788 -0.0631
 7760SOL    HW123858   7.890   6.896   8.900 -0.1584 -0.6085 -0.3490
 7760SOL    HW223859   7.915   6.748   8.921 -1.4324 -0.7971 -0.0434
 7761SOL     OW23860   6.271   9.968   3.024 -0.1560 -0.1096  0.2353
 7761SOL    HW123861   6.245   9.912   2.951 -1.2497  0.7953 -0.0915
 7761SOL    HW223862   6.305  10.047   2.983 -3.4827  1.6641  0.6019
 7762SOL     OW23863   1.719   7.827   7.082  0.1257  0.7296 -0.1611
 7762SOL    HW123864   1.691   7.791   7.167 -1.9229 -0.0332 -1.1044
 7762SOL    HW223865   1.673   7.910   7.074  1.7565  1.7165  0.2374
 7763SOL     OW23866   0.490   6.560   8.934  0.2507 -0.6168  0.0247
 7763SOL    HW123867   0.442   6.494   8.884 -0.3056  0.5963 -1.0958
 7763SOL    HW223868   0.582   6.538   8.920  0.0874 -2.0394  0.9281
 7764SOL     OW23869   4.046   8.018   8.665 -0.0131 -0.0123 -0.2635
 7764SOL    HW123870   4.075   7.927   8.654 -0.4995  0.0067 -1.9474
 7764SOL    HW223871   3.953   8.017   8.646 -0.2394  0.7003  0.6945
 7765SOL     OW23872   3.071   5.256   8.073  0.7643  0.2353  0.8435
 7765SOL    HW123873   3.124   5.222   8.001  0.9483  0.1511  1.0165
 7765SOL    HW223874   3.134   5.274   8.143  0.4996 -0.4385  1.2682
 7766SOL     OW23875   3.164   6.913   7.513  0.3476 -0.2335  0.7951
 7766SOL    HW123876   3.069   6.921   7.522  0.6268  2.3344  2.7525
 7766SOL    HW223877   3.195   6.894   7.602  1.6618 -1.7856  0.0524
 7767SOL     OW23878   4.201   4.904   1.080 -0.2144  0.1799  0.0429
 7767SOL    HW123879   4.183   4.832   1.140  2.0406  0.8274  1.6372
 7767SOL    HW223880   4.166   4.981   1.125 -2.6804  0.1926 -1.6827
 7768SOL     OW23881   7.320   0.851   6.502 -0.1396  0.0618 -0.2945
 7768SOL    HW123882   7.315   0.941   6.472  1.7255  0.3023  0.0190
 7768SOL    HW223883   7.296   0.855   6.594 -1.1442  0.0458 -0.5421
 7769SOL     OW23884   8.302   6.279   2.511 -0.1612  0.1261  0.4060
 7769SOL    HW123885   8.209   6.258   2.501  0.0117 -0.3568 -0.2447
 7769SOL    HW223886   8.333   6.299   2.423  0.6618 -1.0814  0.3926
 7770SOL     OW23887   7.697   2.031   3.269 -0.1334  0.1500 -0.1087
 7770SOL    HW123888   7.647   1.987   3.200 -0.3155  0.9462 -0.5006
 7770SOL    HW223889   7.661   1.997   3.350  1.0771 -1.9400 -0.3569
 7771SOL     OW23890   0.864   8.048   7.902 -0.1102 -0.4668  0.2704
 7771SOL    HW123891   0.855   8.040   7.807  0.4714 -1.2504  0.2689
 7771SOL    HW223892   0.889   8.139   7.916 -0.5583 -0.2481 -0.2962
 7772SOL     OW23893   9.942   5.129   0.138 -0.2689 -0.0892 -1.0291
 7772SOL    HW123894   9.981   5.199   0.086 -0.8773  0.9852 -0.1024
 7772SOL    HW223895   9.898   5.175   0.210 -0.2197 -1.4656 -0.0843
 7773SOL     OW23896   1.534   8.405   4.746  0.0524 -0.0437 -0.2506
 7773SOL    HW123897   1.474   8.331   4.749  0.2656 -0.3095 -1.7191
 7773SOL    HW223898   1.617   8.367   4.715  1.6203 -0.0462  3.4354
 7774SOL     OW23899   4.423   4.117   9.009 -0.3300 -0.1601  0.1578
 7774SOL    HW123900   4.448   4.140   9.099  0.7630  0.2696 -0.2350
 7774SOL    HW223901   4.506   4.109   8.962 -0.9013  0.3857 -0.9982
 7775SOL     OW23902   3.714   3.180   0.324  0.3953  0.3996 -0.0109
 7775SOL    HW123903   3.789   3.132   0.289 -0.0612 -0.3863  0.0654
 7775SOL    HW223904   3.718   3.265   0.281 -0.0161 -0.4582 -1.8401
 7776SOL     OW23905   1.784   6.705   5.980  0.5412  0.2740 -0.5644
 7776SOL    HW123906   1.869   6.746   5.963 -0.0680  2.7552  1.6418
 7776SOL    HW223907   1.744   6.760   6.047 -2.1370 -1.7737 -0.3014
 7777SOL     OW23908   4.918   0.644   1.173 -0.0180  0.2469  0.2039
 7777SOL    HW123909   5.006   0.673   1.147 -0.1880  0.9458  0.4134
 7777SOL    HW223910   4.928   0.612   1.262 -0.4442  2.6064  1.1534
 7778SOL     OW23911   4.695   4.513   5.724 -0.4270  0.0302  0.2361
 7778SOL    HW123912   4.670   4.600   5.755 -0.4390 -0.3475  1.3551
 7778SOL    HW223913   4.637   4.496   5.650 -0.5000  0.9254  0.0768
 7779SOL     OW23914   9.444   2.332   2.518 -0.3673 -0.3698 -0.4215
 7779SOL    HW123915   9.453   2.383   2.599 -2.4210  0.8377 -0.8835
 7779SOL    HW223916   9.366   2.278   2.533 -0.5771 -0.3739 -1.4591
 7780SOL     OW23917   6.399   9.888   4.386  0.4052  0.0088 -0.2657
 7780SOL    HW123918   6.351   9.833   4.447  0.4832 -1.8641 -1.7752
 7780SOL    HW223919   6.476   9.918   4.435 -0.6489  0.4204  1.1893
 7781SOL     OW23920   3.222   7.107   8.776 -0.0443  0.2618 -0.4167
 7781SOL    HW123921   3.195   7.018   8.756 -2.2951  0.2663  1.9920
 7781SOL    HW223922   3.232   7.109   8.871 -0.8892  2.7398 -0.2893
 7782SOL     OW23923   2.830   5.622   4.498 -0.1813  0.2075  0.2066
 7782SOL    HW123924   2.837   5.715   4.516  0.9845 -0.0317  1.1286
 7782SOL    HW223925   2.900   5.582   4.549 -0.5630 -1.1640 -0.2832
 7783SOL     OW23926   7.628   1.194   2.978  0.6205  0.3802  0.3244
 7783SOL    HW123927   7.543   1.151   2.972  1.2898 -0.9038 -0.5181
 7783SOL    HW223928   7.611   1.275   3.025 -1.1061  0.2691 -0.0551
 7784SOL     OW23929   8.573   7.368   5.249 -0.6922  0.1059 -0.3161
 7784SOL    HW123930   8.656   7.322   5.263 -0.1706  1.2060  0.3459
 7784SOL    HW223931   8.506   7.307   5.279 -0.0877 -0.5812 -0.3469
 7785SOL     OW23932   6.707   9.600   3.663  0.3203 -0.3740  1.1134
 7785SOL    HW123933   6.651   9.654   3.719 -0.3005 -0.6420  0.7620
 7785SOL    HW223934   6.692   9.633   3.575  0.5534 -0.5872  0.9928
 7786SOL     OW23935   0.033   3.854   5.859 -0.0006 -0.4820 -0.3106
 7786SOL    HW123936   0.116   3.823   5.823  1.0148 -1.0089  2.2907
 7786SOL    HW223937   0.055   3.891   5.944 -2.4079 -0.3367  0.3428
 7787SOL     OW23938   6.245   3.985   5.052  0.5702 -0.0016  0.0790
 7787SOL    HW123939   6.215   3.929   4.981  0.4714  1.3073 -0.9556
 7787SOL    HW223940   6.305   3.931   5.103  1.7298 -0.5625 -1.7960
 7788SOL     OW23941   6.725   4.550   6.268 -0.5694 -0.0206  1.1371
 7788SOL    HW123942   6.774   4.623   6.304 -1.1792  0.7274  0.4850
 7788SOL    HW223943   6.633   4.578   6.273 -0.6985 -0.0077 -0.6878
 7789SOL     OW23944   9.161   3.544   1.214 -0.2612  1.0373  0.0117
 7789SOL    HW123945   9.186   3.610   1.278  2.2117  0.4010 -0.1721
 7789SOL    HW223946   9.183   3.461   1.256 -1.0436  0.4650 -0.6843
 7790SOL     OW23947   2.035   2.434   3.089  0.2655  0.3477 -0.1116
 7790SOL    HW123948   1.962   2.484   3.053  0.5730  0.5809 -0.4088
 7790SOL    HW223949   1.999   2.346   3.102  0.0074  0.3943 -0.4971
 7791SOL     OW23950   5.175   2.786   2.371 -0.4207  0.4522 -0.3697
 7791SOL    HW123951   5.218   2.837   2.303 -0.0793  2.6392  1.3628
 7791SOL    HW223952   5.096   2.836   2.393 -1.2357 -0.9104 -0.0486
 7792SOL     OW23953   2.157   3.890   6.455  0.0648 -0.3603 -0.1564
 7792SOL    HW123954   2.251   3.905   6.444  0.5760 -3.3616 -0.5734
 7792SOL    HW223955   2.118   3.933   6.379  1.1439  0.3874 -0.3211
 7793SOL     OW23956   3.314   8.207   7.339 -0.3011  0.0156 -0.5255
 7793SOL    HW123957   3.317   8.141   7.270  0.0239  0.5816 -1.0629
 7793SOL    HW223958   3.273   8.283   7.297  0.7384  0.6764 -0.3749
 7794SOL     OW23959   9.581   5.788   3.042 -0.0678  0.1106  0.1272
 7794SOL    HW123960   9.661   5.752   3.081  0.4940  1.3043  0.1300
 7794SOL    HW223961   9.517   5.718   3.049 -0.1225  0.3785  3.5481
 7795SOL     OW23962   9.583   6.618   7.247  0.1329 -0.3030  0.3761
 7795SOL    HW123963   9.531   6.540   7.226 -0.7587  0.4387 -0.2458
 7795SOL    HW223964   9.519   6.688   7.253  1.0716  0.6492 -0.4233
 7796SOL     OW23965   8.414   8.862   3.970  0.6165  0.3396 -0.1055
 7796SOL    HW123966   8.352   8.860   3.897  0.5424 -0.1950 -0.0350
 7796SOL    HW223967   8.436   8.770   3.984  0.1090  0.3678  0.9889
 7797SOL     OW23968   7.015   0.315   2.848  0.2894  0.0350  0.1060
 7797SOL    HW123969   7.011   0.399   2.893  0.2169  0.7406 -1.1672
 7797SOL    HW223970   7.036   0.252   2.917  0.1723  1.0598  1.1171
 7798SOL     OW23971   0.215   9.045   8.013  0.6511 -0.0689 -0.3408
 7798SOL    HW123972   0.171   8.974   7.966  0.6606  1.0193 -2.0696
 7798SOL    HW223973   0.309   9.029   7.998  0.6823 -0.0905 -0.1237
 7799SOL     OW23974   8.851   3.486   0.358 -0.1585 -0.2549  0.8670
 7799SOL    HW123975   8.840   3.448   0.270 -1.0314 -1.5645  1.5017
 7799SOL    HW223976   8.790   3.560   0.359  1.8351  1.5210 -0.5195
 7800SOL     OW23977   9.605   0.169   6.581 -0.5217  0.4237  0.0349
 7800SOL    HW123978   9.522   0.124   6.568 -0.5310 -0.0020  1.4189
 7800SOL    HW223979   9.583   0.245   6.635 -0.3251  1.4817 -1.3252
 7801SOL     OW23980   0.333   1.644   2.081 -0.5225  0.0631  0.3790
 7801SOL    HW123981   0.344   1.594   2.162 -0.1842 -0.4616  0.0132
 7801SOL    HW223982   0.346   1.735   2.107  2.8085 -0.2837  0.3835
 7802SOL     OW23983   3.768   4.309   0.019 -0.1428 -0.0882  0.0282
 7802SOL    HW123984   3.818   4.390   0.032 -1.7325  1.1200 -1.0618
 7802SOL    HW223985   3.835   4.240   0.018  1.5449  1.4650 -1.6059
 7803SOL     OW23986   1.244   1.929   6.763 -0.0348 -0.6344 -0.2054
 7803SOL    HW123987   1.170   1.906   6.819  0.1854  1.8988  1.2927
 7803SOL    HW223988   1.312   1.957   6.824  0.6957  0.9985 -1.6639
 7804SOL     OW23989   7.784   4.213   3.845 -0.7486  0.2534 -0.0277
 7804SOL    HW123990   7.819   4.240   3.760 -1.0430  1.5219  0.2449
 7804SOL    HW223991   7.861   4.185   3.894 -0.6312 -1.0093 -0.8681
 7805SOL     OW23992   3.820   0.392   7.454  0.2431  0.5227  0.2776
 7805SOL    HW123993   3.864   0.424   7.533  2.5652 -0.1415 -0.6842
 7805SOL    HW223994   3.826   0.297   7.460 -1.2904  0.3926  0.1962
 7806SOL     OW23995   6.884   5.036   7.492  0.3791  0.2369 -0.1883
 7806SOL    HW123996   6.906   4.952   7.452 -2.7002 -0.3989 -0.7995
 7806SOL    HW223997   6.853   5.089   7.420 -1.9143  0.3043  0.7794
 7807SOL     OW23998   7.268   1.399   6.096 -0.0684 -0.4586 -0.0561
 7807SOL    HW123999   7.340   1.419   6.036 -0.0617  0.8589  0.3578
 7807SOL    HW224000   7.236   1.314   6.067  1.2101 -0.7579 -0.6814
 7808SOL     OW24001   5.183   1.731   0.110  0.3178  0.7927 -0.2411
 7808SOL    HW124002   5.200   1.700   0.199 -0.3946  2.0844  0.3685
 7808SOL    HW224003   5.088   1.722   0.099  0.2831  1.4876 -0.5454
 7809SOL     OW24004   2.079   7.306   8.027  0.6507 -0.2995  0.3198
 7809SOL    HW124005   2.092   7.349   8.112  1.0742  0.8490 -0.3045
 7809SOL    HW224006   2.104   7.214   8.043 -1.2710 -0.6138  1.9459
 7810SOL     OW24007   4.644   9.245   6.550  0.0796 -0.6141  0.8901
 7810SOL    HW124008   4.653   9.255   6.455  0.4095  0.6482  1.0384
 7810SOL    HW224009   4.664   9.332   6.585 -0.1032 -1.0523  2.1138
 7811SOL     OW24010   3.871   3.016   0.817 -0.4944 -0.5037  0.5447
 7811SOL    HW124011   3.829   3.100   0.838 -1.0632 -1.0950  1.8597
 7811SOL    HW224012   3.837   2.993   0.731  1.4962  1.7435 -0.9741
 7812SOL     OW24013   0.909   5.145   6.974  0.0941  0.3310  0.2155
 7812SOL    HW124014   1.000   5.159   6.999  0.8912 -1.4213 -1.4760
 7812SOL    HW224015   0.867   5.114   7.054  0.9436  1.2066  1.0281
 7813SOL     OW24016   7.251   0.657   2.872  0.0756 -0.1753  0.3960
 7813SOL    HW124017   7.163   0.623   2.887  0.0067  0.0193  0.4327
 7813SOL    HW224018   7.279   0.692   2.956  0.2045 -0.2730  0.3946
 7814SOL     OW24019   8.391   2.307   0.562  0.4343 -0.1601  0.1325
 7814SOL    HW124020   8.312   2.332   0.610  0.0734 -0.5711 -0.2380
 7814SOL    HW224021   8.415   2.222   0.599  0.1247 -0.5028 -0.4414
 7815SOL     OW24022   7.946   5.233   3.405 -0.2209  0.8245 -0.4121
 7815SOL    HW124023   7.922   5.243   3.313 -1.0954 -1.2410 -0.4677
 7815SOL    HW224024   7.937   5.139   3.422 -0.8177  1.2479  1.9811
 7816SOL     OW24025   3.791   8.403   8.439  0.1947  0.5335 -0.4129
 7816SOL    HW124026   3.874   8.356   8.431 -0.6300 -0.8677 -1.1516
 7816SOL    HW224027   3.747   8.361   8.513 -0.2151  0.6754 -0.5728
 7817SOL     OW24028   9.654   6.406   3.703 -0.2876  0.7760  0.0078
 7817SOL    HW124029   9.694   6.398   3.616 -0.1245  2.0929 -0.0620
 7817SOL    HW224030   9.681   6.327   3.749 -1.6277 -0.7051 -1.6256
 7818SOL     OW24031   0.885   0.862   5.656 -0.1480  0.0224  0.2252
 7818SOL    HW124032   0.869   0.836   5.565  1.2939  5.1186 -1.8492
 7818SOL    HW224033   0.978   0.841   5.671  0.1506  0.9535 -0.2593
 7819SOL     OW24034   0.891   3.775   5.607 -0.0352 -0.2745 -0.2296
 7819SOL    HW124035   0.932   3.835   5.544 -0.9777  0.5636 -0.0641
 7819SOL    HW224036   0.885   3.826   5.688 -2.0573 -0.0892 -0.4428
 7820SOL     OW24037   5.508   8.365   5.998  0.3655 -0.0125 -0.1124
 7820SOL    HW124038   5.479   8.400   6.082 -1.2672 -0.2504 -0.5407
 7820SOL    HW224039   5.439   8.303   5.972  1.0327 -0.2544 -1.4263
 7821SOL     OW24040   8.282   4.084   9.781 -0.3620 -0.3622  0.4891
 7821SOL    HW124041   8.292   3.994   9.750 -0.0097 -0.3329  0.5151
 7821SOL    HW224042   8.232   4.128   9.711 -0.1352 -0.4603  0.2663
 7822SOL     OW24043   2.844   3.231   3.296 -0.2522 -0.0757  1.0067
 7822SOL    HW124044   2.777   3.188   3.350 -1.1764 -0.5523 -0.4502
 7822SOL    HW224045   2.797   3.255   3.216  1.0885  0.5363  0.3848
 7823SOL     OW24046   6.347   5.214   4.164  0.0161  0.0296 -1.0678
 7823SOL    HW124047   6.362   5.164   4.243  0.2298 -1.6428 -2.1299
 7823SOL    HW224048   6.365   5.305   4.189  1.9439 -0.6794  0.3061
 7824SOL     OW24049   1.053   3.229   9.402 -0.2026 -0.3221 -0.1910
 7824SOL    HW124050   1.147   3.246   9.404 -0.3214  1.1538 -2.7048
 7824SOL    HW224051   1.035   3.207   9.311 -2.1774 -1.6944  0.4561
 7825SOL     OW24052   5.278   7.789   7.301  0.5111 -0.8080 -0.2556
 7825SOL    HW124053   5.319   7.821   7.381  0.5555 -0.1881 -0.5218
 7825SOL    HW224054   5.332   7.714   7.274  1.5393  0.0605 -0.6583
 7826SOL     OW24055   8.943   0.569   1.187 -0.2098  0.0715 -0.2585
 7826SOL    HW124056   8.963   0.524   1.105 -0.4008 -0.1831 -0.1687
 7826SOL    HW224057   8.898   0.503   1.240 -0.4753  0.3622 -0.1172
 7827SOL     OW24058   7.211   3.943   9.495  0.5167  0.3057 -0.0450
 7827SOL    HW124059   7.165   4.025   9.509  0.9628  0.2449  1.9540
 7827SOL    HW224060   7.277   3.964   9.429 -0.2642  1.1880 -0.5718
 7828SOL     OW24061   9.855   8.962   1.754  0.3415  0.2996  0.0722
 7828SOL    HW124062   9.946   8.952   1.782  0.5413 -0.5497 -0.8391
 7828SOL    HW224063   9.804   8.918   1.822  0.8427 -2.0224 -0.9498
 7829SOL     OW24064   0.661   6.079   7.831 -0.1323  0.6838 -0.3133
 7829SOL    HW124065   0.603   6.138   7.784 -0.7967  0.4343  0.1865
 7829SOL    HW224066   0.739   6.072   7.775 -0.3804  1.3960 -0.7524
 7830SOL     OW24067   8.966   1.789   6.678  0.1188  0.2694 -0.1580
 7830SOL    HW124068   8.937   1.700   6.655  0.8185  0.2791 -1.1580
 7830SOL    HW224069   8.967   1.790   6.774  0.6016 -0.9856 -0.1285
 7831SOL     OW24070   7.924   6.961   2.730 -0.1225 -0.4124  0.2027
 7831SOL    HW124071   7.914   6.867   2.712  1.5600 -0.3812 -1.2334
 7831SOL    HW224072   7.837   6.990   2.759 -0.8655 -2.2479 -0.0508
 7832SOL     OW24073   2.178   0.961   2.634  0.3478  0.0909 -0.0214
 7832SOL    HW124074   2.115   0.925   2.695 -1.0331 -0.6366 -1.7891
 7832SOL    HW224075   2.160   1.055   2.633 -1.1438 -0.1773 -0.9270
 7833SOL     OW24076   8.821   6.147   1.852 -0.1048 -0.2179 -0.2196
 7833SOL    HW124077   8.812   6.217   1.787 -1.4847  0.7636  0.9625
 7833SOL    HW224078   8.753   6.166   1.917  0.5485 -1.7598  0.9702
 7834SOL     OW24079   6.133   5.221   7.067  0.4225 -0.1985 -0.1803
 7834SOL    HW124080   6.048   5.189   7.096  1.0835 -1.4348  0.5021
 7834SOL    HW224081   6.179   5.244   7.148  1.2661 -0.9664 -0.4291
 7835SOL     OW24082   4.249   2.951   5.336 -0.5423  0.0057  0.9108
 7835SOL    HW124083   4.176   2.986   5.387  0.0268 -0.2436  1.9311
 7835SOL    HW224084   4.210   2.883   5.281 -1.3841  1.1735  0.0469
 7836SOL     OW24085   0.542   0.690   9.432 -0.4112 -0.1895 -0.3809
 7836SOL    HW124086   0.472   0.754   9.418 -2.0273 -1.4432  1.4123
 7836SOL    HW224087   0.527   0.623   9.366  1.0035  0.9791 -1.9607
 7837SOL     OW24088   6.251   1.924   2.658 -0.6406  0.2853  0.2011
 7837SOL    HW124089   6.221   1.885   2.740 -0.4288 -0.8033 -0.2276
 7837SOL    HW224090   6.338   1.959   2.679 -0.6107  0.0631  0.4586
 7838SOL     OW24091   9.680   1.945   7.271  0.3087  0.0838  0.3386
 7838SOL    HW124092   9.701   1.876   7.209  1.1207 -0.5601  1.3028
 7838SOL    HW224093   9.756   1.950   7.329 -0.3005  0.8632  1.1093
 7839SOL     OW24094   7.131   7.631   3.119 -0.6188  0.0542  0.2570
 7839SOL    HW124095   7.069   7.683   3.067  0.2807  0.8298 -0.0691
 7839SOL    HW224096   7.097   7.635   3.208 -2.2191 -1.3367 -0.2434
 7840SOL     OW24097   4.041   9.119   0.018 -0.4764 -0.0666 -0.2209
 7840SOL    HW124098   4.036   9.068  -0.063 -0.7981  0.5219 -0.5797
 7840SOL    HW224099   4.046   9.053   0.087 -0.9762 -0.5906 -0.6712
 7841SOL     OW24100   5.269   7.663   8.729 -0.2812 -0.0604 -0.4729
 7841SOL    HW124101   5.187   7.680   8.683 -0.8792 -2.5311 -0.4527
 7841SOL    HW224102   5.306   7.586   8.684  1.4745  0.3395  0.2211
 7842SOL     OW24103   1.581   8.160   8.393 -0.4496  0.2050 -0.2641
 7842SOL    HW124104   1.620   8.243   8.419  1.0039 -0.4896 -0.1143
 7842SOL    HW224105   1.503   8.152   8.447 -0.4687  1.3452 -0.0937
 7843SOL     OW24106   4.035   8.784   0.769 -0.5215 -0.2493 -0.1529
 7843SOL    HW124107   3.970   8.772   0.838  0.0292  2.3468  0.9293
 7843SOL    HW224108   4.117   8.757   0.809 -0.5904 -1.5121 -0.8166
 7844SOL     OW24109   3.220   9.491   0.159 -0.6357 -0.0299  0.2885
 7844SOL    HW124110   3.182   9.560   0.214 -0.4075 -0.9618  1.6381
 7844SOL    HW224111   3.304   9.472   0.199  0.3862  0.5496 -1.4807
 7845SOL     OW24112   3.581   1.774   1.620 -0.0211 -0.0997 -0.3257
 7845SOL    HW124113   3.614   1.791   1.708  1.7729 -0.9439 -0.7793
 7845SOL    HW224114   3.625   1.838   1.565  0.9431 -1.2605 -0.9550
 7846SOL     OW24115   6.076   5.371   3.857 -0.0067 -0.1626  0.2569
 7846SOL    HW124116   6.136   5.393   3.785 -2.1079 -0.6010 -1.7406
 7846SOL    HW224117   6.107   5.286   3.889  2.5154  1.1897  1.7272
 7847SOL     OW24118   1.060   6.098   0.863 -0.3805 -0.1271 -0.1471
 7847SOL    HW124119   1.072   6.129   0.773 -0.5511 -2.8642 -1.2052
 7847SOL    HW224120   1.144   6.057   0.886 -0.9670 -1.2209  0.1417
 7848SOL     OW24121   2.333   3.802   2.156 -0.3827 -0.6108 -0.0938
 7848SOL    HW124122   2.381   3.815   2.237 -0.2231  0.6303 -0.3673
 7848SOL    HW224123   2.339   3.708   2.139  2.3316 -0.4630 -0.3528
 7849SOL     OW24124   5.078   7.088   4.670  0.1426 -0.4421  0.5082
 7849SOL    HW124125   5.053   7.025   4.737 -1.3776  1.5891  1.9986
 7849SOL    HW224126   4.995   7.121   4.636  0.8999 -0.7841 -1.7887
 7850SOL     OW24127   6.610   2.343   6.806 -0.2352  0.0025  0.0062
 7850SOL    HW124128   6.576   2.261   6.841  1.0053 -1.0688 -1.1696
 7850SOL    HW224129   6.702   2.344   6.832  0.2416  0.0838 -1.5436
 7851SOL     OW24130   5.185   4.941   9.535  0.2257  0.3819 -0.0913
 7851SOL    HW124131   5.181   4.845   9.536 -1.4280  0.3119 -2.8014
 7851SOL    HW224132   5.096   4.969   9.554  0.7278  1.4184  0.8294
 7852SOL     OW24133   5.489   9.255   2.485 -0.2624 -0.5418 -0.4179
 7852SOL    HW124134   5.395   9.263   2.504  0.0454  0.5684  0.7966
 7852SOL    HW224135   5.514   9.343   2.456  0.6857 -0.4066  0.7341
 7853SOL     OW24136   2.786   1.915   8.666  0.0900 -0.8006 -0.1973
 7853SOL    HW124137   2.833   1.955   8.739 -1.1852 -0.8331  0.6766
 7853SOL    HW224138   2.850   1.858   8.624  1.3226  0.4784 -0.1383
 7854SOL     OW24139   6.564   9.212   8.745 -0.5120  0.2810  0.2207
 7854SOL    HW124140   6.516   9.274   8.690 -3.2778  0.5087  2.6313
 7854SOL    HW224141   6.509   9.134   8.748  0.3076 -0.2863  1.4262
 7855SOL     OW24142   3.091   4.497   4.843  0.1513  0.5622 -0.0189
 7855SOL    HW124143   3.140   4.556   4.901 -0.2067  2.1077 -1.2309
 7855SOL    HW224144   3.156   4.434   4.813  0.5058  0.1850  1.4466
 7856SOL     OW24145   0.857   0.445   4.716  0.0848  0.2704 -0.3834
 7856SOL    HW124146   0.788   0.380   4.708 -0.3365  0.5619  0.7313
 7856SOL    HW224147   0.929   0.399   4.758 -0.1756  0.4896  0.3105
 7857SOL     OW24148   7.466   4.587   5.194 -0.0049 -0.2120  0.1291
 7857SOL    HW124149   7.488   4.648   5.265 -0.7149 -0.3587  0.4865
 7857SOL    HW224150   7.420   4.641   5.130  1.2108  0.0603 -0.5426
 7858SOL     OW24151   5.142   9.972   4.624 -0.4875  0.2778 -0.0731
 7858SOL    HW124152   5.078   9.903   4.643  0.0521  0.1116  1.2730
 7858SOL    HW224153   5.101  10.052   4.659 -0.9689  0.6100 -1.3380
 7859SOL     OW24154   4.592   9.685   9.484  0.9159  0.0290  0.0331
 7859SOL    HW124155   4.616   9.771   9.450  1.2138 -0.0784 -0.0396
 7859SOL    HW224156   4.623   9.624   9.418  0.8011 -0.1396  0.1342
 7860SOL     OW24157   2.633   6.669   3.515 -0.0465 -0.4105  0.1915
 7860SOL    HW124158   2.635   6.644   3.607 -1.0488  0.8684  0.5949
 7860SOL    HW224159   2.720   6.646   3.482  0.5291 -0.3614  1.5966
 7861SOL     OW24160   2.766   1.731   5.192 -0.4280  0.4689  0.9423
 7861SOL    HW124161   2.703   1.800   5.212 -1.2575 -0.2114  0.7223
 7861SOL    HW224162   2.815   1.764   5.117 -2.3811 -0.1156 -0.6776
 7862SOL     OW24163   7.673   6.566   8.034  0.0656 -0.0622 -0.7838
 7862SOL    HW124164   7.647   6.477   8.057 -0.0170  0.0898 -0.2533
 7862SOL    HW224165   7.768   6.563   8.026  0.1529 -0.0302  0.0684
 7863SOL     OW24166   4.283   4.415   6.621 -0.1073  0.3646  0.0264
 7863SOL    HW124167   4.260   4.377   6.706 -1.0547  0.7410 -0.0437
 7863SOL    HW224168   4.370   4.380   6.602 -0.0328 -0.0115  0.9811
 7864SOL     OW24169   2.923   9.687   8.160  0.1448  0.2116 -0.2291
 7864SOL    HW124170   2.852   9.628   8.186 -1.6030  1.6354 -1.5001
 7864SOL    HW224171   2.901   9.713   8.070  1.5824  1.7357 -0.1925
 7865SOL     OW24172   1.189   3.510   1.882  0.1376 -0.2360  0.5220
 7865SOL    HW124173   1.262   3.487   1.939  0.2451 -0.8047  0.1706
 7865SOL    HW224174   1.202   3.456   1.803 -0.4471 -0.0658  0.2993
 7866SOL     OW24175   2.545   4.716   9.839 -0.6131 -0.1871  0.1391
 7866SOL    HW124176   2.604   4.681   9.905 -3.0699 -3.4117  0.9208
 7866SOL    HW224177   2.569   4.670   9.759 -0.1395  0.7926 -0.2911
 7867SOL     OW24178   8.377   9.529   2.439 -0.0527 -0.1190 -0.3166
 7867SOL    HW124179   8.286   9.543   2.466 -0.1732 -0.7728 -0.3711
 7867SOL    HW224180   8.371   9.474   2.361  0.3730  0.2732 -0.6337
 7868SOL     OW24181   9.105   4.033   2.221  0.5625  0.1630  0.3861
 7868SOL    HW124182   9.077   3.944   2.242 -0.2764  0.0524 -1.0792
 7868SOL    HW224183   9.114   4.034   2.125  3.5163  0.8217  0.5569
 7869SOL     OW24184   5.985   7.854   4.072 -0.3349 -0.1824  0.2809
 7869SOL    HW124185   6.012   7.887   4.158 -0.4881  0.3106  0.1449
 7869SOL    HW224186   6.026   7.913   4.009 -1.2022  0.2054  0.0560
 7870SOL     OW24187   1.478   7.276   9.944  0.1393  0.1563 -0.0370
 7870SOL    HW124188   1.473   7.354   9.888 -3.4575 -1.5089 -2.3765
 7870SOL    HW224189   1.544   7.221   9.902 -0.5083  0.1180 -1.0354
 7871SOL     OW24190   5.677   3.402   4.374  0.4062 -0.0856 -0.1268
 7871SOL    HW124191   5.729   3.350   4.435 -0.3041  1.1678  1.6654
 7871SOL    HW224192   5.688   3.492   4.404  0.7614  0.7245 -2.4811
 7872SOL     OW24193   2.076   5.746   2.481 -0.1279  0.3400 -0.2519
 7872SOL    HW124194   2.041   5.744   2.570 -3.6508  0.4559 -1.4788
 7872SOL    HW224195   2.112   5.834   2.472  0.2372  0.3448  1.0313
 7873SOL     OW24196   0.852   5.168   2.830  0.5255  0.1858 -0.3803
 7873SOL    HW124197   0.891   5.255   2.834  1.4149 -0.2166  0.1859
 7873SOL    HW224198   0.927   5.109   2.821  0.2005 -0.7162  2.0383
 7874SOL     OW24199   5.873   9.462   2.256 -0.0456  0.2773 -0.3559
 7874SOL    HW124200   5.851   9.489   2.345  0.3973  2.4616 -0.8554
 7874SOL    HW224201   5.882   9.367   2.261 -2.3090  0.0681  1.4270
 7875SOL     OW24202   3.220   7.991   6.826 -0.1013  0.1488 -0.1449
 7875SOL    HW124203   3.292   7.940   6.864 -1.2123 -0.5520  1.1015
 7875SOL    HW224204   3.243   7.999   6.733  0.5233 -1.9638 -0.2337
 7876SOL     OW24205   9.346   6.203   2.741  0.1157 -0.1032  0.5780
 7876SOL    HW124206   9.288   6.219   2.815  0.5988 -2.4697  1.5682
 7876SOL    HW224207   9.429   6.243   2.767  0.7933 -2.3856  2.1798
 7877SOL     OW24208   1.442   4.045   2.147 -0.4487 -0.1296 -0.0781
 7877SOL    HW124209   1.399   4.130   2.152  1.4569  0.9902 -1.4714
 7877SOL    HW224210   1.413   4.008   2.064  0.7894  0.4022 -0.7755
 7878SOL     OW24211   7.026   2.192   8.434 -0.8061  0.2614  0.3959
 7878SOL    HW124212   6.934   2.215   8.426 -0.5397  1.3633  0.4465
 7878SOL    HW224213   7.032   2.105   8.394 -1.5647  0.8577 -1.0892
 7879SOL     OW24214   5.784   5.891   1.302 -0.5310 -0.2382 -0.1258
 7879SOL    HW124215   5.803   5.833   1.376 -2.3669 -0.1274  0.4806
 7879SOL    HW224216   5.853   5.958   1.305  0.7330 -1.4916  0.0759
 7880SOL     OW24217   2.905   4.807   6.702 -0.5023  0.4273  0.1109
 7880SOL    HW124218   2.956   4.887   6.695 -0.2112  0.2548  0.2357
 7880SOL    HW224219   2.912   4.782   6.794  2.0312 -1.4301 -0.4807
 7881SOL     OW24220   1.511   9.134   8.319  0.7416  0.0988 -0.4048
 7881SOL    HW124221   1.495   9.160   8.409 -2.6499 -0.0145 -0.8202
 7881SOL    HW224222   1.588   9.077   8.323 -0.2232 -1.1925  2.6697
 7882SOL     OW24223   8.075   6.409   1.650 -0.6034 -0.0492 -0.3090
 7882SOL    HW124224   8.113   6.486   1.607  1.4248 -0.6902  0.2229
 7882SOL    HW224225   8.100   6.335   1.595 -0.3988 -0.5786  0.4700
 7883SOL     OW24226   0.338   4.351   2.357 -0.2719  0.3976  0.6143
 7883SOL    HW124227   0.321   4.298   2.435 -0.4571  0.0703  0.3543
 7883SOL    HW224228   0.405   4.413   2.384 -1.4854  1.3631  1.5140
 7884SOL     OW24229   4.075   7.808   0.708  0.0189  0.1928 -0.2988
 7884SOL    HW124230   4.109   7.727   0.670  0.7160 -0.6078  1.8469
 7884SOL    HW224231   4.121   7.878   0.661  1.2073 -0.7533 -0.5884
 7885SOL     OW24232   5.451   3.506   0.209  0.3659  0.0906 -0.2107
 7885SOL    HW124233   5.467   3.556   0.289 -3.4095 -0.4735  1.1153
 7885SOL    HW224234   5.480   3.417   0.231  2.1148  0.5232 -0.6335
 7886SOL     OW24235   7.079   9.491   6.229 -0.1246 -0.3928 -0.7845
 7886SOL    HW124236   7.088   9.397   6.210  4.5595 -1.1846  3.2017
 7886SOL    HW224237   7.142   9.533   6.170  1.8547 -0.6566  1.0124
 7887SOL     OW24238   8.965   4.420   2.993 -0.0938  0.6411 -0.4056
 7887SOL    HW124239   8.994   4.415   3.084 -1.9693  1.6675  0.3056
 7887SOL    HW224240   8.924   4.336   2.975  1.4244 -0.0450 -0.7485
 7888SOL     OW24241   9.704   7.938   6.293  0.1377 -0.5760  0.0820
 7888SOL    HW124242   9.693   7.846   6.318 -1.4750 -0.2055  0.9083
 7888SOL    HW224243   9.703   7.937   6.198 -0.5763 -1.3682  0.0814
 7889SOL     OW24244   5.791   2.000   7.774  0.1262  0.5309  0.2582
 7889SOL    HW124245   5.870   2.054   7.766 -0.2398  1.0627  0.1413
 7889SOL    HW224246   5.739   2.023   7.697  0.2845 -0.5343 -0.1757
 7890SOL     OW24247   7.359   3.424   1.348  0.2621  0.4525 -0.3439
 7890SOL    HW124248   7.286   3.428   1.287  1.6678 -0.1348 -2.1555
 7890SOL    HW224249   7.409   3.504   1.330  0.3057  0.6435  0.5740
 7891SOL     OW24250   2.247   1.768   6.210 -0.4784 -0.5327  0.5996
 7891SOL    HW124251   2.282   1.855   6.228 -2.0778  0.6286 -1.4364
 7891SOL    HW224252   2.323   1.710   6.210  0.5361  0.7074  2.6450
 7892SOL     OW24253   3.337   3.912   3.169 -0.3493  0.3702 -0.3119
 7892SOL    HW124254   3.247   3.897   3.199 -0.6628  1.5682 -0.5763
 7892SOL    HW224255   3.331   3.908   3.074  0.0778 -0.5050 -0.3108
 7893SOL     OW24256   9.594   4.118   1.160  0.4286 -0.5427 -0.3650
 7893SOL    HW124257   9.590   4.080   1.248 -0.9118 -0.8132 -0.5186
 7893SOL    HW224258   9.567   4.210   1.172 -0.6935 -0.8241 -0.6032
 7894SOL     OW24259   4.457   0.262   5.254  0.9385 -0.5119 -0.3693
 7894SOL    HW124260   4.497   0.193   5.307  2.4872 -1.3584 -2.4771
 7894SOL    HW224261   4.524   0.329   5.245 -0.6783  1.5883  1.9602
 7895SOL     OW24262   7.378   6.332   4.485 -0.5363  0.6265 -0.1922
 7895SOL    HW124263   7.438   6.267   4.450 -0.0154  0.9962  0.0062
 7895SOL    HW224264   7.342   6.376   4.408 -1.9943 -0.8487 -0.4052
 7896SOL     OW24265   7.456   7.674   2.287 -0.0524 -0.3477 -0.1333
 7896SOL    HW124266   7.457   7.673   2.383  0.7214 -0.7906 -0.1395
 7896SOL    HW224267   7.382   7.618   2.264 -0.7998  0.4737  0.2017
 7897SOL     OW24268   2.812   8.415   6.591  0.4980  0.2088  0.6645
 7897SOL    HW124269   2.878   8.474   6.555  0.9198  0.0873  1.2120
 7897SOL    HW224270   2.862   8.339   6.621  0.1869  0.3596  1.5994
 7898SOL     OW24271   7.772   7.036   3.469  0.2618  0.7274 -0.5420
 7898SOL    HW124272   7.752   6.944   3.453  0.1046  1.1564 -3.3427
 7898SOL    HW224273   7.686   7.079   3.472  0.3083  0.7837  1.2342
 7899SOL     OW24274   4.247   7.219   5.359 -0.2225 -0.2684  0.3533
 7899SOL    HW124275   4.192   7.148   5.392 -0.8029  1.2177  2.8435
 7899SOL    HW224276   4.195   7.298   5.372  1.0994  0.8287 -0.6844
 7900SOL     OW24277   5.156   4.520   7.858  0.6286 -0.0240 -0.0907
 7900SOL    HW124278   5.077   4.471   7.881  1.4660 -0.7600  1.3570
 7900SOL    HW224279   5.126   4.586   7.796 -1.3665  0.5082  1.3559
 7901SOL     OW24280   0.059   8.067   6.099 -0.1744 -0.5517  0.0813
 7901SOL    HW124281   0.047   8.147   6.048 -2.7193 -0.7515  0.2434
 7901SOL    HW224282   0.034   7.997   6.038 -2.4524 -0.8455  1.2397
 7902SOL     OW24283   6.734   4.550   2.061 -0.0242  0.6225  0.0506
 7902SOL    HW124284   6.647   4.512   2.061 -0.0880  0.7532 -1.0175
 7902SOL    HW224285   6.736   4.607   1.984  0.6960  1.3287  0.5731
 7903SOL     OW24286   8.057   4.302   5.387 -0.6334 -0.0844 -0.0986
 7903SOL    HW124287   8.024   4.235   5.447 -2.1205  0.1890 -0.5761
 7903SOL    HW224288   7.998   4.298   5.311 -0.9314  1.9518 -0.0210
 7904SOL     OW24289   1.207   4.999   4.453 -0.2722  0.3729  0.6646
 7904SOL    HW124290   1.149   4.967   4.384  0.7190  1.3776 -0.7093
 7904SOL    HW224291   1.289   4.950   4.441  0.1564  1.0731  0.6190
 7905SOL     OW24292   8.606   5.072   3.549  0.6813 -0.0255 -0.3241
 7905SOL    HW124293   8.648   5.124   3.481  0.3126  0.3402 -0.2743
 7905SOL    HW224294   8.668   5.002   3.568  0.5847 -0.4042 -1.3709
 7906SOL     OW24295   8.260   8.238   0.146  0.1020 -0.1193  0.0772
 7906SOL    HW124296   8.195   8.308   0.136 -0.8099 -1.0258 -0.6579
 7906SOL    HW224297   8.273   8.205   0.057 -2.4692 -3.4208  0.7203
 7907SOL     OW24298   0.663   7.144   2.779  0.1729 -0.5084 -0.0541
 7907SOL    HW124299   0.648   7.238   2.781 -0.6479 -0.6427  1.9398
 7907SOL    HW224300   0.600   7.110   2.715  0.7795  0.2948 -1.1187
 7908SOL     OW24301   1.452   1.825   4.518  0.0555 -0.1140 -0.3048
 7908SOL    HW124302   1.492   1.897   4.567 -1.8770  1.3364 -0.7147
 7908SOL    HW224303   1.408   1.868   4.444  0.0155 -1.8799 -1.3575
 7909SOL     OW24304   3.220   3.265   1.675 -0.2735  0.4157  0.0906
 7909SOL    HW124305   3.302   3.309   1.698 -0.0055 -0.4395  0.8272
 7909SOL    HW224306   3.161   3.336   1.648  0.5140  1.0959  0.1256
 7910SOL     OW24307   6.704   5.848   7.123  0.1085 -0.0430  0.3878
 7910SOL    HW124308   6.634   5.782   7.118 -0.4847  0.6912 -1.4132
 7910SOL    HW224309   6.772   5.815   7.064 -0.7344  1.5378 -1.5495
 7911SOL     OW24310   0.897   2.231   7.070  0.1052 -0.6705 -0.0799
 7911SOL    HW124311   0.920   2.298   7.005 -1.8903 -0.2812 -0.4433
 7911SOL    HW224312   0.872   2.281   7.148 -0.1925 -1.0427  0.0629
 7912SOL     OW24313   3.379   3.203   4.439  0.2693  0.3641 -0.2880
 7912SOL    HW124314   3.333   3.228   4.519  0.5760  0.8826 -0.2711
 7912SOL    HW224315   3.383   3.107   4.442 -0.7922  0.3111 -0.2864
 7913SOL     OW24316   4.912   0.364   9.232  0.3496 -0.1487 -0.4387
 7913SOL    HW124317   4.818   0.373   9.217  0.1171 -1.4680  0.0710
 7913SOL    HW224318   4.952   0.384   9.148 -0.5107 -1.3222 -1.1685
 7914SOL     OW24319   6.925   5.487   5.717 -0.9034  0.0178  0.1354
 7914SOL    HW124320   6.984   5.552   5.679  0.3295 -1.4274 -0.5492
 7914SOL    HW224321   6.862   5.468   5.647 -1.1906  0.3620  0.2945
 7915SOL     OW24322   3.690   1.780   1.115  0.3715 -0.2398 -0.0249
 7915SOL    HW124323   3.620   1.814   1.171 -0.1731 -0.3961 -0.5920
 7915SOL    HW224324   3.650   1.776   1.028  1.0938 -0.3280 -0.3566
 7916SOL     OW24325   0.854   7.220   1.298  1.0369  0.5477 -0.4280
 7916SOL    HW124326   0.890   7.277   1.231 -1.5510 -1.0061 -3.4235
 7916SOL    HW224327   0.891   7.134   1.279 -1.0142 -0.2622 -1.1065
 7917SOL     OW24328   2.388   3.496   7.635 -0.1386  0.1466  0.2591
 7917SOL    HW124329   2.430   3.412   7.619 -3.3415 -2.4624  3.5975
 7917SOL    HW224330   2.456   3.550   7.676  1.9820 -0.7115 -1.9154
 7918SOL     OW24331   8.291   7.816   5.272  0.3284  0.0549  0.2425
 7918SOL    HW124332   8.365   7.803   5.332  0.3561 -0.4920  0.0962
 7918SOL    HW224333   8.317   7.891   5.218  0.0549  0.9268  1.2847
 7919SOL     OW24334   7.335   5.911   3.949 -0.4737  0.1256  0.1759
 7919SOL    HW124335   7.393   5.837   3.930 -0.3982  0.3384 -0.4634
 7919SOL    HW224336   7.394   5.985   3.961 -0.4786 -0.1089  1.9127
 7920SOL     OW24337   1.246   2.565   6.180  0.3693  0.2537 -0.6565
 7920SOL    HW124338   1.325   2.594   6.133  1.4802 -0.0151  0.9724
 7920SOL    HW224339   1.272   2.484   6.223 -0.9323 -0.0541 -0.4036
 7921SOL     OW24340   0.031   3.785   4.451 -0.6534 -0.4860 -0.4891
 7921SOL    HW124341  -0.063   3.780   4.434 -0.9110  0.7774  0.4049
 7921SOL    HW224342   0.049   3.879   4.461  0.9203 -0.6192 -1.7494
 7922SOL     OW24343   8.925   8.818   1.671 -0.3427 -0.0605 -0.2163
 7922SOL    HW124344   8.906   8.798   1.762  1.4547 -0.5865  0.0710
 7922SOL    HW224345   8.917   8.734   1.626 -0.4704  0.0564 -0.4168
 7923SOL     OW24346   4.570   3.168   7.120 -0.0889 -0.1929 -0.2994
 7923SOL    HW124347   4.533   3.091   7.163 -0.4138  0.5478  0.7764
 7923SOL    HW224348   4.600   3.224   7.192  0.3679  0.5833 -1.0734
 7924SOL     OW24349   2.896   3.627   2.246 -0.5610 -0.3397 -0.3980
 7924SOL    HW124350   2.875   3.560   2.311  1.4840  0.4876  1.2051
 7924SOL    HW224351   2.833   3.697   2.262 -2.6909 -1.7237 -2.0592
 7925SOL     OW24352   1.636   9.665   0.625 -0.4175  0.7064 -0.2151
 7925SOL    HW124353   1.685   9.603   0.679  0.4009  0.8909 -0.7250
 7925SOL    HW224354   1.544   9.638   0.634  0.0345 -1.8175 -1.9337
 7926SOL     OW24355   0.901   6.591   9.834 -0.1006  0.3059  0.1268
 7926SOL    HW124356   0.864   6.516   9.788 -0.4951 -1.0413  2.4861
 7926SOL    HW224357   0.951   6.553   9.907  0.4467  2.2946  0.8526
 7927SOL     OW24358   4.055   7.388   3.277  0.4459 -0.6290 -0.1465
 7927SOL    HW124359   4.148   7.390   3.300  0.5898 -0.7606 -0.7030
 7927SOL    HW224360   4.045   7.308   3.224 -0.1505 -1.0609  0.5962
 7928SOL     OW24361   2.819   3.871   0.772  0.2039  0.1388 -0.0136
 7928SOL    HW124362   2.799   3.785   0.808 -0.5311  0.2229 -0.2121
 7928SOL    HW224363   2.802   3.931   0.845 -2.1028  0.3976 -0.6799
 7929SOL     OW24364   8.333   7.844   3.905  0.2522  0.0942  0.6891
 7929SOL    HW124365   8.338   7.750   3.919  0.4901  0.0509  0.3210
 7929SOL    HW224366   8.260   7.855   3.843 -0.5365  0.2527  1.6147
 7930SOL     OW24367   8.662   0.403   7.108 -0.0918 -0.0445  0.1333
 7930SOL    HW124368   8.691   0.326   7.158  0.4932  1.5424  2.4023
 7930SOL    HW224369   8.743   0.440   7.073 -0.2898 -0.0104 -0.2929
 7931SOL     OW24370   4.073   7.416   0.133 -0.0432 -0.0914  0.5270
 7931SOL    HW124371   4.108   7.369   0.057  1.9785 -0.0993  1.3813
 7931SOL    HW224372   4.063   7.506   0.103  2.6104  0.3468  0.6865
 7932SOL     OW24373   2.066   4.624   3.141 -0.2742 -0.0753  0.2181
 7932SOL    HW124374   2.072   4.595   3.232 -1.4584 -1.5617 -0.1430
 7932SOL    HW224375   2.078   4.544   3.089  0.0659  0.6960 -0.9431
 7933SOL     OW24376   8.376   6.570   4.692 -0.3167  0.0457 -0.6424
 7933SOL    HW124377   8.463   6.579   4.653 -0.0941  2.9176  0.3295
 7933SOL    HW224378   8.393   6.532   4.778  0.0539  1.0168 -0.2741
 7934SOL     OW24379   3.666   0.467   4.100  0.3629  0.3442 -0.2249
 7934SOL    HW124380   3.695   0.496   4.187 -0.9353  1.6331 -0.1718
 7934SOL    HW224381   3.575   0.441   4.114 -0.4486  2.2688 -1.4900
 7935SOL     OW24382   4.574   7.905   9.087  0.2672 -0.4093 -0.4520
 7935SOL    HW124383   4.538   7.885   9.174  0.8197 -0.5758 -0.2574
 7935SOL    HW224384   4.614   7.991   9.098  0.8390 -0.6798 -0.3849
 7936SOL     OW24385   3.841   6.376   5.255  0.4741 -0.7857  0.0481
 7936SOL    HW124386   3.771   6.383   5.320 -0.9458 -0.6852 -1.4338
 7936SOL    HW224387   3.904   6.315   5.295 -0.3899 -0.8186  1.4576
 7937SOL     OW24388   3.215   5.967   2.719 -0.2123  0.0159  0.5275
 7937SOL    HW124389   3.154   5.936   2.787 -2.0563  2.2853  0.0576
 7937SOL    HW224390   3.251   6.048   2.756 -2.4318  2.1730 -1.6211
 7938SOL     OW24391   6.176   3.736   9.157 -0.0733  0.1922  0.1886
 7938SOL    HW124392   6.106   3.673   9.140  0.5673 -0.3197 -0.6715
 7938SOL    HW224393   6.250   3.682   9.185 -0.4537  0.8463  2.7210
 7939SOL     OW24394   7.547   1.481   3.943 -0.0169 -0.4178  0.1824
 7939SOL    HW124395   7.585   1.567   3.926 -2.3392  0.4361 -1.0546
 7939SOL    HW224396   7.592   1.422   3.882  0.4646  0.2454 -0.1079
 7940SOL     OW24397   6.150   4.332   4.318  0.3309  0.0790  0.3235
 7940SOL    HW124398   6.169   4.426   4.323  0.3686  0.2613 -2.1729
 7940SOL    HW224399   6.062   4.327   4.279  0.4684 -0.9182  0.1075
 7941SOL     OW24400   2.825   6.515   4.931 -0.4766 -0.0783  0.2765
 7941SOL    HW124401   2.907   6.472   4.957 -0.1158 -1.1787 -2.3635
 7941SOL    HW224402   2.760   6.444   4.934 -0.4072 -0.2741 -1.6497
 7942SOL     OW24403   3.958   7.734   5.861  0.4131 -0.6191  0.8711
 7942SOL    HW124404   4.019   7.801   5.894  0.8059 -0.8268  0.5827
 7942SOL    HW224405   3.948   7.755   5.768  2.0828 -2.0892  0.2962
 7943SOL     OW24406   8.209   2.484   7.030  1.1086  0.6240 -0.2429
 7943SOL    HW124407   8.273   2.416   7.011 -1.3868 -2.2014  0.7639
 7943SOL    HW224408   8.230   2.514   7.118  0.7101 -0.7805  0.3519
 7944SOL     OW24409   9.327   8.027   4.807  0.5008  0.0561  0.6803
 7944SOL    HW124410   9.347   7.980   4.888 -0.4265 -0.2454  0.7418
 7944SOL    HW224411   9.373   7.977   4.739 -2.3882 -2.5054  0.3817
 7945SOL     OW24412   5.124   1.440   0.662 -0.6011  0.2730 -0.1025
 7945SOL    HW124413   5.047   1.496   0.660 -0.5738  0.3199  0.1554
 7945SOL    HW224414   5.119   1.390   0.580 -0.9875  0.1629 -0.0155
 7946SOL     OW24415   3.094   7.502   9.566 -0.4447  0.2222  0.3931
 7946SOL    HW124416   3.087   7.444   9.642  1.3874 -1.5897 -0.7157
 7946SOL    HW224417   3.128   7.446   9.496 -1.0499  2.0757 -1.4788
 7947SOL     OW24418   8.578   1.023   4.278  0.1043  0.2999 -0.1301
 7947SOL    HW124419   8.521   1.097   4.299  1.1595  1.7335 -2.0107
 7947SOL    HW224420   8.522   0.961   4.232 -0.1371  1.3510 -1.2985
 7948SOL     OW24421   8.565   0.409   0.164  0.0530  0.1284  0.4097
 7948SOL    HW124422   8.513   0.410   0.084  2.1641 -1.4153 -1.0790
 7948SOL    HW224423   8.621   0.332   0.156  1.0024  0.4453  2.9542
 7949SOL     OW24424   9.773   6.192   1.626 -0.3234  0.0620  0.1821
 7949SOL    HW124425   9.685   6.228   1.640 -0.5038 -0.1417 -0.3807
 7949SOL    HW224426   9.823   6.266   1.591 -0.0750  0.3650  1.1438
 7950SOL     OW24427   7.804   0.497   3.553  0.1886  0.0695  0.2678
 7950SOL    HW124428   7.813   0.403   3.536  0.0179  0.1154 -0.1020
 7950SOL    HW224429   7.711   0.514   3.540  0.0971  0.1597  1.0275
 7951SOL     OW24430   5.451   1.948   8.794  0.8937 -0.9154  1.0505
 7951SOL    HW124431   5.488   2.030   8.826  0.7403  0.9883 -2.9842
 7951SOL    HW224432   5.367   1.941   8.839  0.5046  1.6802  0.8921
 7952SOL     OW24433   6.761   9.575   7.824 -0.4951  0.1831 -0.0258
 7952SOL    HW124434   6.739   9.483   7.839 -0.4928  0.0858 -0.6104
 7952SOL    HW224435   6.819   9.574   7.748 -1.9858  0.8205 -1.2228
 7953SOL     OW24436   8.951   3.003   2.022 -0.1154  0.3747 -0.3846
 7953SOL    HW124437   8.937   3.042   2.108  0.9774  0.2950 -0.1530
 7953SOL    HW224438   8.903   2.920   2.025  0.1921  0.2139  0.2748
 7954SOL     OW24439   0.897   6.918   6.192 -0.0372  0.4760 -0.0755
 7954SOL    HW124440   0.870   6.850   6.131  0.9046 -0.8649  0.9296
 7954SOL    HW224441   0.818   6.968   6.211 -0.4249  0.6531 -2.0296
 7955SOL     OW24442   0.712   0.642   8.948 -0.4326 -0.2464 -0.0653
 7955SOL    HW124443   0.648   0.712   8.954  0.1240  0.1972  0.8163
 7955SOL    HW224444   0.694   0.600   8.864 -2.1175 -0.3686  0.3343
 7956SOL     OW24445   0.377   0.166  -0.026  0.0871 -0.1853 -0.4508
 7956SOL    HW124446   0.343   0.231   0.036  0.0241  0.6552 -1.3303
 7956SOL    HW224447   0.352   0.082   0.011  0.3855  0.2765  0.8510
 7957SOL     OW24448   1.968   8.513   9.946  0.2808  0.0620 -0.6727
 7957SOL    HW124449   2.012   8.580   9.894  0.9989 -0.0321 -0.2088
 7957SOL    HW224450   1.921   8.459   9.883 -0.4864  1.1198 -1.0362
 7958SOL     OW24451   5.034   8.790   5.624 -0.5673  0.3230  0.1512
 7958SOL    HW124452   5.066   8.825   5.707 -1.1699 -0.2112  0.6176
 7958SOL    HW224453   4.940   8.778   5.637 -0.7369  0.5768 -0.7333
 7959SOL     OW24454   1.329   7.086   8.330  0.4463 -0.0766  0.0124
 7959SOL    HW124455   1.274   7.123   8.260  0.2294 -1.5641 -0.6546
 7959SOL    HW224456   1.401   7.044   8.283  2.1705  1.7712  0.8773
 7960SOL     OW24457   5.355   1.387   8.715  0.0371  0.5356 -0.2508
 7960SOL    HW124458   5.311   1.303   8.704  2.0311 -0.9642  2.2437
 7960SOL    HW224459   5.291   1.443   8.758 -0.2683 -0.8146  1.1052
 7961SOL     OW24460   2.417   8.492   8.944 -0.0769  0.0488 -0.2663
 7961SOL    HW124461   2.407   8.511   8.851  2.3435 -0.7829 -0.7667
 7961SOL    HW224462   2.436   8.398   8.948 -0.6063 -0.0207  1.1235
 7962SOL     OW24463   4.599   9.158   6.929  0.1932  0.1833 -0.4778
 7962SOL    HW124464   4.688   9.193   6.917  0.4236  0.2248  1.1436
 7962SOL    HW224465   4.565   9.206   7.005 -1.2905  0.2764 -1.1704
 7963SOL     OW24466   3.871   5.234   7.258 -0.1751  0.8079 -0.2274
 7963SOL    HW124467   3.914   5.155   7.289 -1.0182  0.6700  0.6732
 7963SOL    HW224468   3.879   5.232   7.163 -0.9038 -0.7907 -0.2774
 7964SOL     OW24469   8.191   6.648   6.047  0.3181 -0.0786  0.4690
 7964SOL    HW124470   8.147   6.572   6.010 -1.0209  1.3218 -0.9879
 7964SOL    HW224471   8.281   6.643   6.013  0.0622 -0.6474 -0.1368
 7965SOL     OW24472   1.359   8.836   0.340 -0.9660  0.1700  0.6454
 7965SOL    HW124473   1.328   8.755   0.299 -0.8882 -0.2291  1.3514
 7965SOL    HW224474   1.319   8.906   0.288 -1.5985 -0.3221  0.4495
 7966SOL     OW24475   8.619   2.702   1.151 -0.4793  0.2389 -0.4030
 7966SOL    HW124476   8.535   2.689   1.195  0.0452  1.2102  0.9544
 7966SOL    HW224477   8.642   2.615   1.117 -0.6174 -0.7197  1.8057
 7967SOL     OW24478   1.689   6.283   1.483 -0.6230 -0.0413 -0.2247
 7967SOL    HW124479   1.724   6.337   1.412 -1.8367 -0.8843 -1.5443
 7967SOL    HW224480   1.735   6.199   1.473 -2.5069 -0.9981 -1.6753
 7968SOL     OW24481   3.735   2.276   9.048  0.2076  0.4119  0.2037
 7968SOL    HW124482   3.802   2.247   9.110  0.7441  0.4288 -0.3674
 7968SOL    HW224483   3.711   2.196   9.000 -0.1764  0.4081  0.3933
 7969SOL     OW24484   1.364   9.944   9.677  0.0444  0.2796 -0.9645
 7969SOL    HW124485   1.443   9.949   9.730  0.8926  2.9526 -2.2770
 7969SOL    HW224486   1.334   9.854   9.686  1.0482  0.1548  2.6158
 7970SOL     OW24487   1.471   8.353   6.698 -0.2375  0.4786  0.1228
 7970SOL    HW124488   1.472   8.424   6.634 -0.3719  0.8648  0.5451
 7970SOL    HW224489   1.392   8.368   6.750  1.1992  1.7072  2.0773
 7971SOL     OW24490   2.910   9.846   9.199 -0.5467 -0.4775  0.5266
 7971SOL    HW124491   2.937   9.868   9.110 -0.1974  0.2003  0.7948
 7971SOL    HW224492   2.979   9.788   9.231  0.2613  0.6941  0.9662
 7972SOL     OW24493   5.882   6.422   9.876  0.2339  0.2616 -0.1974
 7972SOL    HW124494   5.948   6.416   9.806  0.4846  1.8563 -0.1225
 7972SOL    HW224495   5.928   6.464   9.949 -0.4312 -0.0698  0.4193
 7973SOL     OW24496   3.391   1.464   8.824  0.3207  0.5439  0.5768
 7973SOL    HW124497   3.473   1.443   8.868  0.7346 -0.3726 -0.5783
 7973SOL    HW224498   3.365   1.382   8.782 -0.3827  1.2175 -0.3420
 7974SOL     OW24499   9.751   9.584   5.640 -0.8600 -0.0252  0.8834
 7974SOL    HW124500   9.822   9.648   5.644  1.2583 -2.1192 -0.3871
 7974SOL    HW224501   9.721   9.587   5.549 -2.8020  1.1442  1.5008
 7975SOL     OW24502   2.867   2.302   1.477 -0.5551 -0.4293  0.0666
 7975SOL    HW124503   2.790   2.340   1.435 -1.6252 -2.4193  0.1187
 7975SOL    HW224504   2.883   2.220   1.428  0.7394 -0.6988  0.8838
 7976SOL     OW24505   9.162   2.740   2.111 -0.2342 -0.2235 -0.0661
 7976SOL    HW124506   9.128   2.705   2.029  0.2024 -2.8454  0.7736
 7976SOL    HW224507   9.257   2.741   2.098 -0.1842 -0.3634  0.2791
 7977SOL     OW24508   4.536   9.340   1.498  0.4932  0.1765  0.7111
 7977SOL    HW124509   4.580   9.257   1.483  0.1039  0.0406  0.3252
 7977SOL    HW224510   4.553   9.391   1.419  1.5243  0.8214  1.3237
 7978SOL     OW24511   9.329   5.442   5.727 -0.1665 -0.3652  0.8286
 7978SOL    HW124512   9.241   5.413   5.750  0.0675 -1.4504  0.3873
 7978SOL    HW224513   9.387   5.379   5.770  0.4400  0.7294  1.6922
 7979SOL     OW24514   9.766   0.885   3.581 -0.4681 -0.3516 -0.3034
 7979SOL    HW124515   9.743   0.851   3.495  0.6208 -1.1849 -0.2913
 7979SOL    HW224516   9.683   0.890   3.628 -1.0865  0.1912 -1.4141
 7980SOL     OW24517   7.165   4.825   3.734 -0.1468  0.0581 -1.2861
 7980SOL    HW124518   7.173   4.903   3.789 -0.6120  0.0823 -1.2560
 7980SOL    HW224519   7.110   4.852   3.661  0.1252 -0.0955 -1.5537
 7981SOL     OW24520   2.091   6.193   6.646  0.3993 -0.2949  0.2531
 7981SOL    HW124521   2.033   6.118   6.646  1.6242 -1.4439 -3.0549
 7981SOL    HW224522   2.144   6.183   6.725 -1.0878 -1.5128  1.1419
 7982SOL     OW24523   1.600   8.612   9.420 -0.3362  0.0924 -0.3999
 7982SOL    HW124524   1.522   8.660   9.448 -0.1820 -0.6698  1.5158
 7982SOL    HW224525   1.655   8.678   9.378 -1.9559  0.6516 -1.7707
 7983SOL     OW24526   1.666   7.530   2.832  0.1383  0.2638  0.2547
 7983SOL    HW124527   1.692   7.614   2.794  1.3555  0.3011  1.1006
 7983SOL    HW224528   1.718   7.465   2.784  1.6266  0.3052  1.7430
 7984SOL     OW24529   8.214   4.407   7.169 -0.4656  0.2370  0.4898
 7984SOL    HW124530   8.171   4.361   7.097 -0.7626  1.1012  0.1036
 7984SOL    HW224531   8.232   4.494   7.135 -0.1466  0.5003  1.2958
 7985SOL     OW24532   2.564   4.837   4.929 -0.0249 -0.2528  0.0652
 7985SOL    HW124533   2.568   4.932   4.943  2.0049 -0.2819 -0.0136
 7985SOL    HW224534   2.575   4.826   4.835 -0.0421 -0.5611  0.0985
 7986SOL     OW24535   4.694   9.673   6.884  0.4562  0.5480 -0.1022
 7986SOL    HW124536   4.776   9.710   6.917 -0.1122  0.8505  1.0438
 7986SOL    HW224537   4.639   9.750   6.866  0.3937  0.3466 -0.7911
 7987SOL     OW24538   4.071   8.119   6.239  0.3816  0.7292 -0.2796
 7987SOL    HW124539   4.164   8.129   6.221  0.8766  1.2411  2.3059
 7987SOL    HW224540   4.032   8.203   6.213  0.3731  0.1091 -2.4816
 7988SOL     OW24541   9.502   4.902   5.785 -0.3881 -0.1106  0.9879
 7988SOL    HW124542   9.482   4.981   5.734  0.4846 -1.7561 -2.1804
 7988SOL    HW224543   9.572   4.929   5.844 -0.6127  1.6440  0.5310
 7989SOL     OW24544   7.122   4.602   4.093 -0.6656 -0.6949  0.0064
 7989SOL    HW124545   7.104   4.593   4.187 -0.5837 -2.1549 -0.1014
 7989SOL    HW224546   7.137   4.513   4.062  3.4126  0.0167 -0.5892
 7990SOL     OW24547   6.563   6.374   7.611 -0.8371 -0.4001  0.0545
 7990SOL    HW124548   6.586   6.435   7.681  0.1243 -1.1484  0.4138
 7990SOL    HW224549   6.628   6.390   7.543 -0.8153 -0.7559 -0.0084
 7991SOL     OW24550   2.338   6.677   6.435  0.1719 -0.4529 -0.0883
 7991SOL    HW124551   2.254   6.700   6.396 -0.6402  0.5105  2.0486
 7991SOL    HW224552   2.317   6.610   6.500  0.7702  0.8187  1.4883
 7992SOL     OW24553   4.582   7.687   1.042  0.3188 -0.4643 -0.4926
 7992SOL    HW124554   4.631   7.604   1.042 -0.1084 -0.7189 -0.3747
 7992SOL    HW224555   4.634   7.746   1.097  0.1130 -0.9631  0.2512
 7993SOL     OW24556   8.370   9.162   6.691  0.1679  0.0331  0.1640
 7993SOL    HW124557   8.416   9.185   6.772  0.5314 -0.5569  0.1313
 7993SOL    HW224558   8.335   9.074   6.707  0.7331 -0.3268 -0.5164
 7994SOL     OW24559   9.578   1.105   1.813  0.6952 -0.1537  0.1223
 7994SOL    HW124560   9.564   1.175   1.876 -1.3723  0.1991 -0.6370
 7994SOL    HW224561   9.641   1.047   1.855 -0.0168  0.4682  2.1803
 7995SOL     OW24562   1.645   2.449   7.393 -0.3550  0.1131 -0.3536
 7995SOL    HW124563   1.593   2.462   7.314 -0.4432 -0.3498 -0.3733
 7995SOL    HW224564   1.589   2.480   7.464 -0.7538 -0.5915 -0.3524
 7996SOL     OW24565   5.647   3.259   9.036 -0.0421 -0.5348  0.0086
 7996SOL    HW124566   5.702   3.284   9.110 -2.2854 -0.5924  1.7886
 7996SOL    HW224567   5.569   3.220   9.075 -1.3795 -0.4796 -2.3793
 7997SOL     OW24568   9.286   2.547   1.288 -0.2004  0.0964  0.2186
 7997SOL    HW124569   9.236   2.600   1.226  0.2024  0.4436  0.1836
 7997SOL    HW224570   9.359   2.513   1.236 -0.6984 -0.8600  0.1308
 7998SOL     OW24571   7.290   0.768   9.682 -0.0808  0.4680  0.3366
 7998SOL    HW124572   7.359   0.803   9.625  0.0333  0.4403  0.4566
 7998SOL    HW224573   7.211   0.813   9.653 -0.5577 -1.5224 -1.6765
 7999SOL     OW24574   3.836   3.543   7.168 -0.2558  0.2580  0.0611
 7999SOL    HW124575   3.841   3.636   7.145  0.0587  0.1790 -0.1982
 7999SOL    HW224576   3.751   3.533   7.211 -0.3718  0.6275 -0.0820
 8000SOL     OW24577   6.909   0.729   8.173 -0.4977 -0.5834  0.0426
 8000SOL    HW124578   6.882   0.670   8.102  1.2212  0.0514 -1.2027
 8000SOL    HW224579   6.958   0.673   8.233 -0.6826 -0.8373 -0.0413
 8001SOL     OW24580   8.633   5.409   1.377  0.2083 -0.2569 -0.3009
 8001SOL    HW124581   8.590   5.416   1.463 -1.5112 -1.0522 -1.0425
 8001SOL    HW224582   8.725   5.396   1.397 -0.1219 -0.1881  1.4311
 8002SOL     OW24583   0.664   7.940   0.069  0.4503 -0.0317 -0.7486
 8002SOL    HW124584   0.720   7.933  -0.009 -1.0292 -3.7730 -1.7261
 8002SOL    HW224585   0.705   7.881   0.133 -0.7486 -0.4877 -0.3753
 8003SOL     OW24586   0.205   7.341   0.819  0.4095 -0.2634  0.0294
 8003SOL    HW124587   0.111   7.363   0.819  0.8440  1.7287  0.1646
 8003SOL    HW224588   0.210   7.262   0.765 -1.3186 -0.2975 -0.1606
 8004SOL     OW24589   4.091   8.179   1.697  0.1016  0.0409  0.2930
 8004SOL    HW124590   4.158   8.224   1.747  0.4358 -0.1559  0.0245
 8004SOL    HW224591   4.042   8.249   1.654  0.0584  0.1895  0.5840
 8005SOL     OW24592   9.868   4.881   1.156  0.5071  0.2886  0.4538
 8005SOL    HW124593   9.839   4.861   1.067 -0.8391 -2.2237  1.3559
 8005SOL    HW224594   9.938   4.945   1.144  0.1271  0.3322 -2.3687
 8006SOL     OW24595   6.376   9.155   4.443 -0.3188  0.1368  0.0715
 8006SOL    HW124596   6.283   9.135   4.453 -0.0912 -1.4487 -0.5976
 8006SOL    HW224597   6.412   9.078   4.398  1.4920  0.2463  1.2192
 8007SOL     OW24598   7.733   3.982   1.460  0.0121  0.0747 -0.3093
 8007SOL    HW124599   7.800   4.049   1.451 -0.6661  0.6592 -1.2044
 8007SOL    HW224600   7.743   3.928   1.381 -0.2839 -0.1051 -0.2251
 8008SOL     OW24601   3.768   6.614   9.059  0.3989 -0.3098 -0.1887
 8008SOL    HW124602   3.743   6.700   9.024 -1.4065 -0.5281  0.4383
 8008SOL    HW224603   3.765   6.625   9.154 -0.5655 -1.2156 -0.0909
 8009SOL     OW24604   3.788   4.702   6.233 -0.2213 -0.8781 -0.0727
 8009SOL    HW124605   3.878   4.715   6.264  0.3941 -0.3760 -1.9392
 8009SOL    HW224606   3.783   4.608   6.215  0.1833 -0.7967 -0.6475
 8010SOL     OW24607   4.593   4.362   4.301  0.6027 -0.0233  0.2204
 8010SOL    HW124608   4.538   4.314   4.363  0.4462  0.9165  0.8455
 8010SOL    HW224609   4.632   4.295   4.245 -0.8845 -0.7406  0.0013
 8011SOL     OW24610   7.720   9.920   7.987  0.1315 -0.5983  0.4121
 8011SOL    HW124611   7.672   9.948   7.909 -0.4475 -0.4990  0.7997
 8011SOL    HW224612   7.761  10.000   8.019  0.5125 -0.6709  0.1184
 8012SOL     OW24613   8.944   9.721   4.712  0.7026  0.1940 -0.0597
 8012SOL    HW124614   8.984   9.634   4.718 -0.3941 -0.4998 -1.7806
 8012SOL    HW224615   8.894   9.718   4.630 -0.3575  2.0476  0.4660
 8013SOL     OW24616   7.025   3.212   1.265  0.2664 -0.6622  0.1242
 8013SOL    HW124617   6.953   3.267   1.298 -1.2542 -2.1783 -0.5102
 8013SOL    HW224618   7.064   3.264   1.195  0.5591  0.6696  1.2175
 8014SOL     OW24619   4.219   9.918   5.795  0.4989 -0.0230 -0.1656
 8014SOL    HW124620   4.253   9.894   5.881 -1.0330 -2.0804 -0.0702
 8014SOL    HW224621   4.173  10.001   5.811  1.6306  0.4878  0.6063
 8015SOL     OW24622   7.993   2.294   3.448  0.0318 -0.1115  0.1075
 8015SOL    HW124623   8.060   2.361   3.437 -0.9189  0.7911 -0.4186
 8015SOL    HW224624   7.910   2.341   3.435 -0.6764 -1.2970  0.1960
 8016SOL     OW24625   6.805   4.122   7.518  0.5779  0.3181  0.9684
 8016SOL    HW124626   6.775   4.120   7.609 -0.8977  0.5055  0.5248
 8016SOL    HW224627   6.786   4.034   7.485 -0.2033  0.6533  0.4799
 8017SOL     OW24628   1.221   2.540   2.558 -0.6341 -0.0470  0.1375
 8017SOL    HW124629   1.209   2.603   2.487  0.4042  0.4816  0.4068
 8017SOL    HW224630   1.173   2.577   2.632 -1.1274 -0.2429 -0.0828
 8018SOL     OW24631   9.463   5.661   7.314 -0.4142  0.1017  0.3965
 8018SOL    HW124632   9.499   5.611   7.387 -2.6054  1.6367  2.6512
 8018SOL    HW224633   9.389   5.709   7.350 -2.9679 -0.6175 -3.2921
 8019SOL     OW24634   8.557   0.500   9.393 -0.0697 -0.2899 -0.0357
 8019SOL    HW124635   8.499   0.525   9.322  2.5379  1.6177 -1.6730
 8019SOL    HW224636   8.626   0.567   9.393  1.1188 -1.3260  3.0218
 8020SOL     OW24637   9.432   4.796   5.127  0.8207  0.0267 -0.5586
 8020SOL    HW124638   9.488   4.836   5.061  0.8336  0.0815 -0.5146
 8020SOL    HW224639   9.343   4.803   5.091  0.7105  0.9242 -0.1488
 8021SOL     OW24640   2.516   1.922   0.960 -0.3328  0.4255  0.3216
 8021SOL    HW124641   2.451   1.988   0.938  0.9774  1.0213 -2.2787
 8021SOL    HW224642   2.549   1.947   1.046 -1.3267  1.9581  0.2912
 8022SOL     OW24643   4.122   8.954   4.446  0.0043 -0.6056  0.2341
 8022SOL    HW124644   4.174   9.004   4.382 -0.5247 -1.5586 -0.9916
 8022SOL    HW224645   4.116   9.012   4.522  1.1119  0.3609 -0.3708
 8023SOL     OW24646   9.020   9.412   1.095  0.1434  0.3993  0.0571
 8023SOL    HW124647   9.068   9.467   1.156  0.3556  0.3549 -0.0718
 8023SOL    HW224648   8.954   9.368   1.150  0.7627 -0.1497  0.3794
 8024SOL     OW24649   7.872   6.949   5.058 -0.2218 -0.3975  0.2225
 8024SOL    HW124650   7.878   7.012   4.986  0.0746 -0.8350 -0.1369
 8024SOL    HW224651   7.928   6.985   5.126 -2.3676  1.2854  1.2033
 8025SOL     OW24652   3.232   8.205   8.937 -0.2071 -0.2732 -0.1320
 8025SOL    HW124653   3.299   8.164   8.991 -1.2375 -0.0411  1.4033
 8025SOL    HW224654   3.280   8.263   8.878  0.9566 -0.3465  0.7191
 8026SOL     OW24655   1.347   3.884   2.548 -0.4622  0.0370 -0.1377
 8026SOL    HW124656   1.432   3.901   2.587 -1.7221  0.4486  2.6504
 8026SOL    HW224657   1.321   3.798   2.581 -1.6718  0.4704  0.1054
 8027SOL     OW24658   1.003   1.689   4.309 -0.2456  0.5542  0.1657
 8027SOL    HW124659   1.018   1.774   4.350 -2.1733 -0.3937  3.1378
 8027SOL    HW224660   1.089   1.665   4.273  0.7575  2.9605  0.7226
 8028SOL     OW24661   8.534   4.128   2.911 -0.4817 -0.0655  0.0305
 8028SOL    HW124662   8.461   4.188   2.893 -0.4511  0.2136  0.7758
 8028SOL    HW224663   8.492   4.042   2.920 -0.5643 -0.1066 -0.7423
 8029SOL     OW24664   2.126   8.096   6.965 -1.1313  0.0954  0.0289
 8029SOL    HW124665   2.071   8.110   7.042 -1.0730 -0.4302  0.1694
 8029SOL    HW224666   2.195   8.036   6.995 -2.3433 -1.9351 -0.9687
 8030SOL     OW24667   2.420   5.505   8.227 -0.2082  0.1092  0.0472
 8030SOL    HW124668   2.510   5.502   8.259  0.1302 -1.8192 -0.9047
 8030SOL    HW224669   2.367   5.484   8.304  0.3828 -1.3982  0.0910
 8031SOL     OW24670   0.026   5.732   3.310  0.2885 -0.4662 -0.3365
 8031SOL    HW124671   0.042   5.659   3.371 -1.3298 -0.1812  0.4824
 8031SOL    HW224672  -0.037   5.787   3.355 -0.3396  0.1926 -1.9541
 8032SOL     OW24673   8.286   0.110   2.490  0.6453 -0.0376  0.4601
 8032SOL    HW124674   8.250   0.063   2.565  0.4034  0.4876  0.6807
 8032SOL    HW224675   8.350   0.171   2.529 -0.3303  1.0738  0.3732
 8033SOL     OW24676   2.509   2.513   7.944  0.5063  0.0266  0.1083
 8033SOL    HW124677   2.460   2.504   8.025 -0.0876  0.0833 -0.2351
 8033SOL    HW224678   2.469   2.449   7.885 -1.0348  1.9470 -1.0646
 8034SOL     OW24679   4.619   1.151   2.912  0.3972 -0.4507 -0.1599
 8034SOL    HW124680   4.636   1.242   2.890  1.7628 -0.6660 -0.0997
 8034SOL    HW224681   4.600   1.152   3.005  0.6009 -0.2398 -0.1188
 8035SOL     OW24682   8.590   6.786   9.543  0.2526 -0.3335  0.7861
 8035SOL    HW124683   8.536   6.838   9.602  0.1424 -1.7475  1.9833
 8035SOL    HW224684   8.637   6.851   9.490 -3.0288  0.9739 -0.7749
 8036SOL     OW24685   4.685   9.097   1.660  0.4402  0.0978 -0.2681
 8036SOL    HW124686   4.776   9.085   1.631  0.6513  1.6571 -0.3727
 8036SOL    HW224687   4.636   9.114   1.579  0.7259  2.7435  0.0113
 8037SOL     OW24688   1.803   6.918   8.316 -0.1840 -0.2477 -0.7078
 8037SOL    HW124689   1.875   6.942   8.375 -1.7965 -0.5692  1.4943
 8037SOL    HW224690   1.767   7.002   8.287 -0.4133 -0.0514  0.1182
 8038SOL     OW24691   4.182   2.596   4.539  0.2836 -0.1980 -0.4878
 8038SOL    HW124692   4.096   2.563   4.564  0.8996  0.8296  3.8068
 8038SOL    HW224693   4.230   2.518   4.510 -1.0879 -1.3829  0.3079
 8039SOL     OW24694   8.527   7.829   8.552  0.4711 -0.4621 -0.3879
 8039SOL    HW124695   8.563   7.856   8.636 -0.0961 -0.4753 -0.1446
 8039SOL    HW224696   8.451   7.776   8.573  0.0893 -0.1413 -0.9103
 8040SOL     OW24697   2.583   5.809   7.495  0.7021 -0.0971  0.4038
 8040SOL    HW124698   2.621   5.735   7.449  1.8119 -0.3213  1.6276
 8040SOL    HW224699   2.545   5.772   7.574 -0.6672  0.3589 -0.0157
 8041SOL     OW24700   5.646   9.876   6.680  0.5527  0.1110 -0.4249
 8041SOL    HW124701   5.660   9.793   6.726 -0.1742  0.2321  0.0417
 8041SOL    HW224702   5.677   9.943   6.740  0.1276  0.2355 -0.3372
 8042SOL     OW24703   5.911   4.298   4.212 -0.3093  0.3800  0.0201
 8042SOL    HW124704   5.905   4.226   4.148 -0.9802 -1.6071  2.1706
 8042SOL    HW224705   5.836   4.285   4.269 -0.3856  2.8094  0.5676
 8043SOL     OW24706   8.647   9.185   3.386 -0.8985 -0.7014 -0.4387
 8043SOL    HW124707   8.716   9.213   3.446  0.7781  2.2265 -3.4212
 8043SOL    HW224708   8.565   9.205   3.432  0.2330 -0.4466  1.5956
 8044SOL     OW24709   1.505   4.964   3.918  0.6387  0.2174 -0.4447
 8044SOL    HW124710   1.439   5.019   3.876  0.6982  0.5764 -0.0805
 8044SOL    HW224711   1.508   4.884   3.865 -0.0028  0.2453 -0.5288
 8045SOL     OW24712   9.273   7.029   8.702 -0.1603  0.7804 -0.0658
 8045SOL    HW124713   9.326   7.103   8.671 -0.9260  1.3034 -0.1591
 8045SOL    HW224714   9.324   6.991   8.773 -0.0990  1.8832  0.5049
 8046SOL     OW24715   9.056   2.114   9.106 -0.0992 -0.6433 -0.7565
 8046SOL    HW124716   9.132   2.169   9.126 -0.6508 -0.2722  0.3751
 8046SOL    HW224717   8.987   2.147   9.163 -0.5988 -2.1719 -0.4392
 8047SOL     OW24718   8.183   5.971   2.619 -0.2784 -0.0949  0.0513
 8047SOL    HW124719   8.170   5.893   2.672 -0.1843  0.2932  0.6567
 8047SOL    HW224720   8.177   6.044   2.681 -1.9218  0.4921 -0.7241
 8048SOL     OW24721   9.297   3.097   8.089  0.1121  0.3488  0.4661
 8048SOL    HW124722   9.283   3.128   8.178  0.7663  0.9414  0.3705
 8048SOL    HW224723   9.286   3.174   8.033 -1.2397 -0.2027 -0.0706
 8049SOL     OW24724   4.328   3.219   9.722  0.5231  0.5282  0.6795
 8049SOL    HW124725   4.308   3.212   9.629 -0.5742  1.1808  0.8544
 8049SOL    HW224726   4.424   3.223   9.726  0.7254 -1.9874 -0.2272
 8050SOL     OW24727   1.325   0.599   2.999 -0.5501  0.2738  0.2502
 8050SOL    HW124728   1.333   0.678   2.946 -0.2339  0.2180  0.2159
 8050SOL    HW224729   1.230   0.582   3.002 -0.4957 -0.3200 -1.1583
 8051SOL     OW24730   4.054   4.164   0.962  0.1302 -0.2893  0.3039
 8051SOL    HW124731   4.005   4.111   0.900 -1.5000  2.2429 -0.7618
 8051SOL    HW224732   4.122   4.206   0.910  0.2870  0.0107  0.7415
 8052SOL     OW24733   5.144   0.563   4.247 -0.7064 -0.5226 -0.4304
 8052SOL    HW124734   5.151   0.470   4.269 -1.3971 -0.4361  0.1792
 8052SOL    HW224735   5.185   0.570   4.161 -0.6341 -1.3865 -0.4757
 8053SOL     OW24736   7.687   9.765   7.009  0.2696 -0.2625  0.2217
 8053SOL    HW124737   7.781   9.749   7.018  0.5159  1.1153  0.3117
 8053SOL    HW224738   7.651   9.683   6.976  1.5470 -0.7161 -0.0610
 8054SOL     OW24739   1.570   3.184   2.359  0.0760 -0.5103  0.0723
 8054SOL    HW124740   1.600   3.115   2.419  0.7439  0.2817  0.6857
 8054SOL    HW224741   1.647   3.204   2.305  0.3818  0.8085  0.9409
 8055SOL     OW24742   3.598   3.836   4.163  0.2987  0.3661  0.1171
 8055SOL    HW124743   3.612   3.768   4.097 -0.7344  1.9408 -1.8123
 8055SOL    HW224744   3.551   3.792   4.233  0.6807 -1.1667 -0.5499
 8056SOL     OW24745   9.570   9.565   6.661 -0.2257 -0.6195 -0.3002
 8056SOL    HW124746   9.502   9.535   6.600  1.6739 -2.1526 -1.8003
 8056SOL    HW224747   9.624   9.625   6.609  1.4633 -2.0019 -0.2503
 8057SOL     OW24748   6.815   3.396   1.299 -0.1279  0.0335 -0.2179
 8057SOL    HW124749   6.757   3.372   1.227  1.9716 -1.1659 -1.6478
 8057SOL    HW224750   6.834   3.489   1.283  0.0470 -0.1319 -1.0375
 8058SOL     OW24751   7.658   6.567   9.445  0.2375 -0.1291 -0.0438
 8058SOL    HW124752   7.742   6.574   9.400 -1.0514  0.6331 -2.5243
 8058SOL    HW224753   7.615   6.650   9.429 -0.9150 -0.3925  1.4391
 8059SOL     OW24754   4.098   4.944   4.371 -0.1780 -0.3862  0.7788
 8059SOL    HW124755   4.075   4.874   4.432 -2.5332 -1.2261 -0.9354
 8059SOL    HW224756   4.117   5.019   4.426  1.4883 -2.0487  2.6508
 8060SOL     OW24757   6.629   4.332   8.687 -0.1889  0.7386 -0.0502
 8060SOL    HW124758   6.711   4.282   8.688 -0.6875 -0.0846  0.7028
 8060SOL    HW224759   6.605   4.336   8.594  0.7248  1.0470 -0.2912
 8061SOL     OW24760   9.227   2.779   2.373 -0.5241  0.3517  0.0149
 8061SOL    HW124761   9.198   2.790   2.282 -0.9861 -1.3535 -0.0956
 8061SOL    HW224762   9.179   2.702   2.404  1.1989 -0.3807  1.0173
 8062SOL     OW24763   5.381   5.916   2.964 -0.6386  0.3975  0.3923
 8062SOL    HW124764   5.454   5.856   2.977 -0.0532  0.7514 -0.9906
 8062SOL    HW224765   5.340   5.924   3.050 -0.0685 -1.1063  0.8347
 8063SOL     OW24766   3.435   9.625   2.722 -0.8544  0.4464 -0.1646
 8063SOL    HW124767   3.448   9.590   2.634  0.9485 -0.5180  0.4255
 8063SOL    HW224768   3.523   9.626   2.760 -1.9116 -2.3131  2.7531
 8064SOL     OW24769   9.252   8.320   3.070  0.8420  0.3786  0.6846
 8064SOL    HW124770   9.314   8.344   3.139 -1.0635  2.4548  1.8154
 8064SOL    HW224771   9.183   8.272   3.116  1.2915 -1.4950 -0.4747
 8065SOL     OW24772   3.631   8.858   4.994 -0.5072 -0.1947  0.0620
 8065SOL    HW124773   3.594   8.815   5.071  0.7836 -0.8143  0.3667
 8065SOL    HW224774   3.629   8.951   5.015 -0.2546 -0.3517  0.8153
 8066SOL     OW24775   6.807   5.669   1.397  0.5183  0.4399  0.4390
 8066SOL    HW124776   6.740   5.615   1.354  1.0902  0.1137 -0.0713
 8066SOL    HW224777   6.819   5.743   1.338  0.9630  0.2369  0.2703
 8067SOL     OW24778   1.300   5.170   1.786  0.2638 -0.2720  0.2929
 8067SOL    HW124779   1.289   5.239   1.721 -0.4284  0.8240  1.5192
 8067SOL    HW224780   1.223   5.177   1.842 -0.2287 -2.5855  0.0016
 8068SOL     OW24781   5.586   5.597   3.229  0.4184  0.0911 -0.4130
 8068SOL    HW124782   5.671   5.582   3.269  0.5418  1.7428  0.0291
 8068SOL    HW224783   5.523   5.586   3.301  0.3875  0.2250 -0.4183
 8069SOL     OW24784   8.899   3.835   0.015 -0.3980 -0.1109 -0.4946
 8069SOL    HW124785   8.963   3.901  -0.012  0.1261  0.1487  1.2574
 8069SOL    HW224786   8.839   3.882   0.073 -0.6818 -0.9317 -0.1029
 8070SOL     OW24787   4.664   3.790   1.397 -0.5897  0.8996  0.4351
 8070SOL    HW124788   4.712   3.819   1.320  0.5136 -0.3500  0.6019
 8070SOL    HW224789   4.628   3.705   1.373 -0.3814  0.5743  1.2222
 8071SOL     OW24790   3.630   9.761   7.201 -0.4788  0.1960  0.0255
 8071SOL    HW124791   3.683   9.739   7.124  0.6563  0.1676  0.7846
 8071SOL    HW224792   3.690   9.809   7.258 -1.8870  2.0930 -0.0007
 8072SOL     OW24793   3.058   4.461   1.416 -0.1121 -0.2319 -0.4187
 8072SOL    HW124794   3.133   4.441   1.472  0.0550  1.0089 -0.1662
 8072SOL    HW224795   3.014   4.377   1.404  0.1704 -0.6341  1.1140
 8073SOL     OW24796   3.153   7.703   2.853 -0.5102  0.0722  0.7233
 8073SOL    HW124797   3.109   7.780   2.816  0.5420  0.3470 -0.0325
 8073SOL    HW224798   3.085   7.657   2.901 -1.9181 -0.1795 -1.3823
 8074SOL     OW24799   7.023   3.982   8.610  0.1539 -0.3420  0.0127
 8074SOL    HW124800   7.087   4.015   8.547  0.3373 -1.2043 -0.2717
 8074SOL    HW224801   6.955   3.942   8.556 -0.6401  0.5620  0.3137
 8075SOL     OW24802   0.448   9.608   7.501 -0.2955  0.5642 -0.1784
 8075SOL    HW124803   0.436   9.688   7.553  0.3893  0.3130  0.3812
 8075SOL    HW224804   0.360   9.573   7.490 -0.3282 -0.3765  2.4302
 8076SOL     OW24805   0.752   5.083   6.741 -0.0148  0.0855 -0.0160
 8076SOL    HW124806   0.810   5.101   6.815 -0.5625  2.8767 -0.1676
 8076SOL    HW224807   0.663   5.089   6.778 -0.2971 -2.3413 -0.1617
 8077SOL     OW24808   0.560   9.665   9.966  0.3803  0.0504  0.3329
 8077SOL    HW124809   0.489   9.696   9.909  0.2721  0.8910  0.9035
 8077SOL    HW224810   0.515   9.613  10.033  0.2397  0.9691  0.9623
 8078SOL     OW24811   5.754   8.623   7.400  0.5152 -0.2992 -0.1764
 8078SOL    HW124812   5.803   8.587   7.474  0.3876 -1.4699 -0.6394
 8078SOL    HW224813   5.667   8.584   7.407 -0.5938  2.1639  0.9487
 8079SOL     OW24814   5.586   3.327   0.740 -0.2742  0.3091 -0.2643
 8079SOL    HW124815   5.552   3.241   0.719  0.7853 -0.2420  0.1916
 8079SOL    HW224816   5.626   3.358   0.659 -0.0041  0.0527 -0.2284
 8080SOL     OW24817   1.494   1.090   5.026  0.2228  0.5279 -0.3774
 8080SOL    HW124818   1.565   1.120   4.969  1.3786 -0.6087  0.4377
 8080SOL    HW224819   1.440   1.168   5.039  1.4176  1.4664 -0.8577
 8081SOL     OW24820   9.322   5.010   8.570 -0.1988 -0.4774 -0.4827
 8081SOL    HW124821   9.362   5.063   8.501  0.9968  0.9131  1.2009
 8081SOL    HW224822   9.286   5.074   8.631 -1.9081 -1.6842 -0.1631
 8082SOL     OW24823   5.592   1.091   9.063  0.6703  0.0570  0.2799
 8082SOL    HW124824   5.598   1.060   8.973  1.4561  0.6839  0.1022
 8082SOL    HW224825   5.680   1.077   9.099  0.6591  0.7859  0.6165
 8083SOL     OW24826   0.315   9.667   3.900  0.2096 -0.3737  0.5756
 8083SOL    HW124827   0.227   9.629   3.904 -0.1484  0.4658  1.0062
 8083SOL    HW224828   0.374   9.591   3.896 -0.4748 -0.9760  1.4515
 8084SOL     OW24829   2.375   7.147   7.371  0.4137 -0.5575 -0.1106
 8084SOL    HW124830   2.305   7.109   7.317 -0.5200 -0.6061  1.1093
 8084SOL    HW224831   2.330   7.209   7.428  1.3760 -0.5926  0.6967
 8085SOL     OW24832   5.356   7.511   8.150  0.1510 -0.4070  0.2907
 8085SOL    HW124833   5.279   7.456   8.136  0.5670 -1.2614  1.2568
 8085SOL    HW224834   5.396   7.518   8.063  0.6252 -2.4938  0.2810
 8086SOL     OW24835   9.291   2.743   9.463  0.0887  0.0648  0.0792
 8086SOL    HW124836   9.309   2.837   9.460  0.4980 -0.0044  0.3995
 8086SOL    HW224837   9.371   2.704   9.497  0.0363 -0.4385 -0.3665
 8087SOL     OW24838   9.358   1.129   9.495  0.3778  0.1693  0.6540
 8087SOL    HW124839   9.313   1.205   9.530  0.3606 -0.0339  1.0774
 8087SOL    HW224840   9.304   1.054   9.521  0.5801 -0.0173  0.5451
 8088SOL     OW24841   1.977   7.106   1.341  0.3675 -0.2521  0.3835
 8088SOL    HW124842   1.919   7.039   1.307 -0.8470  1.6334 -1.5213
 8088SOL    HW224843   2.041   7.058   1.394 -0.9608 -2.7523 -0.1222
 8089SOL     OW24844   7.715   8.795   5.555  0.3078  0.3077 -0.3065
 8089SOL    HW124845   7.687   8.791   5.463 -4.4502 -0.2637  0.9188
 8089SOL    HW224846   7.745   8.886   5.566  0.6050  0.5015 -2.2647
 8090SOL     OW24847   3.480   2.585   6.064  0.0520 -0.5820 -0.3525
 8090SOL    HW124848   3.484   2.550   6.153  1.0343  0.4256  0.0170
 8090SOL    HW224849   3.460   2.678   6.075  1.8115 -0.0762 -1.0689
 8091SOL     OW24850   4.467   2.716   8.694 -0.3220  0.2332 -0.0836
 8091SOL    HW124851   4.470   2.810   8.676 -0.7247  0.4626  0.9330
 8091SOL    HW224852   4.411   2.709   8.772  1.5431 -0.6054  1.2682
 8092SOL     OW24853   5.985   0.122   5.596  1.0030  0.0016  0.1560
 8092SOL    HW124854   6.071   0.080   5.589  0.9752  0.1362 -1.4020
 8092SOL    HW224855   5.925   0.060   5.553  1.0469  1.7418 -2.7127
 8093SOL     OW24856   6.831   3.285   6.569  0.5417 -0.3562 -0.4449
 8093SOL    HW124857   6.735   3.284   6.573  0.5615 -1.2376  3.4630
 8093SOL    HW224858   6.851   3.266   6.478 -2.9795 -0.2184 -1.4009
 8094SOL     OW24859   3.126   4.290   7.509 -0.1598 -0.6107  0.2999
 8094SOL    HW124860   3.162   4.321   7.592  0.4668  0.1876 -0.2556
 8094SOL    HW224861   3.076   4.212   7.532 -0.7704  0.1297  1.5597
 8095SOL     OW24862   2.672   6.039   7.338 -0.4655  0.5119 -0.5776
 8095SOL    HW124863   2.707   5.997   7.260  1.3417  0.8766 -0.0104
 8095SOL    HW224864   2.623   5.970   7.383 -2.3402  0.5216 -2.4354
 8096SOL     OW24865   6.331   7.119   1.975  0.0568  0.1259  0.2537
 8096SOL    HW124866   6.247   7.130   2.020  0.2277  1.2049  0.3243
 8096SOL    HW224867   6.372   7.045   2.020 -1.4553 -1.3818 -0.7356
 8097SOL     OW24868   2.177   1.662   5.575 -0.4838 -0.0007  0.5213
 8097SOL    HW124869   2.209   1.747   5.606 -0.7268  0.1407  0.3843
 8097SOL    HW224870   2.097   1.682   5.528  0.0408 -0.1740 -0.4671
 8098SOL     OW24871   4.214   7.994   7.922  0.0033  0.4177  0.0903
 8098SOL    HW124872   4.130   8.040   7.918  0.2733  1.1174  1.5363
 8098SOL    HW224873   4.271   8.054   7.971  1.3525 -0.0515 -0.8481
 8099SOL     OW24874   3.641   9.827   6.352  0.0739  0.2762  0.2491
 8099SOL    HW124875   3.616   9.914   6.321 -1.3103  0.0957  0.7757
 8099SOL    HW224876   3.654   9.838   6.446  1.4023  0.2209  0.0790
 8100SOL     OW24877   8.317   7.960   4.492  0.7497  0.1304 -0.6029
 8100SOL    HW124878   8.404   7.980   4.525  0.4818  1.1500 -0.4726
 8100SOL    HW224879   8.321   7.980   4.398  0.5468  0.6103 -0.5159
 8101SOL     OW24880   4.527   7.059   9.320 -0.9695  0.0370  0.3657
 8101SOL    HW124881   4.475   7.139   9.317 -0.6522  0.2668  0.8327
 8101SOL    HW224882   4.528   7.035   9.413  0.0438  0.2259  0.4133
 8102SOL     OW24883   0.486   6.744   1.079  0.6580  0.4266  0.2008
 8102SOL    HW124884   0.462   6.678   1.013 -1.4122  1.3089 -0.0129
 8102SOL    HW224885   0.571   6.777   1.050  0.4839 -0.2576 -1.1786
 8103SOL     OW24886   2.180   7.941   3.714  0.5819  0.3384  0.1125
 8103SOL    HW124887   2.260   7.906   3.754 -0.1478 -0.8648  0.5584
 8103SOL    HW224888   2.199   8.034   3.702  1.6486  0.3032  1.2303
 8104SOL     OW24889   0.982   4.785   6.280 -0.4665  0.6796  0.1557
 8104SOL    HW124890   0.966   4.715   6.218 -1.5067  0.8211  0.2393
 8104SOL    HW224891   0.999   4.741   6.363 -0.4583  0.5133  0.0655
 8105SOL     OW24892   2.101   1.935   5.247  0.5585  0.3515 -0.3333
 8105SOL    HW124893   2.117   1.846   5.216 -1.8201 -0.4812  0.5434
 8105SOL    HW224894   2.013   1.956   5.215 -0.1748  1.1658  1.9663
 8106SOL     OW24895   6.700   2.438   6.038 -0.0829 -0.1766  0.1291
 8106SOL    HW124896   6.605   2.454   6.034 -0.3564 -1.2880  1.6434
 8106SOL    HW224897   6.716   2.407   6.127  2.0425  1.9327  0.6010
 8107SOL     OW24898   5.254   0.958   9.590  0.2822  0.6736  0.2826
 8107SOL    HW124899   5.161   0.976   9.581  0.0522 -1.1806 -1.6301
 8107SOL    HW224900   5.293   0.989   9.508  2.1129  4.9164  2.3892
 8108SOL     OW24901   3.393   1.637   9.610  0.1071 -0.4377  0.3299
 8108SOL    HW124902   3.400   1.579   9.535  2.8265 -0.9123  0.8514
 8108SOL    HW224903   3.331   1.593   9.669 -0.0873 -1.3368 -0.5203
 8109SOL     OW24904   1.563   2.465   1.878 -0.2376  0.0497 -0.5386
 8109SOL    HW124905   1.511   2.419   1.944  0.2089  1.3943  0.8341
 8109SOL    HW224906   1.565   2.406   1.803 -1.4641 -1.1939  0.3478
 8110SOL     OW24907   8.549   2.635   9.380  0.1610  0.1480  0.3246
 8110SOL    HW124908   8.507   2.721   9.372  1.0872  0.6995  1.1863
 8110SOL    HW224909   8.554   2.619   9.474  0.3400 -0.6770  0.1825
 8111SOL     OW24910   0.789   8.739   8.864 -0.3975  0.1649 -0.0624
 8111SOL    HW124911   0.870   8.704   8.827 -0.3184  0.5469 -0.2543
 8111SOL    HW224912   0.805   8.833   8.871 -0.8497  0.2494 -0.1597
 8112SOL     OW24913   3.028   0.554   2.454 -0.0374  0.4457  0.3515
 8112SOL    HW124914   2.982   0.606   2.520 -0.0208  0.4420  0.3659
 8112SOL    HW224915   3.085   0.496   2.505 -1.2747 -0.7684  0.4356
 8113SOL     OW24916   4.914   7.358   9.887  0.4517  0.0916  0.0090
 8113SOL    HW124917   4.936   7.272   9.924 -1.0795  0.4148  1.8597
 8113SOL    HW224918   4.838   7.342   9.832 -0.3721  0.3250  1.0281
 8114SOL     OW24919   2.514   2.652   8.194 -0.1677  0.3832 -0.0067
 8114SOL    HW124920   2.471   2.729   8.231  0.8674  0.5737  0.8577
 8114SOL    HW224921   2.579   2.687   8.133 -2.2851  0.0556 -2.6214
 8115SOL     OW24922   9.496   0.429   2.625  0.9023  0.4693  0.5300
 8115SOL    HW124923   9.452   0.457   2.706  0.2931 -1.5324  0.9438
 8115SOL    HW224924   9.587   0.415   2.650  1.2077  1.9336  0.3266
 8116SOL     OW24925   3.779   1.428   1.707  0.0978 -0.2406 -0.5320
 8116SOL    HW124926   3.781   1.363   1.636  1.5398  0.6222 -1.3332
 8116SOL    HW224927   3.821   1.506   1.669 -0.7341  0.8583  0.7036
 8117SOL     OW24928   2.233   9.757   3.036  0.0984 -0.4097  0.0468
 8117SOL    HW124929   2.284   9.838   3.036  1.1507 -1.0589  0.5321
 8117SOL    HW224930   2.154   9.779   3.085 -1.0447  1.1424 -2.2701
 8118SOL     OW24931   8.538   0.925   9.258 -0.3593  0.0740  0.2129
 8118SOL    HW124932   8.447   0.923   9.288 -0.1929 -0.5252  0.7166
 8118SOL    HW224933   8.572   1.009   9.290 -0.8275  0.4553 -0.2779
 8119SOL     OW24934   1.048   4.335   6.535 -0.1112 -0.0011  0.0773
 8119SOL    HW124935   1.051   4.240   6.548  1.7081 -0.0347 -0.3369
 8119SOL    HW224936   1.046   4.345   6.440 -0.9641  0.3862  0.1293
 8120SOL     OW24937   4.190   6.266   8.297 -0.6235  0.3813 -0.0492
 8120SOL    HW124938   4.227   6.334   8.353 -1.2239  0.5210  0.1897
 8120SOL    HW224939   4.226   6.283   8.210 -0.4416  0.7525  0.0991
 8121SOL     OW24940   0.184   3.530   5.557  0.1513  0.3918  0.1273
 8121SOL    HW124941   0.115   3.586   5.592 -0.2372 -0.3540  0.5777
 8121SOL    HW224942   0.254   3.590   5.533 -1.1808  1.3307 -1.6839
 8122SOL     OW24943   4.439   6.635   7.300  0.0589  0.1885  0.0275
 8122SOL    HW124944   4.527   6.674   7.293  0.7018 -1.0287  0.9041
 8122SOL    HW224945   4.441   6.585   7.382 -1.8817  1.1415  0.7095
 8123SOL     OW24946   8.169   7.270   2.152 -0.2732 -0.0341 -0.1164
 8123SOL    HW124947   8.111   7.196   2.167  0.2924 -0.4955 -0.1444
 8123SOL    HW224948   8.155   7.294   2.060  1.3964 -1.7873 -0.8991
 8124SOL     OW24949   3.239   9.520   1.813 -0.3373  0.0035  0.4700
 8124SOL    HW124950   3.189   9.505   1.894  0.3702 -1.1823  0.7274
 8124SOL    HW224951   3.176   9.506   1.743 -0.4932 -1.0859  0.7969
 8125SOL     OW24952   3.870   3.324   9.880 -0.0008  0.0836  0.1536
 8125SOL    HW124953   3.919   3.402   9.856 -1.0750  0.1826 -1.9134
 8125SOL    HW224954   3.932   3.252   9.867  0.0733  0.3364 -1.0628
 8126SOL     OW24955   3.991   2.567   4.036 -0.4169 -0.2083  0.1320
 8126SOL    HW124956   4.063   2.530   3.986  1.2050  2.1391  0.6166
 8126SOL    HW224957   4.017   2.557   4.127 -0.6443  0.7240  0.3111
 8127SOL     OW24958   5.981   8.701   9.934 -0.0892  0.0738  0.2003
 8127SOL    HW124959   6.007   8.769   9.996  1.0426  0.2291 -0.4142
 8127SOL    HW224960   6.049   8.634   9.942 -1.1128 -0.9377  0.6896
 8128SOL     OW24961   8.470   6.032   7.508  0.0165 -0.4946  0.1281
 8128SOL    HW124962   8.511   6.004   7.426  1.8502  0.8079  0.5399
 8128SOL    HW224963   8.476   5.956   7.566 -0.1576 -1.0222 -0.5452
 8129SOL     OW24964   3.191   7.332   4.109 -0.0070 -0.2837  0.2471
 8129SOL    HW124965   3.271   7.359   4.155 -0.6534  0.8479  0.7207
 8129SOL    HW224966   3.205   7.362   4.019 -0.7875  1.8879  0.7978
 8130SOL     OW24967   3.762   9.187   9.804 -0.2517 -0.0991 -0.0412
 8130SOL    HW124968   3.803   9.256   9.856  0.0215 -0.5926  0.4050
 8130SOL    HW224969   3.713   9.234   9.736  0.4238  0.5188 -0.1139
 8131SOL     OW24970   1.219   4.040   8.896 -0.1563  0.4174 -0.1389
 8131SOL    HW124971   1.269   3.961   8.916  2.3647  1.2981 -2.2654
 8131SOL    HW224972   1.193   4.029   8.804  0.6114  2.1692 -0.6066
 8132SOL     OW24973   3.427   8.253   2.261  0.1330  0.3201  0.0458
 8132SOL    HW124974   3.357   8.217   2.316 -0.5088  1.6468  0.1268
 8132SOL    HW224975   3.389   8.256   2.173  0.6189 -0.3543 -0.1910
 8133SOL     OW24976   1.385   2.694   9.360 -0.6123  0.3308 -0.8476
 8133SOL    HW124977   1.347   2.717   9.275  0.9960 -0.3900 -1.8202
 8133SOL    HW224978   1.469   2.740   9.362  0.8572 -2.1351 -1.1063
 8134SOL     OW24979   9.720   3.048   9.279  0.1701 -0.1636 -0.2784
 8134SOL    HW124980   9.732   3.019   9.369 -1.8009  0.6243  0.2734
 8134SOL    HW224981   9.738   3.142   9.281 -1.4812  0.1719 -0.3385
 8135SOL     OW24982   5.398   6.241   7.232  0.2017  0.2063  0.5325
 8135SOL    HW124983   5.434   6.307   7.172  0.3224 -0.3041  0.0285
 8135SOL    HW224984   5.413   6.276   7.319  0.7890  0.5815  0.2851
 8136SOL     OW24985   5.451   2.894   8.916  0.0024 -0.6919  0.4432
 8136SOL    HW124986   5.489   2.914   9.002 -2.0271 -0.5254  1.3666
 8136SOL    HW224987   5.526   2.887   8.857  1.3487  2.1292  1.6120
 8137SOL     OW24988   0.705   2.266   5.095  0.6515 -0.0456  0.1423
 8137SOL    HW124989   0.726   2.315   5.016  0.4864 -0.8635 -0.4285
 8137SOL    HW224990   0.621   2.224   5.076  1.2139 -1.2813  0.2471
 8138SOL     OW24991   3.068   5.774   6.324  0.1591 -0.5929 -0.4566
 8138SOL    HW124992   3.126   5.799   6.253  1.2018 -0.7904  0.3088
 8138SOL    HW224993   2.985   5.818   6.305  0.9357  0.7012 -0.8951
 8139SOL     OW24994   4.052   1.701   4.297 -0.0515  0.2698 -0.0257
 8139SOL    HW124995   4.063   1.613   4.333  0.9823  0.7643  0.9182
 8139SOL    HW224996   3.981   1.692   4.234  0.3043 -1.3244 -0.2396
 8140SOL     OW24997   1.553   2.564   3.297 -0.6069 -0.4851 -0.1563
 8140SOL    HW124998   1.550   2.509   3.376  0.4085  2.8388  2.4668
 8140SOL    HW224999   1.482   2.627   3.309  0.9363  1.4799 -0.6175
 8141SOL     OW25000   1.665   7.800   2.719  0.4119 -0.0321  0.4381
 8141SOL    HW125001   1.663   7.876   2.777 -1.0847 -0.8379  1.5084
 8141SOL    HW225002   1.663   7.837   2.631 -3.2363  1.2200  0.9061
 8142SOL     OW25003   2.352   7.676   2.753  0.4735  0.2958 -0.0657
 8142SOL    HW125004   2.381   7.689   2.843  0.3411  0.6765 -0.0776
 8142SOL    HW225005   2.419   7.720   2.700  0.2855  0.5038 -0.1292
 8143SOL     OW25006   6.300   9.505   2.336  0.2853  0.5345 -0.4587
 8143SOL    HW125007   6.303   9.560   2.415 -0.8555 -0.7303  0.4938
 8143SOL    HW225008   6.336   9.421   2.364 -2.2074 -0.6548 -0.6439
 8144SOL     OW25009   0.869   8.946   0.413  0.6123 -0.2989  0.1248
 8144SOL    HW125010   0.831   8.871   0.367 -1.9033  0.6813  0.4365
 8144SOL    HW225011   0.908   8.999   0.343 -2.4110  0.7444 -0.9490
 8145SOL     OW25012   1.631   0.635   0.791  0.2983 -0.0495  0.6249
 8145SOL    HW125013   1.701   0.696   0.769 -0.3371  0.7564  0.7843
 8145SOL    HW225014   1.676   0.555   0.817  1.1261 -0.1541 -1.0107
 8146SOL     OW25015   2.191   5.108   3.326 -0.6175  0.3931 -0.1915
 8146SOL    HW125016   2.160   5.024   3.292 -1.3421  1.3649 -2.1266
 8146SOL    HW225017   2.111   5.154   3.353 -0.0275 -0.6906  4.0297
 8147SOL     OW25018   8.322   7.797   1.733  1.0349 -0.0145 -0.1817
 8147SOL    HW125019   8.335   7.704   1.750 -0.3717 -0.0987  0.6033
 8147SOL    HW225020   8.286   7.800   1.645  1.2639 -0.1935 -0.2836
 8148SOL     OW25021   6.679   5.259   1.144  0.4443 -0.3961 -0.1234
 8148SOL    HW125022   6.773   5.239   1.152  0.1537 -1.5537  0.5956
 8148SOL    HW225023   6.670   5.298   1.057  1.7684  0.8214  0.2403
 8149SOL     OW25024   8.780   1.504   9.700  0.1732 -0.1377 -0.0290
 8149SOL    HW125025   8.686   1.517   9.707  0.0107 -1.5708  0.8085
 8149SOL    HW225026   8.791   1.409   9.696  1.6111 -0.0167  0.3929
 8150SOL     OW25027   9.198   9.016   7.954  0.5047 -0.6662  0.2681
 8150SOL    HW125028   9.235   9.062   7.879 -0.2196  1.6210  1.2194
 8150SOL    HW225029   9.273   8.978   8.000  1.4645  1.7142  0.7826
 8151SOL     OW25030   3.784   6.736   0.776 -0.8079  0.3535  0.0215
 8151SOL    HW125031   3.767   6.673   0.706 -0.4558 -1.9782  1.9139
 8151SOL    HW225032   3.700   6.779   0.789 -1.2219 -0.1121 -0.9408
 8152SOL     OW25033   8.920   7.341   6.518  0.6436 -0.5027 -0.0093
 8152SOL    HW125034   8.949   7.395   6.592  1.9946  0.4517 -1.1953
 8152SOL    HW225035   8.946   7.390   6.440 -3.6079  0.1197 -1.2511
 8153SOL     OW25036   8.088   2.042   3.851 -0.4545 -0.3120 -0.2919
 8153SOL    HW125037   8.056   2.072   3.766  0.9535 -0.7324 -1.0035
 8153SOL    HW225038   8.163   2.099   3.869 -0.8098 -0.1566  0.7362
 8154SOL     OW25039   7.003   6.599   5.367 -0.5420 -0.1168 -0.2276
 8154SOL    HW125040   7.079   6.640   5.327 -1.1389  0.9738 -0.2766
 8154SOL    HW225041   6.962   6.669   5.418 -0.4144 -1.1748  1.4329
 8155SOL     OW25042   1.357   7.950   9.766  0.4265  0.4187 -0.5115
 8155SOL    HW125043   1.370   8.016   9.699 -1.3234  0.2719 -1.0635
 8155SOL    HW225044   1.320   7.998   9.840 -0.7432  0.1264 -0.8730
 8156SOL     OW25045   4.448   9.122   5.868 -0.2927 -0.2522 -0.4631
 8156SOL    HW125046   4.479   9.133   5.958 -0.2596 -1.3176 -0.3231
 8156SOL    HW225047   4.353   9.117   5.877 -0.3266  0.2383 -0.5574
 8157SOL     OW25048   8.854   6.792   7.316  0.4939 -0.0497  0.2997
 8157SOL    HW125049   8.835   6.848   7.392 -0.4759  0.2034 -0.1105
 8157SOL    HW225050   8.775   6.739   7.306  0.8291 -0.4556 -0.2182
 8158SOL     OW25051   3.758   7.248   9.186  0.0020  0.0427  0.0437
 8158SOL    HW125052   3.781   7.178   9.125  1.0591  1.3133 -1.1073
 8158SOL    HW225053   3.811   7.231   9.264  0.9300  0.0466 -0.5750
 8159SOL     OW25054   7.737   5.588   1.678 -0.5765 -0.4118  0.7549
 8159SOL    HW125055   7.781   5.506   1.698  1.4195  0.4371  0.0832
 8159SOL    HW225056   7.772   5.651   1.741 -0.0047  0.5136 -0.4448
 8160SOL     OW25057   4.512   1.359   1.736  0.0263  0.0869  0.2520
 8160SOL    HW125058   4.438   1.330   1.683 -1.1619  2.1310  0.6501
 8160SOL    HW225059   4.475   1.370   1.824  1.3337 -0.7949  0.9393
 8161SOL     OW25060   2.825   1.701   9.675 -0.3028 -0.1998  0.0734
 8161SOL    HW125061   2.825   1.676   9.767  0.0932 -0.8207 -0.0900
 8161SOL    HW225062   2.737   1.680   9.644 -0.2984 -0.4152  0.2024
 8162SOL     OW25063   1.371   1.281   6.371 -0.6472  0.4814 -0.2130
 8162SOL    HW125064   1.429   1.352   6.340 -2.0558  1.7367 -0.0831
 8162SOL    HW225065   1.429   1.222   6.419  0.9304  0.4710 -2.0131
 8163SOL     OW25066   7.057   6.684   4.501  0.1968  0.3752  0.3824
 8163SOL    HW125067   7.148   6.663   4.479  0.2392  0.0761  0.8353
 8163SOL    HW225068   7.026   6.609   4.552 -0.7223 -0.1482 -0.8758
 8164SOL     OW25069   4.686   3.757   7.200 -0.3430  0.0461  0.1492
 8164SOL    HW125070   4.605   3.720   7.235  0.2425 -2.0360 -0.5316
 8164SOL    HW225071   4.670   3.768   7.107  0.2332 -0.6479 -0.0393
 8165SOL     OW25072   3.929   5.650   6.412 -0.2053  0.4147 -0.2659
 8165SOL    HW125073   3.924   5.654   6.507  0.8222  1.3007 -0.2297
 8165SOL    HW225074   3.942   5.741   6.385  2.0848 -0.0775 -1.0637
 8166SOL     OW25075   5.114   8.596   6.029  0.1952 -0.2640 -0.2660
 8166SOL    HW125076   5.042   8.657   6.017  0.4718  0.2904  0.8098
 8166SOL    HW225077   5.159   8.626   6.108  0.7261 -1.4752 -0.0801
 8167SOL     OW25078   8.595   3.339   5.401  0.6948 -0.0172 -0.0362
 8167SOL    HW125079   8.661   3.309   5.338  1.7986  0.3527  0.9002
 8167SOL    HW225080   8.617   3.293   5.483 -0.7382 -0.5266  0.0940
 8168SOL     OW25081   6.968   7.697   6.853  0.7695  0.5270  0.8292
 8168SOL    HW125082   6.960   7.738   6.766 -0.9099 -0.3645  0.5304
 8168SOL    HW225083   6.878   7.680   6.880  1.3267 -0.3896  2.1983
 8169SOL     OW25084   6.960   4.410   6.780 -0.3508 -0.2954  0.3168
 8169SOL    HW125085   6.940   4.400   6.873 -1.3307  1.5701  0.3487
 8169SOL    HW225086   6.906   4.344   6.737 -2.0868  0.7122  0.8755
 8170SOL     OW25087   4.720   6.665   4.417 -0.0605 -0.4581 -0.3831
 8170SOL    HW125088   4.640   6.717   4.427 -1.1186 -2.0574 -0.2949
 8170SOL    HW225089   4.780   6.703   4.481 -2.3742 -2.2454  3.2235
 8171SOL     OW25090   3.454   2.741   9.878 -0.3845  0.4369 -0.1084
 8171SOL    HW125091   3.468   2.834   9.862  2.9191  0.2940  1.2964
 8171SOL    HW225092   3.449   2.733   9.973  0.9139 -0.9398 -0.1205
 8172SOL     OW25093   2.792   9.232   5.436 -0.5484 -0.1659  0.6465
 8172SOL    HW125094   2.873   9.185   5.452  0.4103  0.9150 -0.7768
 8172SOL    HW225095   2.792   9.303   5.499  0.9768  1.4009 -1.0081
 8173SOL     OW25096   9.802   0.093   7.538 -0.3095 -0.0696  0.7645
 8173SOL    HW125097   9.782   0.095   7.444 -1.5513  0.2521  1.0100
 8173SOL    HW225098   9.737   0.152   7.577 -0.5217 -1.0378  1.9387
 8174SOL     OW25099   3.157   5.674   0.918 -0.2644 -0.2437 -0.2269
 8174SOL    HW125100   3.141   5.581   0.903 -0.3819 -0.0203 -1.5900
 8174SOL    HW225101   3.233   5.694   0.863  0.2825  0.2922  0.6985
 8175SOL     OW25102   7.243   7.137   6.218 -0.3292  0.4470  0.5935
 8175SOL    HW125103   7.286   7.093   6.144 -0.0502  2.4107 -0.4633
 8175SOL    HW225104   7.241   7.229   6.193 -2.5083  0.8251  1.9482
 8176SOL     OW25105   5.079   8.052   5.813 -0.4214  0.2175 -0.3703
 8176SOL    HW125106   5.128   7.970   5.817 -0.0208  0.5018  1.0186
 8176SOL    HW225107   5.072   8.071   5.720 -1.4252 -1.9329 -0.7984
 8177SOL     OW25108   6.748   1.086   9.426  0.1775 -0.0778 -0.1321
 8177SOL    HW125109   6.702   1.074   9.509 -0.3441 -0.8840 -0.5252
 8177SOL    HW225110   6.714   1.017   9.369  1.1587 -0.0732 -0.7516
 8178SOL     OW25111   4.291   0.608   1.339 -0.0650 -0.1987 -0.2978
 8178SOL    HW125112   4.367   0.563   1.302  0.8828 -0.8510  2.2858
 8178SOL    HW225113   4.226   0.539   1.350 -0.8224  0.2272 -1.8157
 8179SOL     OW25114   2.894   8.603   5.626 -0.3387  0.4501 -0.3629
 8179SOL    HW125115   2.942   8.674   5.668 -1.1379  0.3298  0.8203
 8179SOL    HW225116   2.896   8.623   5.533  2.4718  0.1386 -0.4430
 8180SOL     OW25117   1.568   3.979   9.041 -0.4824  0.2152  0.2619
 8180SOL    HW125118   1.488   3.977   9.095  0.3192  1.2373  1.5524
 8180SOL    HW225119   1.639   3.976   9.104  0.5118 -0.3134 -0.8577
 8181SOL     OW25120   8.493   9.057   0.822 -0.6755  0.6597 -0.4440
 8181SOL    HW125121   8.535   9.044   0.738  0.2716  0.1977  0.0806
 8181SOL    HW225122   8.446   8.974   0.838  2.3480 -0.9004  1.2178
 8182SOL     OW25123   3.232   6.407   3.341  0.2858 -0.3963  0.2867
 8182SOL    HW125124   3.230   6.478   3.277 -2.2713 -0.1398  0.5184
 8182SOL    HW225125   3.309   6.424   3.394 -0.8292  2.9210  1.0750
 8183SOL     OW25126   8.946   1.044   8.510  0.0745 -0.1292 -0.1019
 8183SOL    HW125127   9.029   1.084   8.532  1.9429 -1.2173 -4.1368
 8183SOL    HW225128   8.911   1.098   8.439 -2.1648 -0.2957  0.7941
 8184SOL     OW25129   5.637   7.968   4.705  0.1082 -0.9250  0.2683
 8184SOL    HW125130   5.732   7.963   4.714  0.1650 -0.6293 -0.1766
 8184SOL    HW225131   5.617   7.915   4.628  0.0291 -0.0758 -0.3096
 8185SOL     OW25132   4.064   8.113   1.203  0.4590 -0.2436  0.5355
 8185SOL    HW125133   4.077   8.021   1.183  2.7815  0.3727 -1.2102
 8185SOL    HW225134   4.153   8.148   1.214 -0.3201  1.9315  0.3659
 8186SOL     OW25135   6.348   1.066   4.270 -0.1373 -0.0654 -0.3825
 8186SOL    HW125136   6.406   1.111   4.331  1.5997 -1.9572 -0.5024
 8186SOL    HW225137   6.402   1.051   4.193 -0.7006 -2.0587 -0.4414
 8187SOL     OW25138   4.552   5.586   4.264 -0.3570 -0.0375 -0.1856
 8187SOL    HW125139   4.540   5.517   4.199  1.2398 -0.4305 -0.1097
 8187SOL    HW225140   4.589   5.541   4.340 -0.3279  0.7308  0.2612
 8188SOL     OW25141   8.759   1.883   3.615  0.1622  0.0569  0.0465
 8188SOL    HW125142   8.815   1.865   3.539 -0.3459  1.2926 -0.6617
 8188SOL    HW225143   8.820   1.897   3.687  0.6171 -3.2612  0.4458
 8189SOL     OW25144   0.613   2.971   5.935  0.0438  0.3189 -0.3319
 8189SOL    HW125145   0.639   2.891   5.891  1.3810 -0.4137  1.6633
 8189SOL    HW225146   0.518   2.962   5.946  0.2662 -1.3441  0.4879
 8190SOL     OW25147   4.681   0.270   2.310  0.1953 -0.5678  0.0949
 8190SOL    HW125148   4.725   0.195   2.350  0.6661 -0.6510 -0.5641
 8190SOL    HW225149   4.744   0.342   2.320 -0.3492 -0.1867  0.9404
 8191SOL     OW25150   7.744   3.714   3.980  0.1336 -0.0698 -0.0171
 8191SOL    HW125151   7.798   3.792   3.968 -0.1996  0.2043  0.2367
 8191SOL    HW225152   7.753   3.666   3.898 -0.0045  0.4557 -0.3468
 8192SOL     OW25153   1.460   5.634   7.037  0.3606 -0.0706 -0.2537
 8192SOL    HW125154   1.443   5.627   6.943  1.1232  0.6023 -0.4536
 8192SOL    HW225155   1.442   5.726   7.058  3.6375  0.7919 -0.5261
 8193SOL     OW25156   3.968   2.228   4.902 -0.4879  0.2605  0.3003
 8193SOL    HW125157   3.878   2.201   4.920  0.2812 -3.1029 -0.3803
 8193SOL    HW225158   3.962   2.272   4.817 -1.5691  0.7311  0.5949
 8194SOL     OW25159   6.821  -0.006   8.475  0.7290  0.1256 -0.0705
 8194SOL    HW125160   6.909   0.029   8.491 -0.5657  3.5981  0.1117
 8194SOL    HW225161   6.799   0.023   8.386 -0.3516 -0.4582 -0.0086
 8195SOL     OW25162   4.489   6.240   9.679 -0.6721 -0.1265  0.2225
 8195SOL    HW125163   4.500   6.183   9.602 -0.4803 -1.5515  1.2665
 8195SOL    HW225164   4.570   6.291   9.681 -0.3411 -0.6119 -0.1122
 8196SOL     OW25165   6.801   8.968   2.609  0.2219  0.1297  0.1441
 8196SOL    HW125166   6.775   8.880   2.636 -1.6984  0.8000  0.6023
 8196SOL    HW225167   6.865   8.996   2.675  0.4745 -0.7135  0.2684
 8197SOL     OW25168   8.478   8.323   5.086  0.8006  0.2319 -0.3468
 8197SOL    HW125169   8.451   8.297   4.998 -0.9740  2.1516 -0.4463
 8197SOL    HW225170   8.566   8.359   5.075  0.1229  1.6058 -1.6145
 8198SOL     OW25171   4.146   2.853   1.218 -0.7156  0.5567 -0.0414
 8198SOL    HW125172   4.240   2.833   1.220 -1.2099 -2.0771  0.9399
 8198SOL    HW225173   4.140   2.942   1.254  1.3407  0.3842  0.8665
 8199SOL     OW25174   3.313   0.557   4.984 -0.5047  0.0762  0.2381
 8199SOL    HW125175   3.356   0.516   5.059  0.6094 -2.6156 -1.6793
 8199SOL    HW225176   3.385   0.588   4.929 -1.2352  0.6706 -0.4076
 8200SOL     OW25177   9.809   7.530   4.570 -0.3753  0.6163 -0.1139
 8200SOL    HW125178   9.902   7.550   4.586  0.3344 -0.5678 -2.3194
 8200SOL    HW225179   9.783   7.476   4.644  1.1755 -0.3534 -0.2328
 8201SOL     OW25180   5.002   1.751   8.510 -0.3613 -0.2958 -0.1056
 8201SOL    HW125181   4.930   1.757   8.447 -1.2240  1.1061  0.9443
 8201SOL    HW225182   4.966   1.699   8.582 -0.7337  1.2635  0.8823
 8202SOL     OW25183   6.696   8.843   6.580 -0.0741  0.5326  0.4406
 8202SOL    HW125184   6.673   8.769   6.637 -0.6095 -0.0808 -0.5427
 8202SOL    HW225185   6.760   8.893   6.630 -0.8843  0.2859  1.7908
 8203SOL     OW25186   2.313   6.119   1.007  0.1948 -0.0023 -0.2116
 8203SOL    HW125187   2.292   6.157   0.922 -0.6716 -1.6790 -0.8082
 8203SOL    HW225188   2.241   6.058   1.024 -0.0764  0.8677  2.1196
 8204SOL     OW25189   0.295   0.060   2.922  0.0039 -0.3223 -0.1451
 8204SOL    HW125190   0.230   0.025   2.983  0.2420  0.3295  0.4945
 8204SOL    HW225191   0.252   0.058   2.837 -0.3572 -1.1861  0.0491
 8205SOL     OW25192   8.384   5.145   2.508  0.0968 -0.7201  0.0609
 8205SOL    HW125193   8.428   5.224   2.477  0.8101 -0.6654  1.1959
 8205SOL    HW225194   8.430   5.074   2.464 -0.9843 -0.5157 -1.5078
 8206SOL     OW25195   5.663   4.691   1.969 -0.0756 -0.2329 -0.0225
 8206SOL    HW125196   5.661   4.597   1.985  0.4904 -0.2775 -0.1982
 8206SOL    HW225197   5.577   4.711   1.932  0.5045 -1.0324 -1.9219
 8207SOL     OW25198   5.318   4.115   8.492 -0.1404  0.5565  0.6118
 8207SOL    HW125199   5.321   4.145   8.401 -1.7663  1.1367  0.7259
 8207SOL    HW225200   5.354   4.026   8.490  0.6506  0.8905 -0.4428
 8208SOL     OW25201   0.998   1.179   3.468  0.6303 -0.1898  0.0739
 8208SOL    HW125202   0.920   1.124   3.477  0.2998  0.2431 -0.1166
 8208SOL    HW225203   1.038   1.151   3.386  2.2298 -2.3534  1.4736
 8209SOL     OW25204   5.692   3.968   9.078 -0.6803  0.5299  0.2834
 8209SOL    HW125205   5.784   3.949   9.060 -0.6866  0.9941 -0.2612
 8209SOL    HW225206   5.655   3.992   8.993 -0.4892  3.7285  0.9864
 8210SOL     OW25207   6.651   4.154   3.773 -0.0712  0.4331  0.3981
 8210SOL    HW125208   6.615   4.071   3.743  3.0374 -0.7866 -0.3300
 8210SOL    HW225209   6.585   4.219   3.749 -2.5914 -1.7527  0.9577
 8211SOL     OW25210   6.108   2.700   1.055  0.1920 -0.2463 -0.1515
 8211SOL    HW125211   6.200   2.718   1.077  0.3356 -0.1743 -0.8015
 8211SOL    HW225212   6.112   2.660   0.968 -0.4994  1.0426 -0.7950
 8212SOL     OW25213   9.699   0.757   5.949  0.2556  0.3073  0.3405
 8212SOL    HW125214   9.795   0.754   5.950  0.3963 -2.4312 -2.9195
 8212SOL    HW225215   9.672   0.701   6.022  1.3922 -2.5687 -1.2576
 8213SOL     OW25216   9.394   9.393   7.987 -0.1618 -0.2142  0.2854
 8213SOL    HW125217   9.419   9.463   7.927  0.9534 -0.0320  0.9379
 8213SOL    HW225218   9.329   9.342   7.938  0.7173 -0.0707 -1.0865
 8214SOL     OW25219   2.252   7.021   7.162 -0.1563 -0.3816 -0.2439
 8214SOL    HW125220   2.254   7.060   7.075 -1.1831  1.7700  0.6242
 8214SOL    HW225221   2.228   6.929   7.147  0.3698 -0.2186 -2.2514
 8215SOL     OW25222   6.187   5.478   0.858 -0.6944  0.6662 -0.1363
 8215SOL    HW125223   6.171   5.526   0.940  1.4367 -0.8214  1.2545
 8215SOL    HW225224   6.181   5.386   0.883  2.0579  0.1324 -1.1144
 8216SOL     OW25225   2.695   0.432   6.845  0.3100 -0.1279 -0.1368
 8216SOL    HW125226   2.645   0.495   6.899  1.0770  0.7183 -0.3938
 8216SOL    HW225227   2.732   0.485   6.775  0.8697 -0.9014 -0.4354
 8217SOL     OW25228   7.120   4.162   7.652  0.3398 -0.3468 -0.1738
 8217SOL    HW125229   7.047   4.149   7.590  0.8392 -2.2593 -0.4252
 8217SOL    HW225230   7.116   4.086   7.709  2.3345 -0.6672 -0.4022
 8218SOL     OW25231   7.303   6.479   6.698  0.0489  0.1984 -0.2533
 8218SOL    HW125232   7.269   6.460   6.611 -1.0677 -1.0926  0.4262
 8218SOL    HW225233   7.275   6.406   6.752 -2.0032  2.3955  1.9168
 8219SOL     OW25234   2.415   3.541   3.510  0.1098  0.3208 -0.0360
 8219SOL    HW125235   2.480   3.599   3.549 -0.5154  1.2411 -0.3165
 8219SOL    HW225236   2.404   3.470   3.574  2.3436 -0.6049 -0.5958
 8220SOL     OW25237   5.986   1.011   7.426  0.2804 -0.4881 -0.4066
 8220SOL    HW125238   5.951   0.935   7.472  1.6332  0.2738  2.0250
 8220SOL    HW225239   6.080   0.996   7.423  0.5956  1.1907  0.3494
 8221SOL     OW25240   8.188   1.170   4.795  0.1708  0.6160 -0.0704
 8221SOL    HW125241   8.112   1.161   4.738 -0.0783  1.1577  0.1700
 8221SOL    HW225242   8.248   1.101   4.766 -1.4132 -1.4861  1.3561
 8222SOL     OW25243   9.133   5.605   3.878 -0.2367 -0.3357 -0.5792
 8222SOL    HW125244   9.173   5.519   3.892  0.6675 -0.2236 -2.2342
 8222SOL    HW225245   9.206   5.667   3.880 -0.9605  0.5369  1.3463
 8223SOL     OW25246   2.244   0.398   2.822 -0.0850 -0.1019 -0.0665
 8223SOL    HW125247   2.309   0.328   2.827 -0.7216 -0.6865  0.1833
 8223SOL    HW225248   2.219   0.416   2.913 -2.0970 -1.6462 -0.2367
 8224SOL     OW25249   5.741   0.158   2.608 -0.4321 -0.5622 -0.5048
 8224SOL    HW125250   5.772   0.069   2.624  1.2277 -0.1856 -1.4296
 8224SOL    HW225251   5.820   0.208   2.588 -1.3047  1.1775  0.1726
 8225SOL     OW25252   1.176   0.198   0.574  0.4692  0.1756  0.0934
 8225SOL    HW125253   1.114   0.215   0.504  0.4261 -0.1675  0.0438
 8225SOL    HW225254   1.205   0.108   0.559  4.3611  1.5978 -2.5173
 8226SOL     OW25255   7.108   9.248   0.107 -0.0034  0.2922 -0.4623
 8226SOL    HW125256   7.183   9.199   0.142  0.5545  1.9917  0.8349
 8226SOL    HW225257   7.131   9.265   0.016  1.8902  1.9542  0.2414
 8227SOL     OW25258   9.763   5.768   1.375  0.2358  0.1455 -0.2521
 8227SOL    HW125259   9.859   5.769   1.367  0.2871  0.0568  0.3101
 8227SOL    HW225260   9.735   5.695   1.319  0.6183 -0.7684  0.7083
 8228SOL     OW25261   4.197   1.806   7.329 -0.4563  0.1765 -0.0274
 8228SOL    HW125262   4.183   1.808   7.234 -0.7922 -1.2999 -0.0352
 8228SOL    HW225263   4.111   1.828   7.366  0.1769  3.0088 -0.0044
 8229SOL     OW25264   3.284   5.234   6.460 -0.0112  0.1556  0.3480
 8229SOL    HW125265   3.230   5.302   6.500  0.7622 -0.4622  2.5876
 8229SOL    HW225266   3.357   5.280   6.421 -0.2586  0.7158  0.5388
 8230SOL     OW25267   5.666   5.999   1.688 -0.1405 -0.0269 -0.1618
 8230SOL    HW125268   5.671   5.959   1.775  0.9414  1.0250  0.2968
 8230SOL    HW225269   5.573   6.008   1.671 -0.3730 -0.8496  0.6043
 8231SOL     OW25270   8.652   1.934   1.002  0.6502  0.1757 -0.7469
 8231SOL    HW125271   8.569   1.981   0.992  1.2254  1.1789 -0.9810
 8231SOL    HW225272   8.661   1.884   0.921 -0.4775 -1.2044 -0.0530
 8232SOL     OW25273   2.247   6.668   6.117  0.1412  0.0511 -0.2273
 8232SOL    HW125274   2.214   6.587   6.157 -0.5831  0.7352  0.5929
 8232SOL    HW225275   2.173   6.701   6.065 -0.1461  1.0256  0.7532
 8233SOL     OW25276   7.194   3.127   8.500 -0.2497  0.2231  0.3461
 8233SOL    HW125277   7.227   3.217   8.495  0.7708 -0.2085 -2.8926
 8233SOL    HW225278   7.269   3.073   8.474 -1.2871 -1.4549  0.7096
 8234SOL     OW25279   4.710   9.860   4.511 -0.1352  0.5004 -0.6426
 8234SOL    HW125280   4.762   9.795   4.558  1.1456  1.7098 -0.3048
 8234SOL    HW225281   4.628   9.866   4.561  0.6680  0.7844  0.6887
 8235SOL     OW25282   9.677   2.445   8.851  0.1991  0.0595 -0.2207
 8235SOL    HW125283   9.735   2.493   8.909 -0.2062  0.4044 -0.0923
 8235SOL    HW225284   9.681   2.494   8.768  2.5304 -1.6984 -1.2440
 8236SOL     OW25285   7.592   2.571   0.308 -0.5493  0.2878  0.1660
 8236SOL    HW125286   7.644   2.613   0.377 -0.3800 -1.4541  1.1706
 8236SOL    HW225287   7.641   2.491   0.287 -1.1663  0.2391 -1.2316
 8237SOL     OW25288   1.816   4.487   5.682 -0.1818 -0.0276 -0.1950
 8237SOL    HW125289   1.730   4.444   5.681 -0.1240 -0.1617  0.3447
 8237SOL    HW225290   1.856   4.460   5.764  0.5148 -0.2250 -0.5860
 8238SOL     OW25291   9.408   3.369   7.248 -0.1832 -0.1234 -0.1846
 8238SOL    HW125292   9.404   3.282   7.210  2.7506 -1.6237  2.4574
 8238SOL    HW225293   9.477   3.414   7.199  0.1918 -0.2989  0.1727
 8239SOL     OW25294   0.834   5.642   6.946 -0.6433 -0.2091 -0.4568
 8239SOL    HW125295   0.766   5.683   6.892  0.7673  2.3207 -0.4462
 8239SOL    HW225296   0.807   5.550   6.953 -2.5125  0.0655 -2.8458
 8240SOL     OW25297   4.022   6.667   9.453  0.5658  0.4312  0.3478
 8240SOL    HW125298   4.066   6.750   9.437  1.9945 -0.5506 -1.0898
 8240SOL    HW225299   4.037   6.616   9.373  1.8551 -2.1216  2.0955
 8241SOL     OW25300   3.658   6.401   5.471 -0.2548 -0.4942 -0.2496
 8241SOL    HW125301   3.641   6.489   5.505 -0.9745 -0.4557 -0.7023
 8241SOL    HW225302   3.631   6.343   5.542  0.1944 -0.3598  0.0389
 8242SOL     OW25303   9.609   2.137   9.405  0.4509 -0.2542 -0.0148
 8242SOL    HW125304   9.625   2.109   9.315 -0.0051 -1.0505  0.1507
 8242SOL    HW225305   9.536   2.199   9.398 -0.8415 -1.7319  0.0123
 8243SOL     OW25306   4.407   0.379   8.923  0.3300 -0.3325 -0.3838
 8243SOL    HW125307   4.328   0.345   8.966  1.3632 -2.4545 -0.0261
 8243SOL    HW225308   4.397   0.354   8.831  0.5402 -0.5197 -0.3564
 8244SOL     OW25309   0.121   5.440   6.862 -0.0333  0.4048 -0.0777
 8244SOL    HW125310   0.075   5.358   6.879  0.2753  0.5097  1.3374
 8244SOL    HW225311   0.144   5.435   6.769 -0.6689 -0.7777 -0.1883
 8245SOL     OW25312   0.301   6.580   6.840 -0.2308  0.5722 -0.3361
 8245SOL    HW125313   0.390   6.567   6.872 -0.1837  0.0682 -0.6643
 8245SOL    HW225314   0.253   6.502   6.869 -0.0735 -0.1385 -1.8797
 8246SOL     OW25315   0.150   3.229   1.911  0.0974 -0.2984  0.1000
 8246SOL    HW125316   0.064   3.268   1.896 -0.3311 -1.1984  0.1508
 8246SOL    HW225317   0.210   3.286   1.864 -0.5198  0.3723  0.1046
 8247SOL     OW25318   6.330   3.035   5.466 -0.3575 -0.6335  0.1350
 8247SOL    HW125319   6.239   3.007   5.463 -0.0410 -1.7432  0.3354
 8247SOL    HW225320   6.380   2.954   5.467  0.6278 -0.0458  0.2946
 8248SOL     OW25321   2.895   7.228   8.096  0.0716 -0.3771  0.4854
 8248SOL    HW125322   2.928   7.181   8.019  1.1041 -0.7564  1.1419
 8248SOL    HW225323   2.947   7.308   8.100  0.1919 -0.4775  0.9403
 8249SOL     OW25324   5.396   5.950   1.611 -0.2787  0.1976 -0.7007
 8249SOL    HW125325   5.323   6.011   1.606 -0.5867 -0.2000 -1.2163
 8249SOL    HW225326   5.368   5.883   1.673 -0.1738  0.2766 -0.5682
 8250SOL     OW25327   0.485   2.349   6.137 -0.3675  0.3985 -0.7999
 8250SOL    HW125328   0.551   2.290   6.100 -0.4213  0.4879 -1.0379
 8250SOL    HW225329   0.406   2.295   6.144 -0.1147  0.1161  0.0479
 8251SOL     OW25330   9.846   0.985   8.188 -0.0024  0.1953 -0.2704
 8251SOL    HW125331   9.768   0.969   8.241 -1.0730  0.4261 -1.7277
 8251SOL    HW225332   9.904   1.036   8.245 -1.0137  0.2428  0.7483
 8252SOL     OW25333   1.711   7.627   0.486 -0.2908  0.2686 -0.1852
 8252SOL    HW125334   1.804   7.644   0.499 -0.1985  0.5587 -1.1833
 8252SOL    HW225335   1.688   7.565   0.555  0.7055 -0.0443 -0.1284
 8253SOL     OW25336   9.187   6.146   6.043 -0.3780  0.7605 -0.0501
 8253SOL    HW125337   9.213   6.071   5.991 -0.9428  0.1508  0.5313
 8253SOL    HW225338   9.094   6.160   6.022 -0.4444  0.8975  0.3186
 8254SOL     OW25339   2.653   8.473   8.503 -0.5865 -0.0796 -0.5776
 8254SOL    HW125340   2.611   8.489   8.588  0.7275  0.1059  0.0582
 8254SOL    HW225341   2.610   8.394   8.470  0.3119 -1.4099  1.2429
 8255SOL     OW25342   5.480   8.735   6.859  0.7283 -0.1996  0.2052
 8255SOL    HW125343   5.509   8.658   6.909 -0.3481 -1.6319 -1.2580
 8255SOL    HW225344   5.390   8.751   6.889  0.8534  0.3355  0.3073
 8256SOL     OW25345   6.381   5.296   6.581  0.2927 -0.3251  0.3109
 8256SOL    HW125346   6.472   5.317   6.561 -0.2952  1.7823 -0.4075
 8256SOL    HW225347   6.379   5.289   6.677  1.0995  0.0605  0.3659
 8257SOL     OW25348   4.630   6.639   1.857 -0.2677  0.1655 -0.2140
 8257SOL    HW125349   4.692   6.605   1.922 -2.2054 -0.4152  1.4300
 8257SOL    HW225350   4.637   6.734   1.866  0.9570  0.1453 -0.6735
 8258SOL     OW25351   9.443   8.631   0.842 -0.0442 -0.0523 -0.2906
 8258SOL    HW125352   9.399   8.609   0.760 -0.3929  0.3344 -0.2117
 8258SOL    HW225353   9.527   8.584   0.838 -0.4766 -0.8255 -0.4230
 8259SOL     OW25354   2.153   4.156   8.556  0.3408  0.4276 -0.0903
 8259SOL    HW125355   2.175   4.129   8.467  1.6211  1.2925 -0.0563
 8259SOL    HW225356   2.231   4.134   8.607  0.2981  1.5310  0.4757
 8260SOL     OW25357   4.527   2.075   4.994  0.5567  0.9201 -0.5037
 8260SOL    HW125358   4.434   2.064   4.977  0.4955  0.6747 -0.0322
 8260SOL    HW225359   4.570   2.044   4.914  0.3467 -2.0579  0.3856
 8261SOL     OW25360   0.940   5.512   9.480 -0.2359  0.4760 -0.2332
 8261SOL    HW125361   0.905   5.502   9.568 -1.2234 -0.7845 -0.7397
 8261SOL    HW225362   1.035   5.520   9.493 -0.4422  1.2454  0.9768
 8262SOL     OW25363   7.474   7.105   7.409  0.3750  0.5013  0.1551
 8262SOL    HW125364   7.401   7.122   7.468 -0.9928 -0.2593 -1.2367
 8262SOL    HW225365   7.492   7.012   7.419  2.3604  0.9676  1.7259
 8263SOL     OW25366   5.423   5.098   7.298  0.0790  0.3341  0.4009
 8263SOL    HW125367   5.447   5.115   7.389  0.1898  2.2467  0.0469
 8263SOL    HW225368   5.480   5.155   7.247  0.0149 -0.7016 -0.8902
 8264SOL     OW25369   2.640   5.781   6.862 -0.5431 -0.0465  0.2128
 8264SOL    HW125370   2.567   5.731   6.826 -0.0566  0.4738 -1.6195
 8264SOL    HW225371   2.717   5.745   6.818  0.2658 -0.2039  1.6927
 8265SOL     OW25372   6.567   6.859   5.811  0.0341 -0.1236  0.0156
 8265SOL    HW125373   6.561   6.942   5.764 -1.6676 -0.7077 -0.8875
 8265SOL    HW225374   6.610   6.799   5.750 -0.3429 -0.3574 -0.0252
 8266SOL     OW25375   2.352   8.738   9.043 -0.0359 -0.0274  0.7390
 8266SOL    HW125376   2.398   8.657   9.020 -0.9665 -0.3234 -0.2094
 8266SOL    HW225377   2.421   8.802   9.058  0.7015 -0.7899  0.6604
 8267SOL     OW25378   1.962   4.793   8.213 -0.0901 -0.1274 -0.0617
 8267SOL    HW125379   2.055   4.803   8.234 -0.4521  0.7919  1.2542
 8267SOL    HW225380   1.948   4.853   8.140  0.1529  0.4969  0.3937
 8268SOL     OW25381   9.021   0.991   1.485 -0.3657 -0.3844 -0.0130
 8268SOL    HW125382   9.090   0.992   1.418 -1.3942  0.4273 -1.1060
 8268SOL    HW225383   9.059   1.040   1.558  0.5292 -0.6890 -0.2566
 8269SOL     OW25384   6.853   3.075   2.215  0.5031 -0.2187  0.0122
 8269SOL    HW125385   6.878   2.984   2.205 -1.4972 -0.8905  0.5936
 8269SOL    HW225386   6.826   3.082   2.307 -1.4536  0.3524 -0.5527
 8270SOL     OW25387   9.517   0.558   6.586  0.2192 -0.2316 -0.3900
 8270SOL    HW125388   9.442   0.614   6.605  0.4445 -0.2009  0.4452
 8270SOL    HW225389   9.542   0.521   6.670  0.0280 -1.6663 -0.9252
 8271SOL     OW25390   0.566   1.072   8.201 -0.2637 -0.2118 -0.1890
 8271SOL    HW125391   0.578   0.980   8.178  1.9466  0.0353 -0.2280
 8271SOL    HW225392   0.601   1.120   8.127  1.5424  0.6202  1.1361
 8272SOL     OW25393   2.053   6.522   2.474 -0.5156 -0.1095 -0.5212
 8272SOL    HW125394   2.111   6.465   2.525 -0.4594  1.5626  1.4504
 8272SOL    HW225395   2.108   6.597   2.450 -1.7474  1.5715  1.4904
 8273SOL     OW25396   0.859   2.961   5.241 -0.1155  0.6738 -0.4104
 8273SOL    HW125397   0.868   2.929   5.331  2.3025  1.9152 -0.1340
 8273SOL    HW225398   0.857   2.882   5.187  0.8507 -0.0516  0.5865
 8274SOL     OW25399   7.782   0.075   9.546  0.5542 -0.4149  0.1341
 8274SOL    HW125400   7.745  -0.010   9.567  1.4001 -0.6384  0.7627
 8274SOL    HW225401   7.706   0.133   9.538 -0.0747 -1.3322 -0.8748
 8275SOL     OW25402   8.179   6.510   8.741 -0.3802  0.2098 -0.0347
 8275SOL    HW125403   8.215   6.439   8.794 -4.3207 -0.4044  2.1723
 8275SOL    HW225404   8.152   6.468   8.659 -0.4636 -0.3463  0.2742
 8276SOL     OW25405   4.248   7.214   2.726 -0.1123  0.0781  0.0626
 8276SOL    HW125406   4.316   7.180   2.784 -1.5410 -1.1347  1.1006
 8276SOL    HW225407   4.216   7.137   2.678  0.2157  0.8612 -1.5016
 8277SOL     OW25408   9.714   4.688   7.399 -0.1863  0.0743 -0.6058
 8277SOL    HW125409   9.657   4.618   7.366 -0.4601 -0.0956  0.2106
 8277SOL    HW225410   9.802   4.651   7.394 -0.2145  0.0840 -1.2276
 8278SOL     OW25411   2.838   8.988   1.001  0.2208  0.1071  0.0859
 8278SOL    HW125412   2.766   8.993   1.065 -0.7640  0.3070 -0.9973
 8278SOL    HW225413   2.804   8.931   0.932  2.1426 -1.9960  0.8042
 8279SOL     OW25414   7.386   6.349   3.132  0.1398 -0.0179 -0.1854
 8279SOL    HW125415   7.406   6.442   3.124 -2.5961  0.6327 -0.6032
 8279SOL    HW225416   7.454   6.315   3.189  0.0070  2.7146  1.8028
 8280SOL     OW25417   8.135   5.321   1.354 -0.2778 -0.2255 -0.1538
 8280SOL    HW125418   8.209   5.363   1.311 -0.1746  0.8883  1.0536
 8280SOL    HW225419   8.072   5.392   1.367 -0.0105 -0.3516  2.1237
 8281SOL     OW25420   1.885   4.461   4.573  0.2326  0.0963  0.2326
 8281SOL    HW125421   1.901   4.554   4.589 -0.8316  0.1250  1.1794
 8281SOL    HW225422   1.790   4.453   4.567  0.2796 -1.0010  0.6770
 8282SOL     OW25423   1.784   4.208   1.882  0.5244  0.6307  0.1890
 8282SOL    HW125424   1.811   4.172   1.966 -0.4830  0.5833  0.5027
 8282SOL    HW225425   1.718   4.274   1.903 -0.1297  0.2476 -0.5798
 8283SOL     OW25426   4.221   9.854   1.700 -0.2198 -0.2063 -0.4347
 8283SOL    HW125427   4.141   9.907   1.703 -0.5574 -0.7273 -0.1978
 8283SOL    HW225428   4.203   9.779   1.755  1.1178  0.5779  1.1593
 8284SOL     OW25429   5.960   9.340   4.330 -0.5563  0.0036 -0.4162
 8284SOL    HW125430   5.995   9.287   4.402 -0.4746  0.0643 -0.4107
 8284SOL    HW225431   5.866   9.342   4.346 -0.3784  1.5934  0.7870
 8285SOL     OW25432   2.774   9.745   6.623  0.2603  0.0279  0.5876
 8285SOL    HW125433   2.858   9.700   6.632 -0.4782 -1.6398 -0.5665
 8285SOL    HW225434   2.723   9.716   6.699  0.9133  1.6127  1.7010
 8286SOL     OW25435   8.888   0.698   4.463  0.1772 -0.1491  0.8390
 8286SOL    HW125436   8.919   0.607   4.463 -1.7970 -0.8675  0.7175
 8286SOL    HW225437   8.918   0.733   4.379  0.5303 -0.8320  0.6677
 8287SOL     OW25438   9.136   1.865   0.136  0.2243 -0.0669 -0.1079
 8287SOL    HW125439   9.094   1.817   0.208 -0.7865  0.5613 -0.2486
 8287SOL    HW225440   9.176   1.941   0.178 -0.2351  0.2193 -0.1784
 8288SOL     OW25441   2.071   4.861   9.561  0.0937 -0.1494  0.2268
 8288SOL    HW125442   2.016   4.928   9.521  1.0376  0.3950 -0.1973
 8288SOL    HW225443   2.161   4.891   9.546  0.5590 -1.6888 -0.3106
 8289SOL     OW25444   9.314   7.709   5.516  0.2140  0.2382  0.1623
 8289SOL    HW125445   9.275   7.760   5.445 -1.1416  0.4519  1.0274
 8289SOL    HW225446   9.279   7.748   5.596  0.8797 -0.6671  0.9233
 8290SOL     OW25447   8.516   2.701   4.082  0.5599 -0.1925 -0.1053
 8290SOL    HW125448   8.511   2.785   4.037  1.3693  0.3457  0.7851
 8290SOL    HW225449   8.475   2.716   4.167  0.1948 -0.8555 -0.1584
 8291SOL     OW25450   7.883   4.296   6.743  0.4568  0.0239  0.4181
 8291SOL    HW125451   7.909   4.207   6.718 -2.0647 -0.3217 -1.3855
 8291SOL    HW225452   7.799   4.309   6.698  1.2869  3.7392 -0.3308
 8292SOL     OW25453   0.403   2.580   4.422 -1.0830 -0.4655 -0.0010
 8292SOL    HW125454   0.440   2.658   4.380 -2.0340 -0.1207 -0.2174
 8292SOL    HW225455   0.395   2.604   4.514 -0.5157 -0.6393  0.0950
 8293SOL     OW25456   6.070   3.639   8.229  0.5788 -0.8558  0.2496
 8293SOL    HW125457   6.034   3.727   8.240 -0.0892 -0.8472 -1.6841
 8293SOL    HW225458   6.110   3.639   8.142  0.0796 -2.6134 -0.0255
 8294SOL     OW25459   6.525   7.532   3.187 -0.4315  0.2511 -0.3575
 8294SOL    HW125460   6.486   7.589   3.253  0.3352  0.3244  0.0443
 8294SOL    HW225461   6.535   7.448   3.231 -0.8326  0.0268 -0.6969
 8295SOL     OW25462   5.188   7.967   2.707  0.1901 -0.1330  0.0358
 8295SOL    HW125463   5.274   7.939   2.675  0.9297  0.2353  1.6116
 8295SOL    HW225464   5.196   8.062   2.717 -0.6075 -0.0159 -0.3302
 8296SOL     OW25465   8.939   7.326   1.886  0.1373 -0.1380 -0.1325
 8296SOL    HW125466   8.992   7.380   1.827  1.2052 -0.9711  0.0230
 8296SOL    HW225467   8.914   7.385   1.957 -0.7000  0.7358 -1.1299
 8297SOL     OW25468   4.306   1.444   5.270 -0.0609  0.3368  0.1107
 8297SOL    HW125469   4.241   1.451   5.340  0.2407  1.6884  0.2986
 8297SOL    HW225470   4.369   1.513   5.290  1.8394 -1.3717  0.3319
 8298SOL     OW25471   0.369   0.725   6.220  0.1028 -0.1248 -0.1389
 8298SOL    HW125472   0.299   0.661   6.208 -1.3572  1.5652 -1.0436
 8298SOL    HW225473   0.426   0.713   6.144  0.0802 -0.6111 -0.0850
 8299SOL     OW25474   0.793   4.110   1.935 -0.5541 -0.1671 -0.2288
 8299SOL    HW125475   0.745   4.186   1.902  1.9722  1.6898  0.0522
 8299SOL    HW225476   0.840   4.076   1.858 -0.2175 -0.2659  0.0182
 8300SOL     OW25477   5.785   4.651   0.981 -0.5932  0.2004  0.1862
 8300SOL    HW125478   5.696   4.684   0.995 -0.8974  0.5065 -2.1003
 8300SOL    HW225479   5.837   4.730   0.966 -0.6509 -0.1040 -1.8842
 8301SOL     OW25480   0.478   9.686   9.350 -0.0900 -0.0299  0.3818
 8301SOL    HW125481   0.473   9.767   9.399  4.5891  0.7835 -0.0559
 8301SOL    HW225482   0.478   9.617   9.417  0.2895  0.6668  1.1132
 8302SOL     OW25483   5.435   8.015   4.874 -0.3808 -0.0376  0.0588
 8302SOL    HW125484   5.362   7.979   4.824  0.4215  0.4662 -1.5431
 8302SOL    HW225485   5.512   7.993   4.822  0.3330  1.9055  0.2418
 8303SOL     OW25486   7.667   4.115   4.223 -0.3701  0.2348 -0.8400
 8303SOL    HW125487   7.674   4.066   4.141 -0.2163 -1.1975  0.0035
 8303SOL    HW225488   7.662   4.207   4.195 -0.0455 -0.1967 -2.4313
 8304SOL     OW25489   2.431   3.886   9.814  0.9835  0.3695 -0.6451
 8304SOL    HW125490   2.361   3.859   9.754 -1.0637  2.2359  0.7579
 8304SOL    HW225491   2.510   3.880   9.761 -0.6232  1.3871 -3.4436
 8305SOL     OW25492   1.795   6.372   1.734 -0.1558  0.0422 -0.4715
 8305SOL    HW125493   1.819   6.287   1.773  2.6205  0.5766 -0.8011
 8305SOL    HW225494   1.775   6.351   1.643  0.5698 -0.2838 -0.5658
 8306SOL     OW25495   7.511   0.759   5.247 -0.0415  0.1285 -0.3416
 8306SOL    HW125496   7.589   0.792   5.203  0.3658  1.1757  1.0633
 8306SOL    HW225497   7.518   0.793   5.336 -2.1653  0.3538 -0.2039
 8307SOL     OW25498   4.757   3.006   5.771  0.0154 -0.3093 -0.4856
 8307SOL    HW125499   4.742   3.056   5.691 -0.9713 -2.7384 -1.9264
 8307SOL    HW225500   4.840   2.960   5.756  0.9157  0.7924  0.8197
 8308SOL     OW25501   7.010   2.570   1.181  0.2534  0.0187  0.0323
 8308SOL    HW125502   7.025   2.526   1.098 -1.1332  0.8174 -0.6685
 8308SOL    HW225503   7.050   2.513   1.246  0.1582 -1.3036 -1.0335
 8309SOL     OW25504   9.068   3.500   1.706 -0.0398 -0.0541 -0.1913
 8309SOL    HW125505   9.117   3.504   1.788  0.1694  1.2167 -0.3543
 8309SOL    HW225506   9.122   3.447   1.648  1.2609  1.4396 -0.4153
 8310SOL     OW25507   6.668   7.098   4.268 -0.8021  0.1114  0.1456
 8310SOL    HW125508   6.672   7.045   4.347 -1.8781 -0.4876 -0.1860
 8310SOL    HW225509   6.742   7.158   4.275  0.8165 -1.8022  0.2630
 8311SOL     OW25510   8.799   8.454   5.665 -0.1105 -0.6236 -0.0373
 8311SOL    HW125511   8.725   8.425   5.612  0.7313 -2.0438 -0.4870
 8311SOL    HW225512   8.830   8.375   5.709  1.0976 -0.0539  0.1828
 8312SOL     OW25513   8.451   5.784   7.655  0.0562 -0.0896 -0.3789
 8312SOL    HW125514   8.364   5.800   7.619  0.1138  0.7590 -0.1415
 8312SOL    HW225515   8.471   5.694   7.628 -1.6021 -0.9423  1.0382
 8313SOL     OW25516   8.684   1.129   5.538 -0.0193 -0.4093 -0.2703
 8313SOL    HW125517   8.628   1.173   5.603 -0.3176  1.2082 -1.5579
 8313SOL    HW225518   8.757   1.095   5.589  0.0192  1.2656  0.8752
 8314SOL     OW25519   3.326   3.594   0.687  0.9601 -0.1255 -0.0056
 8314SOL    HW125520   3.301   3.609   0.596 -0.1790 -2.6062 -0.1831
 8314SOL    HW225521   3.246   3.563   0.729  1.2670  1.6531  2.0911
 8315SOL     OW25522   9.752   0.401   6.751 -0.1393 -0.0734  0.2594
 8315SOL    HW125523   9.697   0.365   6.821 -1.0415  0.9260  0.0942
 8315SOL    HW225524   9.746   0.496   6.762  0.2059  0.0876 -0.7996
 8316SOL     OW25525   4.936   9.422   1.017 -0.1828 -1.0000  0.0463
 8316SOL    HW125526   4.883   9.437   1.095 -0.8808  0.5740 -0.6727
 8316SOL    HW225527   4.996   9.352   1.042  1.0254  0.8194  2.7102
 8317SOL     OW25528   0.136   9.949   3.388  0.4050  0.5318 -0.5415
 8317SOL    HW125529   0.195   9.888   3.431  0.5513  1.4270  0.5644
 8317SOL    HW225530   0.193  10.017   3.351  0.1265  1.1441  0.1159
 8318SOL     OW25531   5.221   5.836   5.306 -0.1282 -0.7970  0.4554
 8318SOL    HW125532   5.268   5.871   5.230  1.6731 -2.9080  0.4898
 8318SOL    HW225533   5.290   5.812   5.368 -1.5643  2.1617  3.5268
 8319SOL     OW25534   9.767   7.629   5.261 -0.0669  0.1459 -0.2050
 8319SOL    HW125535   9.840   7.654   5.204  0.3278 -2.3751 -0.9333
 8319SOL    HW225536   9.692   7.679   5.228  0.9822  1.6433 -0.4005
 8320SOL     OW25537   0.490   9.813   7.694 -0.3877  0.0367 -0.3464
 8320SOL    HW125538   0.401   9.787   7.718 -0.2311 -0.2747 -0.0997
 8320SOL    HW225539   0.547   9.760   7.750 -0.0642  1.0201  0.2833
 8321SOL     OW25540   0.931   6.516   7.239  0.1757 -0.6421  0.3381
 8321SOL    HW125541   0.942   6.558   7.325  0.0479 -0.1601  0.1252
 8321SOL    HW225542   0.859   6.565   7.199  1.0765 -0.0101 -0.5640
 8322SOL     OW25543   5.543   6.407   1.905  0.3655  0.2441 -0.0105
 8322SOL    HW125544   5.455   6.375   1.884 -1.0286  2.5891  1.7915
 8322SOL    HW225545   5.556   6.482   1.847  1.8442 -0.9286 -1.2720
 8323SOL     OW25546   4.606   0.089   5.411 -0.0058  0.6062 -0.0032
 8323SOL    HW125547   4.635   0.042   5.489  0.4469  0.5539 -0.1996
 8323SOL    HW225548   4.641   0.178   5.423  0.4427  0.4820 -0.3476
 8324SOL     OW25549   9.141   5.003   5.774  0.1690 -0.6763  0.3893
 8324SOL    HW125550   9.128   5.062   5.848  0.3120 -0.5377  0.3052
 8324SOL    HW225551   9.222   4.956   5.796  0.4678 -0.3041  0.1070
 8325SOL     OW25552   6.156   1.114   6.291 -0.1982  0.6097 -0.0060
 8325SOL    HW125553   6.118   1.046   6.346 -0.5781 -0.0026 -0.9997
 8325SOL    HW225554   6.121   1.097   6.204  3.4591 -0.9365 -1.3477
 8326SOL     OW25555   2.560   1.763   9.678  0.1241  0.1392  0.1406
 8326SOL    HW125556   2.517   1.705   9.615  0.2708  1.0511 -0.8373
 8326SOL    HW225557   2.488   1.801   9.728 -0.2286  1.3097 -1.1825
 8327SOL     OW25558   3.856   3.423   4.628  0.0110  0.1871  0.1763
 8327SOL    HW125559   3.940   3.468   4.622  0.1596  0.0905  1.4214
 8327SOL    HW225560   3.811   3.466   4.700 -1.7929  1.4782 -1.6092
 8328SOL     OW25561   2.185   0.832   1.042  0.5479 -0.3890 -0.1110
 8328SOL    HW125562   2.256   0.827   0.978  0.3453 -0.3009 -0.3448
 8328SOL    HW225563   2.156   0.923   1.039  0.9880 -0.2211  0.6033
 8329SOL     OW25564   0.766   5.536   9.239 -0.1665 -0.3971 -0.6574
 8329SOL    HW125565   0.799   5.561   9.325 -1.7235 -0.8834  0.1202
 8329SOL    HW225566   0.778   5.441   9.235 -0.6509 -0.4610 -0.7048
 8330SOL     OW25567   9.936   1.736   4.769 -0.3272 -0.1496 -0.0658
 8330SOL    HW125568   9.869   1.730   4.701 -0.5262  0.3348  0.0857
 8330SOL    HW225569   9.912   1.813   4.820  0.8758  0.6133 -0.6027
 8331SOL     OW25570   8.647   7.162   7.674 -0.5752 -0.3421  0.1478
 8331SOL    HW125571   8.609   7.245   7.645  0.8801  0.7950  1.3489
 8331SOL    HW225572   8.695   7.184   7.754  3.1988 -1.4639 -1.5607
 8332SOL     OW25573   7.116   3.372   4.262 -0.1451  1.0785  0.0370
 8332SOL    HW125574   7.138   3.457   4.301  0.4622  0.5880  0.7750
 8332SOL    HW225575   7.200   3.337   4.232 -0.2832  0.4023  0.4193
 8333SOL     OW25576   0.185   5.136   2.752 -0.1092 -0.3149 -0.5122
 8333SOL    HW125577   0.150   5.103   2.669  1.9030 -2.6645 -0.5548
 8333SOL    HW225578   0.223   5.221   2.730 -1.4028  0.0374 -1.5033
 8334SOL     OW25579   2.878   0.801   8.973 -0.0488  0.3379 -0.4809
 8334SOL    HW125580   2.854   0.799   9.066 -1.2345 -1.4170 -0.7818
 8334SOL    HW225581   2.973   0.817   8.973 -0.3031  2.1715  0.9344
 8335SOL     OW25582   1.937   7.084   2.270 -0.3929 -0.6327 -0.3762
 8335SOL    HW125583   1.930   6.999   2.226 -0.5306  0.2170 -2.0478
 8335SOL    HW225584   1.925   7.148   2.201 -0.9376  0.7718  0.9780
 8336SOL     OW25585   4.749   8.909   3.076 -0.4975  0.5069 -0.0028
 8336SOL    HW125586   4.761   8.937   2.986  1.1839 -3.0759 -1.0552
 8336SOL    HW225587   4.686   8.836   3.071 -0.0852 -0.0112  1.6532
 8337SOL     OW25588   0.875   9.901   2.511 -0.5209 -0.0115 -0.2267
 8337SOL    HW125589   0.891   9.808   2.525  1.3980  0.5982  2.2426
 8337SOL    HW225590   0.787   9.915   2.546 -1.6675 -1.1603 -2.4193
 8338SOL     OW25591   2.523   2.192   7.339  0.0363 -0.5128  0.4473
 8338SOL    HW125592   2.445   2.157   7.296  1.7173 -2.6433 -1.0327
 8338SOL    HW225593   2.577   2.226   7.268 -0.2613  2.7357  1.5998
 8339SOL     OW25594   5.858   6.894   2.868 -0.2154  0.1544  0.5051
 8339SOL    HW125595   5.872   6.804   2.838  0.9201  0.8280 -1.1380
 8339SOL    HW225596   5.763   6.906   2.866 -0.2835  0.0083 -2.6437
 8340SOL     OW25597   6.279   5.607   4.866  0.0490 -0.1879  0.8085
 8340SOL    HW125598   6.186   5.601   4.887  0.0731  0.4751  1.1344
 8340SOL    HW225599   6.323   5.574   4.944  0.1106  0.9013  1.2464
 8341SOL     OW25600   1.710   3.762   3.445  0.3353  0.1217  0.1455
 8341SOL    HW125601   1.615   3.765   3.449  0.2546 -1.5392  0.2345
 8341SOL    HW225602   1.736   3.847   3.410 -1.1113  0.9774  1.0746
 8342SOL     OW25603   0.817   3.777   0.692  0.0820  0.3058  0.0721
 8342SOL    HW125604   0.822   3.681   0.690  0.8549  0.3452 -0.1920
 8342SOL    HW225605   0.781   3.801   0.607 -1.0658  0.2103  0.5135
 8343SOL     OW25606   2.668   5.939   1.444 -0.3288  0.1215 -0.4053
 8343SOL    HW125607   2.695   5.976   1.528  0.3211  1.3839 -1.1451
 8343SOL    HW225608   2.749   5.901   1.409 -0.7740 -1.1594 -0.1146
 8344SOL     OW25609   6.327   8.002   7.485 -0.3134  0.2862  0.1917
 8344SOL    HW125610   6.350   7.959   7.402 -1.3951  0.3574 -0.1580
 8344SOL    HW225611   6.272   7.938   7.530 -1.5382  1.1007 -0.1188
 8345SOL     OW25612   7.781   4.791   7.592 -0.5344  0.2008  0.2540
 8345SOL    HW125613   7.707   4.798   7.653  0.2493  1.3210  1.1090
 8345SOL    HW225614   7.846   4.740   7.640 -0.8229 -0.9959 -0.5925
 8346SOL     OW25615   0.720   1.036   7.627  0.3433  0.5366 -0.4563
 8346SOL    HW125616   0.654   1.072   7.687  1.5599  0.5927  0.8815
 8346SOL    HW225617   0.738   1.108   7.566  1.3866  1.5841  1.0489
 8347SOL     OW25618   6.692   0.567   7.891  0.0610 -1.2381  0.7144
 8347SOL    HW125619   6.606   0.530   7.910 -0.1553 -1.6222 -0.8680
 8347SOL    HW225620   6.749   0.533   7.960 -1.0034 -1.1030  1.6968
 8348SOL     OW25621   2.699   2.388   2.260  0.3831 -0.6032  0.1243
 8348SOL    HW125622   2.655   2.438   2.329 -0.9484 -0.8662 -0.4990
 8348SOL    HW225623   2.679   2.435   2.179 -0.1563 -1.6248 -0.3683
 8349SOL     OW25624   2.382   6.131   9.157  0.1713  0.1259  0.2205
 8349SOL    HW125625   2.331   6.204   9.121 -0.9825 -0.6446  0.2304
 8349SOL    HW225626   2.333   6.105   9.235 -0.7506 -2.1548 -1.0449
 8350SOL     OW25627   9.395   9.945   8.725 -0.0332 -0.3325  0.6244
 8350SOL    HW125628   9.391  10.022   8.783 -0.0547 -0.5073  0.8565
 8350SOL    HW225629   9.445   9.880   8.774 -0.9386 -0.8562  0.8936
 8351SOL     OW25630   1.812   8.137   0.132 -0.2393  0.2587  0.4419
 8351SOL    HW125631   1.880   8.140   0.065 -0.2172  1.8195  0.5076
 8351SOL    HW225632   1.770   8.223   0.128 -1.6895 -0.3988  0.9509
 8352SOL     OW25633   9.083   5.622   7.126 -0.4097  0.5995 -0.0263
 8352SOL    HW125634   9.164   5.606   7.079 -0.0989 -0.3929  0.8112
 8352SOL    HW225635   9.015   5.581   7.073  0.1614 -2.2431  1.2304
 8353SOL     OW25636   1.255   0.224   2.800  0.1765  0.4956 -0.5328
 8353SOL    HW125637   1.305   0.154   2.843  0.9793  1.6057  0.4154
 8353SOL    HW225638   1.298   0.234   2.715 -0.4833 -0.7097 -1.0366
 8354SOL     OW25639   2.848   8.942   3.408  0.2106 -0.2423  0.7664
 8354SOL    HW125640   2.777   8.894   3.451 -0.5963  0.8837  0.7442
 8354SOL    HW225641   2.927   8.915   3.455 -0.0636 -2.2688  0.1729
 8355SOL     OW25642   3.583   0.486   8.486  0.4767 -0.0086  0.2260
 8355SOL    HW125643   3.622   0.572   8.470 -0.6800  0.5742  0.3871
 8355SOL    HW225644   3.496   0.491   8.445 -0.3669 -0.3937  1.8602
 8356SOL     OW25645   8.490   8.199   8.336 -0.0756  1.0836 -0.6052
 8356SOL    HW125646   8.510   8.223   8.245  3.6239 -0.6552 -0.4719
 8356SOL    HW225647   8.545   8.257   8.389  0.2702 -0.0076  0.2845
 8357SOL     OW25648   0.446   6.173   5.679 -0.2647  0.4556  0.3195
 8357SOL    HW125649   0.367   6.169   5.626  0.5148  0.4584 -0.8836
 8357SOL    HW225650   0.443   6.259   5.721 -0.6836  0.6194 -0.0438
 8358SOL     OW25651   0.205   3.245   7.773 -0.8600 -0.2859 -0.1140
 8358SOL    HW125652   0.140   3.194   7.823 -0.8561  1.7319  2.1456
 8358SOL    HW225653   0.153   3.308   7.723 -0.7292 -0.1659 -0.0975
 8359SOL     OW25654   1.150   8.973   1.626  0.4938 -0.0616  0.5288
 8359SOL    HW125655   1.075   8.953   1.570  1.1215  1.6058 -1.0299
 8359SOL    HW225656   1.121   9.047   1.679  0.1360 -1.1975  1.9550
 8360SOL     OW25657   8.165   1.115   0.457 -0.3828  0.3347  0.0092
 8360SOL    HW125658   8.150   1.039   0.401 -3.2852  1.1388 -0.4853
 8360SOL    HW225659   8.084   1.124   0.508  0.3035  2.4314  0.8263
 8361SOL     OW25660   4.319   3.269   1.817 -0.1347  0.2697  0.2485
 8361SOL    HW125661   4.382   3.199   1.803  0.1401  0.6338 -0.3461
 8361SOL    HW225662   4.371   3.342   1.851 -0.4441  0.1369  1.0325
 8362SOL     OW25663   9.634   5.284   9.157  0.3913  0.6768 -0.0167
 8362SOL    HW125664   9.607   5.277   9.249 -0.4762 -0.4862 -0.3379
 8362SOL    HW225665   9.563   5.332   9.115 -0.0001 -0.2123 -0.3849
 8363SOL     OW25666   9.715   6.153   3.832 -0.1372 -0.4629  0.3595
 8363SOL    HW125667   9.805   6.187   3.829 -0.9372  1.7086 -1.0614
 8363SOL    HW225668   9.722   6.064   3.796  1.4473 -0.4089  0.4460
 8364SOL     OW25669   7.582   5.253   7.693 -0.1590  0.3203 -0.0200
 8364SOL    HW125670   7.561   5.339   7.655 -1.0696 -0.0502 -0.3748
 8364SOL    HW225671   7.497   5.212   7.708  0.2644 -0.4101  0.4223
 8365SOL     OW25672   5.472   4.949   0.222  0.6589  0.6596 -0.2637
 8365SOL    HW125673   5.384   4.921   0.248  0.5503 -0.5745 -1.7950
 8365SOL    HW225674   5.513   4.978   0.303 -0.9688  0.7581  0.5757
 8366SOL     OW25675   0.707   8.447   1.249 -0.2406  0.5886  0.1162
 8366SOL    HW125676   0.705   8.368   1.304  0.2653  0.2583 -0.3234
 8366SOL    HW225677   0.625   8.444   1.200  0.0309  0.0064 -0.3274
 8367SOL     OW25678   5.636   9.004   0.629 -0.1294  0.4221 -0.0514
 8367SOL    HW125679   5.562   8.990   0.570  0.1787 -1.8302  0.0079
 8367SOL    HW225680   5.602   8.987   0.716  0.0064  1.3554  0.1989
 8368SOL     OW25681   8.183   9.155   1.362  0.3478  0.4306 -0.2836
 8368SOL    HW125682   8.128   9.099   1.418  0.2765  0.6800 -0.1022
 8368SOL    HW225683   8.143   9.148   1.275 -1.0764  2.0092  0.1879
 8369SOL     OW25684   6.417   2.355   2.676  0.3985  0.1597 -0.2143
 8369SOL    HW125685   6.409   2.261   2.663 -1.0867  0.3782 -1.2224
 8369SOL    HW225686   6.468   2.386   2.600 -0.1988  0.3048 -0.5641
 8370SOL     OW25687   3.466   8.943   0.490  0.7379 -0.5325 -0.3993
 8370SOL    HW125688   3.545   8.904   0.527  0.7722  0.3163  0.4641
 8370SOL    HW225689   3.453   9.024   0.540 -1.4476 -1.3188  0.4361
 8371SOL     OW25690   7.579   1.996   7.557 -0.2508  0.1966 -0.2729
 8371SOL    HW125691   7.524   1.959   7.626  1.2752  0.1013  0.9371
 8371SOL    HW225692   7.563   2.090   7.561 -0.1487  0.1925  0.2396
 8372SOL     OW25693   7.607   6.427   7.483  0.2006  0.6552  0.3802
 8372SOL    HW125694   7.680   6.472   7.440  1.9168 -0.9777  1.4455
 8372SOL    HW225695   7.593   6.475   7.564  0.0212  1.0115  0.1423
 8373SOL     OW25696   8.521   1.740   2.525  0.3658  0.1442  0.3286
 8373SOL    HW125697   8.434   1.743   2.565  0.4098 -0.8676  0.5276
 8373SOL    HW225698   8.505   1.746   2.431 -0.2020 -2.8268  0.1172
 8374SOL     OW25699   4.178   7.120   0.430  0.1674 -0.1651 -0.2472
 8374SOL    HW125700   4.138   7.194   0.476 -1.4924 -0.7126 -0.7428
 8374SOL    HW225701   4.139   7.123   0.342  1.4531 -0.5759 -0.8593
 8375SOL     OW25702   4.776   9.322   3.352  0.0594 -0.0316 -0.1691
 8375SOL    HW125703   4.708   9.387   3.336 -0.7073  0.3498  3.5575
 8375SOL    HW225704   4.731   9.238   3.343  0.3261 -0.0082 -2.1492
 8376SOL     OW25705   1.874   8.486   3.470  0.1119  0.2910 -0.7784
 8376SOL    HW125706   1.815   8.413   3.488  0.3307  0.2247 -0.3130
 8376SOL    HW225707   1.930   8.491   3.548  1.7434 -0.6375 -1.8239
 8377SOL     OW25708   6.771   1.790   7.907  0.2222  0.2702 -0.0086
 8377SOL    HW125709   6.810   1.773   7.821  2.8585  1.4179  0.8561
 8377SOL    HW225710   6.758   1.885   7.909 -2.4642 -0.0198 -0.1037
 8378SOL     OW25711   6.668   8.738   1.703  0.4825  0.3094  0.6484
 8378SOL    HW125712   6.597   8.705   1.758  1.7934 -2.1537  0.9962
 8378SOL    HW225713   6.656   8.833   1.703 -1.7031  0.1147  2.1647
 8379SOL     OW25714   1.705   4.861   7.823 -0.1889 -0.1888 -0.1149
 8379SOL    HW125715   1.750   4.945   7.817  1.1279 -0.6649  2.0381
 8379SOL    HW225716   1.612   4.884   7.824  0.1486  1.2687  0.5347
 8380SOL     OW25717   5.651   5.347   7.280 -0.3659  0.3050  0.3302
 8380SOL    HW125718   5.591   5.373   7.349  0.3686  2.6307  0.1713
 8380SOL    HW225719   5.730   5.319   7.326 -0.6817 -0.3482  0.4783
 8381SOL     OW25720   7.374   2.493   9.860 -0.1481  0.3457  0.0409
 8381SOL    HW125721   7.404   2.405   9.836 -1.8637 -0.5058  0.8136
 8381SOL    HW225722   7.426   2.515   9.938  0.2336 -0.0285 -0.1046
 8382SOL     OW25723   2.702   4.903   4.421 -0.4962 -0.4235 -0.0116
 8382SOL    HW125724   2.638   4.844   4.381  1.4537 -1.6725 -1.4637
 8382SOL    HW225725   2.741   4.851   4.491 -0.0364 -0.2120 -0.1067
 8383SOL     OW25726   1.669   4.415   6.344 -0.3273 -0.6126 -0.4527
 8383SOL    HW125727   1.702   4.345   6.400 -0.7732 -1.4638 -1.2345
 8383SOL    HW225728   1.665   4.491   6.402  1.5804 -0.8295  0.0305
 8384SOL     OW25729   8.945   8.141   8.178  0.2006  0.1950  0.2416
 8384SOL    HW125730   9.012   8.101   8.233  0.6806  2.7527  1.7237
 8384SOL    HW225731   8.992   8.206   8.126 -0.9823  1.6923  0.9460
 8385SOL     OW25732   6.341   4.662   6.881 -0.1174 -0.3314 -0.3200
 8385SOL    HW125733   6.302   4.724   6.820 -1.3691 -0.2718  0.4989
 8385SOL    HW225734   6.330   4.703   6.967  1.8326 -0.2957 -0.0487
 8386SOL     OW25735   7.510   2.740   0.679  0.0341  0.2786  0.4613
 8386SOL    HW125736   7.429   2.790   0.687 -0.3484 -0.2851  0.1529
 8386SOL    HW225737   7.487   2.653   0.710  0.1062 -0.3186 -1.0822
 8387SOL     OW25738   1.185   8.001   4.387  0.0725 -0.3278 -0.7961
 8387SOL    HW125739   1.130   7.925   4.366 -0.7296  0.2596 -0.8772
 8387SOL    HW225740   1.177   8.058   4.310  0.9674 -0.3225 -0.8963
 8388SOL     OW25741   4.102   5.226   4.949  0.1886 -0.2852  0.5275
 8388SOL    HW125742   4.177   5.227   5.009  0.5686 -1.8931  0.1153
 8388SOL    HW225743   4.140   5.218   4.862 -0.3757  1.8158  0.0415
 8389SOL     OW25744   5.822   7.049   7.771  0.2074 -0.3961 -0.1325
 8389SOL    HW125745   5.844   6.962   7.736 -0.6298 -0.2865 -0.9627
 8389SOL    HW225746   5.855   7.110   7.705  1.2663 -0.0394  0.6972
 8390SOL     OW25747   1.770   6.975   1.017 -0.1382  0.3203  0.1805
 8390SOL    HW125748   1.680   6.998   1.043  0.7073  2.0913  1.7843
 8390SOL    HW225749   1.821   6.987   1.097  1.5124 -0.8868 -0.6528
 8391SOL     OW25750   4.181   4.075   5.059 -0.3363  0.5342  0.0647
 8391SOL    HW125751   4.137   3.991   5.071 -0.7520  0.6343 -0.6988
 8391SOL    HW225752   4.182   4.115   5.146  0.1476 -0.3939  0.5016
 8392SOL     OW25753   8.592   7.313   8.641 -0.1897 -0.1796 -0.0927
 8392SOL    HW125754   8.626   7.397   8.611 -0.3584  0.8148  2.2308
 8392SOL    HW225755   8.663   7.251   8.626  0.4326  0.6503 -0.6360
 8393SOL     OW25756   1.459   8.779   7.891 -0.0205 -0.3063 -0.0660
 8393SOL    HW125757   1.432   8.749   7.978  0.7698  0.3037  0.4038
 8393SOL    HW225758   1.377   8.793   7.844 -0.6582  2.2072  1.5640
 8394SOL     OW25759   7.320   3.887   3.077  0.0244  0.0457 -0.2088
 8394SOL    HW125760   7.364   3.972   3.074  2.0623 -0.9552 -0.7720
 8394SOL    HW225761   7.344   3.852   3.163  0.8326 -0.7452 -0.7429
 8395SOL     OW25762   3.158   0.855   8.938  0.2121  0.2444 -0.0927
 8395SOL    HW125763   3.245   0.825   8.911 -0.0079 -0.7021  0.1950
 8395SOL    HW225764   3.171   0.944   8.971  0.9129  0.4488 -0.8931
 8396SOL     OW25765   7.315   0.062   5.505 -0.1256 -0.2453  0.3735
 8396SOL    HW125766   7.292  -0.005   5.440  0.1715  0.3429 -0.3611
 8396SOL    HW225767   7.240   0.065   5.564 -1.0315  0.1594 -0.7537
 8397SOL     OW25768   3.887   6.488   0.970  0.2865 -0.0602 -0.4578
 8397SOL    HW125769   3.798   6.519   0.952  0.3559  1.0687  0.9782
 8397SOL    HW225770   3.876   6.423   1.039  0.4368 -1.0786 -1.3800
 8398SOL     OW25771   8.206   8.353   9.440  0.7165 -0.1163  0.0394
 8398SOL    HW125772   8.164   8.310   9.515 -1.7298  1.3384 -0.4017
 8398SOL    HW225773   8.163   8.315   9.364 -0.3768  1.8738 -0.4099
 8399SOL     OW25774   3.231   1.243   9.828  0.3031 -0.2406  0.1108
 8399SOL    HW125775   3.276   1.179   9.883 -1.0864 -2.0672 -0.7878
 8399SOL    HW225776   3.219   1.199   9.744 -0.9755  1.0796 -0.4507
 8400SOL     OW25777   2.453   6.460   5.391 -1.0881 -0.2720  0.5209
 8400SOL    HW125778   2.359   6.476   5.395 -0.9852  0.7747 -0.6194
 8400SOL    HW225779   2.493   6.541   5.424 -0.5834 -0.2266 -0.1776
 8401SOL     OW25780   9.636   2.725   0.677  0.0611  0.0550 -0.5485
 8401SOL    HW125781   9.727   2.744   0.655  0.1842 -1.6412 -1.6760
 8401SOL    HW225782   9.592   2.718   0.593 -0.8927 -0.2209 -0.0428
 8402SOL     OW25783   8.131   2.574   3.343  0.0861  0.0587  0.2320
 8402SOL    HW125784   8.225   2.588   3.337  0.3420 -1.4914  0.1214
 8402SOL    HW225785   8.108   2.604   3.431  0.7173  0.2829  0.3265
 8403SOL     OW25786   4.994   7.946   7.687  0.8497  0.3590 -0.0783
 8403SOL    HW125787   5.072   7.942   7.743  0.0506 -0.1031  1.0346
 8403SOL    HW225788   4.924   7.907   7.740 -0.2094  1.0206 -0.9407
 8404SOL     OW25789   0.685   4.444   4.548 -0.4067 -0.5484 -0.7415
 8404SOL    HW125790   0.703   4.384   4.476 -1.0093 -1.1684 -0.3955
 8404SOL    HW225791   0.750   4.513   4.539  1.3433 -2.0630 -0.2191
 8405SOL     OW25792   9.941   4.875   6.110  0.6368 -0.1997  0.1667
 8405SOL    HW125793   9.953   4.815   6.036  0.7674 -1.5173  1.2171
 8405SOL    HW225794  10.030   4.894   6.140  0.5447 -0.6784  0.7582
 8406SOL     OW25795   0.974   8.095   6.484  0.4305  0.0112 -0.5321
 8406SOL    HW125796   1.013   8.007   6.478 -0.2161 -0.3083 -0.1151
 8406SOL    HW225797   1.044   8.149   6.520  0.8444 -0.3242 -0.8123
 8407SOL     OW25798   6.356   0.182   9.677  0.4447 -0.1055  0.4126
 8407SOL    HW125799   6.356   0.212   9.768  0.1695  0.2236  0.3047
 8407SOL    HW225800   6.264   0.181   9.652  0.5941  1.2893 -0.3397
 8408SOL     OW25801   4.436   6.243   3.686  0.1982  0.0509  0.5401
 8408SOL    HW125802   4.354   6.273   3.726  1.8048  1.4114  3.0108
 8408SOL    HW225803   4.408   6.179   3.621 -2.9195  1.4927  0.2704
 8409SOL     OW25804   0.521   6.355   3.717 -0.1471 -0.1190 -0.3417
 8409SOL    HW125805   0.464   6.351   3.795 -1.9072  0.1283 -1.5479
 8409SOL    HW225806   0.567   6.438   3.725  0.2345 -0.4221  0.7777
 8410SOL     OW25807   5.833   6.266   5.702 -0.4054  0.5579 -0.6179
 8410SOL    HW125808   5.817   6.354   5.667 -1.8312  1.4039  1.9147
 8410SOL    HW225809   5.747   6.223   5.700 -0.2451  0.1484  0.4433
 8411SOL     OW25810   5.224   8.730   2.761 -0.0615  0.8994 -0.1839
 8411SOL    HW125811   5.154   8.670   2.735 -0.1418  0.2453  1.4050
 8411SOL    HW225812   5.299   8.703   2.708  0.3074 -1.6199  1.4203
 8412SOL     OW25813   7.092   3.399   7.005 -0.1471 -0.3164  0.5689
 8412SOL    HW125814   7.053   3.421   6.921  1.1362 -0.5495 -0.1095
 8412SOL    HW225815   7.037   3.443   7.069 -1.4573 -0.5710 -0.3455
 8413SOL     OW25816   3.701   6.484   2.112 -0.0534  0.0550 -0.3392
 8413SOL    HW125817   3.774   6.443   2.065 -0.5647 -1.4903  0.1634
 8413SOL    HW225818   3.719   6.467   2.204 -0.3521  0.8775 -0.1188
 8414SOL     OW25819   4.723   1.579   4.379 -0.2279 -0.1569 -0.0108
 8414SOL    HW125820   4.647   1.593   4.435  0.0689  2.6388 -0.1677
 8414SOL    HW225821   4.714   1.644   4.309  1.8980 -0.2822 -0.4737
 8415SOL     OW25822   8.690   7.233   5.622  0.0081  0.6264  0.0125
 8415SOL    HW125823   8.705   7.291   5.697  0.5869  0.5020 -0.0036
 8415SOL    HW225824   8.752   7.161   5.635  0.3971  0.8077 -0.8074
 8416SOL     OW25825   2.050   4.060   7.033 -0.1401 -0.1378 -0.3316
 8416SOL    HW125826   2.012   4.139   6.994  0.5744  0.2983 -0.1644
 8416SOL    HW225827   1.977   3.999   7.039 -0.5020  0.1721 -1.3401
 8417SOL     OW25828   6.638   3.990   1.509 -0.2674 -0.1211 -0.1473
 8417SOL    HW125829   6.596   3.958   1.589 -0.4979  1.7215  0.5237
 8417SOL    HW225830   6.651   3.912   1.455 -1.0453 -1.2594  1.2543
 8418SOL     OW25831   7.527   4.929   0.305 -0.3119  0.2265  0.0041
 8418SOL    HW125832   7.453   4.988   0.318  1.5188  3.0169 -1.2663
 8418SOL    HW225833   7.552   4.901   0.393 -2.8604 -0.8919  0.4473
 8419SOL     OW25834   6.030   0.253   5.021  0.5068 -0.6340 -0.6692
 8419SOL    HW125835   5.969   0.256   4.947 -2.4444 -0.2400  1.5495
 8419SOL    HW225836   6.057   0.344   5.033  0.7315 -0.6468 -1.0716
 8420SOL     OW25837   0.874   6.049   7.650  0.0769  0.1322 -0.2821
 8420SOL    HW125838   0.881   6.100   7.569  1.8239 -0.5943 -0.6205
 8420SOL    HW225839   0.856   5.960   7.621  0.2942 -0.0541  0.1512
 8421SOL     OW25840   7.984   8.674   9.488  0.4903 -0.3986  0.1404
 8421SOL    HW125841   7.919   8.701   9.423  1.3351 -0.3398 -0.6931
 8421SOL    HW225842   7.953   8.712   9.570  0.1514  0.7245 -0.4860
 8422SOL     OW25843   1.104   9.082   2.327 -0.0503  0.2792 -0.4675
 8422SOL    HW125844   1.173   9.124   2.379  0.3770 -0.1292 -0.6991
 8422SOL    HW225845   1.022   9.112   2.367  0.2733 -0.2398  0.6042
 8423SOL     OW25846   2.077   8.164   7.562 -0.9095  0.0125  0.4629
 8423SOL    HW125847   2.080   8.221   7.639  1.5589  1.2647 -0.4556
 8423SOL    HW225848   2.129   8.209   7.496 -2.3000 -1.3982 -1.7340
 8424SOL     OW25849   6.200   7.047   9.150  0.3357 -0.6228  0.4776
 8424SOL    HW125850   6.291   7.069   9.129 -0.3939  1.6393 -0.6207
 8424SOL    HW225851   6.162   7.019   9.067 -0.7130  1.4476  0.1888
 8425SOL     OW25852   4.190   2.168   9.170 -0.6563 -0.3942 -0.0764
 8425SOL    HW125853   4.246   2.236   9.208 -0.9603  0.0612 -0.4347
 8425SOL    HW225854   4.146   2.212   9.097 -1.1104 -0.8875 -0.1007
 8426SOL     OW25855   5.418   7.192   7.941  0.5357  0.1375 -0.1436
 8426SOL    HW125856   5.464   7.109   7.927  1.2560  0.6981 -1.1966
 8426SOL    HW225857   5.427   7.207   8.035  2.1364 -0.0123 -0.2349
 8427SOL     OW25858   5.993   5.250   4.343 -0.2041  0.3304 -0.3126
 8427SOL    HW125859   6.051   5.255   4.419 -2.8680 -0.2046  1.9314
 8427SOL    HW225860   5.950   5.336   4.340 -0.6058  0.1177 -0.8069
 8428SOL     OW25861   1.427   5.970   2.383  0.0647 -0.1283 -0.1851
 8428SOL    HW125862   1.363   5.903   2.406 -0.2306  0.0977 -0.3486
 8428SOL    HW225863   1.379   6.032   2.329  0.1240  0.6530  0.6360
 8429SOL     OW25864   6.463   3.920   7.396 -0.2286 -0.2854 -0.0153
 8429SOL    HW125865   6.479   3.871   7.316  1.3341 -1.8545  1.1552
 8429SOL    HW225866   6.378   3.889   7.427 -0.3426 -0.4638 -0.4993
 8430SOL     OW25867   3.734   6.224   8.439 -0.1975  0.4074 -0.0304
 8430SOL    HW125868   3.714   6.298   8.496  0.2846  0.0280  0.6332
 8430SOL    HW225869   3.830   6.217   8.441 -0.2046  0.0868 -0.5047
 8431SOL     OW25870   1.049   2.338   4.779 -0.7128 -0.1016  0.2479
 8431SOL    HW125871   1.071   2.406   4.716 -1.2060  0.9374  1.1512
 8431SOL    HW225872   1.056   2.256   4.730  0.3059  0.5522 -0.7624
 8432SOL     OW25873   8.290   3.961   8.864 -0.3777  0.7767 -0.1890
 8432SOL    HW125874   8.213   3.919   8.825  0.7378  0.7122 -2.4647
 8432SOL    HW225875   8.254   4.025   8.924 -2.2957  1.5627 -2.0548
 8433SOL     OW25876   7.808   7.520   6.660 -0.6078 -0.1075  0.4075
 8433SOL    HW125877   7.882   7.467   6.633 -1.0315  0.1344 -1.3491
 8433SOL    HW225878   7.736   7.458   6.671 -1.2091  0.0745 -2.0385
 8434SOL     OW25879   9.223   4.448   9.908  0.1967  0.2913  0.3419
 8434SOL    HW125880   9.221   4.382   9.977  0.5067  1.0734  1.1124
 8434SOL    HW225881   9.170   4.410   9.838  2.2782 -1.8169 -0.2257
 8435SOL     OW25882   2.234   0.713   7.098  0.6138  0.9986  0.2365
 8435SOL    HW125883   2.286   0.647   7.145  0.2663  1.4535  1.3081
 8435SOL    HW225884   2.162   0.734   7.158 -0.8333  0.3823 -1.2085
 8436SOL     OW25885   5.831   0.517   5.036 -0.0416  0.0322 -0.1031
 8436SOL    HW125886   5.896   0.585   5.021  0.1032 -0.0733  0.0467
 8436SOL    HW225887   5.820   0.514   5.131 -0.7494  0.5030 -0.1607
 8437SOL     OW25888   9.928   2.173   2.600  0.4349  0.4863  1.3903
 8437SOL    HW125889  10.010   2.178   2.650  2.0777 -1.2184 -0.8920
 8437SOL    HW225890   9.952   2.205   2.513 -1.3172 -0.0712  0.6619
 8438SOL     OW25891   0.422   3.601   5.955 -0.2485  0.1396  0.2877
 8438SOL    HW125892   0.353   3.639   5.900 -0.5895 -0.3375  0.3762
 8438SOL    HW225893   0.497   3.594   5.897 -0.3063  0.5623  0.1581
 8439SOL     OW25894   3.369   5.575   6.423 -0.3968  0.0911 -0.3045
 8439SOL    HW125895   3.278   5.548   6.434 -0.8294  1.1279 -1.0748
 8439SOL    HW225896   3.364   5.649   6.362  0.9330  0.3670 -0.1075
 8440SOL     OW25897   1.871   7.263   6.715 -0.2225  0.7158 -0.4554
 8440SOL    HW125898   1.809   7.336   6.714 -0.1428  0.7828 -0.8058
 8440SOL    HW225899   1.907   7.262   6.803 -0.9231  0.5113 -0.1704
 8441SOL     OW25900   9.947   1.293   5.884 -0.1548 -0.0963  0.1169
 8441SOL    HW125901   9.946   1.209   5.837 -0.2468 -0.0738  0.0794
 8441SOL    HW225902  10.026   1.336   5.853 -2.3360  1.8181 -3.3637
 8442SOL     OW25903   4.832   8.497   1.518  0.6345 -0.1982  0.0124
 8442SOL    HW125904   4.920   8.497   1.481  0.2873  0.0395 -0.8353
 8442SOL    HW225905   4.783   8.436   1.464  0.3751 -0.6296  0.7273
 8443SOL     OW25906   6.220   1.787   4.504  0.2463 -0.2301 -0.3379
 8443SOL    HW125907   6.169   1.707   4.497 -1.3752  0.7397 -0.1020
 8443SOL    HW225908   6.213   1.829   4.418 -1.4347  1.0810  0.3918
 8444SOL     OW25909   0.022   8.877   8.888  0.2222  0.2002 -0.2412
 8444SOL    HW125910   0.048   8.852   8.800 -0.2144 -0.2258 -0.2518
 8444SOL    HW225911  -0.038   8.950   8.876 -2.4262 -1.8942 -0.5145
 8445SOL     OW25912   4.889   6.709   9.336 -0.4681  0.2253  0.4500
 8445SOL    HW125913   4.844   6.781   9.380 -0.7851  0.8674 -0.9075
 8445SOL    HW225914   4.981   6.737   9.333 -0.4097  0.0921  0.8495
 8446SOL     OW25915   2.185   2.467   3.980  0.1737 -0.3889  0.3265
 8446SOL    HW125916   2.112   2.471   4.041 -0.6303  0.6184 -0.6466
 8446SOL    HW225917   2.145   2.485   3.894  1.5716  0.2910 -0.2122
 8447SOL     OW25918   5.485   1.841   8.406 -0.3540  0.1330  0.5828
 8447SOL    HW125919   5.429   1.779   8.359  0.9589 -0.2428 -0.5403
 8447SOL    HW225920   5.481   1.811   8.497 -1.1185 -0.5413  0.3435
 8448SOL     OW25921   0.559   6.412   2.397 -0.1098 -0.4498 -0.0709
 8448SOL    HW125922   0.470   6.379   2.386 -0.2368 -0.0410 -0.3180
 8448SOL    HW225923   0.597   6.408   2.310  0.1092 -0.6147  0.0336
 8449SOL     OW25924   8.527   7.100   6.242  0.3478 -0.3713 -0.1163
 8449SOL    HW125925   8.442   7.108   6.284 -0.0116 -0.1676 -0.8609
 8449SOL    HW225926   8.521   7.018   6.191  0.5954 -0.3592 -0.1675
 8450SOL     OW25927   3.088   9.472   6.291  0.0908 -0.4763 -0.4808
 8450SOL    HW125928   3.095   9.524   6.212 -0.3438 -0.4793 -0.5249
 8450SOL    HW225929   3.173   9.430   6.300  0.3658  0.0596 -0.5699
 8451SOL     OW25930   5.565   5.703   1.646 -0.3142 -0.9200  0.3299
 8451SOL    HW125931   5.658   5.702   1.621 -0.0945 -1.2743  1.1223
 8451SOL    HW225932   5.530   5.783   1.608  0.5975 -0.1906  0.9882
 8452SOL     OW25933   2.407   7.048   7.811 -0.1838  0.2227 -0.4225
 8452SOL    HW125934   2.393   6.978   7.748 -2.5792  1.3411 -1.2917
 8452SOL    HW225935   2.323   7.096   7.812  1.1779  2.8018  0.4242
 8453SOL     OW25936   1.108   2.771   9.732 -0.1888  0.1299  0.0052
 8453SOL    HW125937   1.168   2.698   9.747 -0.2091  0.1961  0.4364
 8453SOL    HW225938   1.139   2.813   9.652 -0.0051 -0.1797 -0.0873
 8454SOL     OW25939   8.801   8.616   4.173  0.1062  0.3214  0.2334
 8454SOL    HW125940   8.814   8.656   4.086  2.2383  1.3919  0.9572
 8454SOL    HW225941   8.714   8.645   4.199 -0.2277  0.7035 -1.1757
 8455SOL     OW25942   7.456   6.277   6.977  0.5484 -0.1880  0.1605
 8455SOL    HW125943   7.481   6.192   7.011  0.1236  0.2093  1.5098
 8455SOL    HW225944   7.525   6.337   7.006 -0.5917  0.4366  1.7009
 8456SOL     OW25945   9.259   1.817   7.755  0.3315  0.5672  0.0006
 8456SOL    HW125946   9.207   1.745   7.790  3.1270 -1.0286  1.2052
 8456SOL    HW225947   9.326   1.775   7.701  0.2160  2.5393 -1.8041
 8457SOL     OW25948   5.533   4.795   2.589 -0.1955  0.9696  0.5774
 8457SOL    HW125949   5.552   4.861   2.522  1.5878 -0.0148  0.0370
 8457SOL    HW225950   5.593   4.815   2.660 -0.0839  0.3121  0.6733
 8458SOL     OW25951   8.526   1.609   9.194  0.4072  0.2279 -0.0643
 8458SOL    HW125952   8.579   1.624   9.116 -1.3771  0.0449 -1.3665
 8458SOL    HW225953   8.542   1.517   9.217  0.0902 -0.0448 -0.9000
 8459SOL     OW25954   0.598   7.932   9.454 -0.1011  0.6916 -0.5590
 8459SOL    HW125955   0.687   7.953   9.482 -0.0651  0.2749 -0.3463
 8459SOL    HW225956   0.593   7.961   9.363  0.1270  1.0786 -0.4489
 8460SOL     OW25957   8.207   2.096   5.145  0.1603  0.1202 -0.1751
 8460SOL    HW125958   8.270   2.134   5.206  0.0966  0.0499 -0.0643
 8460SOL    HW225959   8.232   2.130   5.059 -1.0268  1.9150  0.1393
 8461SOL     OW25960   0.904   1.532   9.368  0.2721  0.0444  0.3200
 8461SOL    HW125961   0.846   1.544   9.443 -0.3149 -1.2792  0.1164
 8461SOL    HW225962   0.933   1.441   9.374  1.6254  0.4260 -0.0957
 8462SOL     OW25963   3.182   6.404   4.169  0.6002  0.1968 -0.1226
 8462SOL    HW125964   3.185   6.486   4.120 -1.1128  0.0440 -0.5656
 8462SOL    HW225965   3.093   6.402   4.205  0.5043 -1.6177 -0.4000
 8463SOL     OW25966   6.255   2.979   1.380 -0.0395 -0.3330 -0.2291
 8463SOL    HW125967   6.343   3.009   1.404  0.8315 -0.8889 -2.4786
 8463SOL    HW225968   6.200   3.057   1.390  0.8893  0.2799  0.2717
 8464SOL     OW25969   9.501   2.472   1.128  0.1059 -0.6283  0.1189
 8464SOL    HW125970   9.524   2.383   1.102 -1.3509 -1.1093  0.3878
 8464SOL    HW225971   9.476   2.515   1.047  0.0891 -0.6958  0.0886
 8465SOL     OW25972   6.477   3.327   2.601 -0.3530 -1.2624  0.1904
 8465SOL    HW125973   6.420   3.355   2.672  0.6458  1.4415  0.0407
 8465SOL    HW225974   6.555   3.382   2.610  0.2969 -1.6580 -2.2763
 8466SOL     OW25975   9.791   9.060   7.474  0.4730 -0.3677  0.0404
 8466SOL    HW125976   9.765   9.061   7.382 -1.4899 -2.1294  0.4946
 8466SOL    HW225977   9.727   9.116   7.517 -0.4879 -1.9236  0.7039
 8467SOL     OW25978   5.041   1.971   4.189  0.2085  0.0951 -0.0610
 8467SOL    HW125979   5.086   1.942   4.268 -0.5520 -3.3632 -0.7187
 8467SOL    HW225980   5.106   1.962   4.119 -0.2601 -0.9765 -0.3924
 8468SOL     OW25981   4.545   6.044   3.178 -0.0718  0.2395 -0.1260
 8468SOL    HW125982   4.457   6.009   3.171  0.5440 -1.3076 -0.4970
 8468SOL    HW225983   4.575   6.017   3.265  0.4450 -0.2311 -0.4479
 8469SOL     OW25984   8.271   5.421   0.214  0.7419  0.6477  0.4494
 8469SOL    HW125985   8.204   5.448   0.276 -0.6637  0.0724 -0.7484
 8469SOL    HW225986   8.341   5.485   0.224 -0.3177  1.7280  1.2012
 8470SOL     OW25987   7.119   0.046   8.536 -0.4362  0.1599 -0.3753
 8470SOL    HW125988   7.201   0.013   8.573 -0.1607 -0.3725 -1.4441
 8470SOL    HW225989   7.104   0.129   8.582 -0.5189 -0.8339  1.4841
 8471SOL     OW25990   0.912   0.318   3.040 -0.0111  0.3603  0.0574
 8471SOL    HW125991   0.843   0.268   2.996  1.3627 -3.6536  1.9175
 8471SOL    HW225992   0.872   0.348   3.122  0.0199 -0.8861  0.5587
 8472SOL     OW25993   8.411   6.627   0.558 -0.4830 -0.7761 -0.0695
 8472SOL    HW125994   8.433   6.554   0.501  0.3553 -0.9046  0.4040
 8472SOL    HW225995   8.419   6.593   0.647  0.6036  0.0596  0.1774
 8473SOL     OW25996   4.523   1.345   9.690 -0.3191 -0.5544 -0.4323
 8473SOL    HW125997   4.429   1.346   9.708 -0.1470 -0.3354  0.5416
 8473SOL    HW225998   4.538   1.421   9.635 -0.4965  0.3301  0.6950
 8474SOL     OW25999   1.511   2.771   9.839 -0.6385 -1.0096  0.0979
 8474SOL    HW126000   1.448   2.716   9.887  1.2385 -1.5519  2.1518
 8474SOL    HW226001   1.571   2.708   9.799  0.2554 -0.5052  0.6147
 8475SOL     OW26002   9.344   5.882   4.139  0.1796  0.2821  0.3015
 8475SOL    HW126003   9.309   5.847   4.220  0.9619  0.9377  0.9366
 8475SOL    HW226004   9.291   5.960   4.122 -0.5027 -0.2889 -0.2531
 8476SOL     OW26005   3.351   8.638   7.756 -0.3153 -0.0592  0.2317
 8476SOL    HW126006   3.395   8.567   7.803 -1.4430  0.0011  1.4214
 8476SOL    HW226007   3.387   8.718   7.795 -0.2350  0.0036  0.0271
 8477SOL     OW26008   7.182   7.329   7.957  0.4486 -0.1496  0.0923
 8477SOL    HW126009   7.171   7.424   7.947  0.1870 -0.0863  0.8949
 8477SOL    HW226010   7.267   7.310   7.918  1.8136  0.8615  2.3613
 8478SOL     OW26011   8.793   8.205   0.281 -0.0239 -0.0408 -0.0353
 8478SOL    HW126012   8.725   8.166   0.337  1.0149 -0.5711  0.9125
 8478SOL    HW226013   8.813   8.289   0.323  1.4087 -0.8457  0.9735
 8479SOL     OW26014   7.490   8.877   3.707 -0.0055 -0.0714 -0.3146
 8479SOL    HW126015   7.436   8.956   3.709 -0.4914 -0.4016 -0.2852
 8479SOL    HW226016   7.487   8.847   3.616 -0.8326 -0.7338 -0.0889
 8480SOL     OW26017   6.686   8.651   7.257 -0.0397  0.0176  0.3326
 8480SOL    HW126018   6.703   8.556   7.261 -3.6176 -0.8513 -1.4515
 8480SOL    HW226019   6.771   8.689   7.236  1.7389 -2.6312  2.0244
 8481SOL     OW26020   6.691   7.940   1.654  0.0212  0.2617  0.0598
 8481SOL    HW126021   6.701   8.011   1.591 -2.4393 -1.4063 -2.4278
 8481SOL    HW226022   6.658   7.982   1.733 -1.2409  1.9273 -1.2955
 8482SOL     OW26023   9.908   1.079   9.786 -0.4192 -0.7023 -0.4001
 8482SOL    HW126024   9.974   1.013   9.806  0.2760 -0.0047 -0.3393
 8482SOL    HW226025   9.891   1.122   9.870  1.1011  0.9588 -0.8897
 8483SOL     OW26026   2.073   6.613   2.151 -0.3163 -0.1897  0.5588
 8483SOL    HW126027   2.034   6.579   2.071 -1.4661 -2.1398  1.8611
 8483SOL    HW226028   2.128   6.542   2.183  0.9398  0.9435  0.9882
 8484SOL     OW26029   7.025   8.435   5.451 -0.4596 -0.5836  0.1242
 8484SOL    HW126030   7.070   8.501   5.504 -0.6427  1.2917 -1.9403
 8484SOL    HW226031   7.089   8.365   5.441  1.5974  1.4149 -1.5956
 8485SOL     OW26032   6.500   1.662   9.913  0.4129  0.0866  0.2944
 8485SOL    HW126033   6.487   1.753   9.940 -0.2747 -0.0587  0.4946
 8485SOL    HW226034   6.412   1.631   9.891  0.7251 -0.3462 -0.3779
 8486SOL     OW26035   6.508   9.496   4.525  0.1717  0.4379 -0.1377
 8486SOL    HW126036   6.518   9.414   4.477  0.8269 -0.9534  2.2383
 8486SOL    HW226037   6.571   9.555   4.485  0.1662 -0.3942 -1.4523
 8487SOL     OW26038   1.793   4.804   6.640 -0.2296  0.1376 -0.2973
 8487SOL    HW126039   1.877   4.840   6.670 -0.4517  0.7535 -0.4083
 8487SOL    HW226040   1.727   4.862   6.676 -0.7657 -1.4911  1.5181
 8488SOL     OW26041   0.073   8.565   3.894  0.1347  0.1888 -0.1737
 8488SOL    HW126042   0.096   8.654   3.869 -0.4536  0.2735 -0.4176
 8488SOL    HW226043  -0.013   8.572   3.934  0.8242 -0.0232  1.4172
 8489SOL     OW26044   1.348   3.810   2.262 -0.2353  0.2330 -0.2897
 8489SOL    HW126045   1.377   3.838   2.349  0.8841 -2.5768  0.3540
 8489SOL    HW226046   1.374   3.882   2.204  0.8380  1.2819  1.4021
 8490SOL     OW26047   3.902   7.872   2.817  0.0297 -0.3790 -0.0809
 8490SOL    HW126048   3.839   7.831   2.876  1.9985 -1.4740  1.3860
 8490SOL    HW226049   3.874   7.963   2.811  0.2597  0.0513  3.4165
 8491SOL     OW26050   0.198   3.879   3.108  0.7326 -0.3515 -0.1946
 8491SOL    HW126051   0.200   3.791   3.146 -0.4392  0.0346  0.8279
 8491SOL    HW226052   0.111   3.912   3.130  1.2669  1.1772 -0.3059
 8492SOL     OW26053   3.778   0.973   3.691 -0.1287  0.1211  0.9915
 8492SOL    HW126054   3.795   0.899   3.749  2.4964 -1.4698 -1.5294
 8492SOL    HW226055   3.713   0.940   3.628  1.2836 -0.2642 -0.3332
 8493SOL     OW26056   8.748   0.037   7.162 -0.0339 -0.2450  0.3898
 8493SOL    HW126057   8.652   0.047   7.162  0.0369  0.6528  1.2974
 8493SOL    HW226058   8.766  -0.017   7.238  0.1830 -0.4272  0.2095
 8494SOL     OW26059   4.967   7.795   4.932  0.1247  0.3764 -0.4907
 8494SOL    HW126060   4.987   7.734   4.862  0.8816 -0.0904  0.1272
 8494SOL    HW226061   4.989   7.749   5.013 -2.1854  0.3007  0.1958
 8495SOL     OW26062   3.689   0.353   7.727 -0.3454 -0.0089 -0.1733
 8495SOL    HW126063   3.642   0.322   7.804  0.7032  2.0089  1.3842
 8495SOL    HW226064   3.630   0.337   7.654 -1.1919 -2.4301  0.9466
 8496SOL     OW26065   6.800   5.899   9.440  0.6824 -0.5323 -0.1280
 8496SOL    HW126066   6.862   5.832   9.467 -1.5167 -2.3770  0.6157
 8496SOL    HW226067   6.805   5.900   9.344  1.0915 -1.4071 -0.1213
 8497SOL     OW26068   7.014   3.184   8.097 -0.4522  0.3822  0.0098
 8497SOL    HW126069   6.937   3.240   8.112 -0.7382  0.4131 -1.3969
 8497SOL    HW226070   6.986   3.097   8.125 -0.8393  0.4788 -0.0658
 8498SOL     OW26071   1.173   6.628   1.835 -0.3217  0.6206 -0.7823
 8498SOL    HW126072   1.150   6.621   1.928 -1.1548 -1.6002 -1.0940
 8498SOL    HW226073   1.269   6.632   1.835 -0.3249  1.2194  0.1735
 8499SOL     OW26074   0.679   8.468   1.942 -0.1966 -0.1186  0.5659
 8499SOL    HW126075   0.712   8.558   1.935  0.4993 -0.2877  1.5632
 8499SOL    HW226076   0.622   8.458   1.865 -0.0691  1.0791  0.2940
 8500SOL     OW26077   8.740   1.352   3.293 -0.5310 -0.1151 -0.3750
 8500SOL    HW126078   8.756   1.343   3.387  1.1536  0.7768 -0.5389
 8500SOL    HW226079   8.733   1.446   3.279 -1.9199 -0.2959 -0.9904
 8501SOL     OW26080   9.372   9.463   5.445  0.3925 -0.0052  0.1373
 8501SOL    HW126081   9.369   9.524   5.372 -1.4673 -0.1685  0.0256
 8501SOL    HW226082   9.346   9.515   5.521  0.5799 -0.2339  0.3582
 8502SOL     OW26083   7.459   6.531   7.283  0.3107 -0.0140 -0.0153
 8502SOL    HW126084   7.512   6.518   7.205  0.7666  0.2433  0.2449
 8502SOL    HW226085   7.485   6.460   7.342 -0.2549 -0.3904 -0.2119
 8503SOL     OW26086   8.055   6.608   0.822 -0.6069 -0.2283 -0.5198
 8503SOL    HW126087   8.123   6.615   0.890 -1.0399 -2.5693  0.2627
 8503SOL    HW226088   7.985   6.558   0.864 -0.5482 -2.5226 -2.8781
 8504SOL     OW26089   6.862   8.117   8.162  0.4758 -0.1866 -0.0315
 8504SOL    HW126090   6.900   8.086   8.080  1.2135  0.3386  0.1016
 8504SOL    HW226091   6.853   8.211   8.150  1.6487  0.0633  0.9000
 8505SOL     OW26092   2.904   9.862   3.205 -0.5592  0.3439  0.1245
 8505SOL    HW126093   2.861   9.935   3.250 -1.5277  1.5146 -2.5204
 8505SOL    HW226094   2.847   9.841   3.132  0.5396 -2.0098 -0.1683
 8506SOL     OW26095   4.895   7.036   5.890  0.1891 -0.0267 -0.1265
 8506SOL    HW126096   4.811   7.079   5.905 -0.7260 -0.6347 -2.9476
 8506SOL    HW226097   4.877   6.971   5.823  2.4875 -1.7512  0.7955
 8507SOL     OW26098   5.857   6.915   0.802 -0.4696 -0.2925 -0.1958
 8507SOL    HW126099   5.878   6.855   0.874 -3.6865 -1.6516 -0.2513
 8507SOL    HW226100   5.763   6.907   0.791 -0.3564  1.3655 -3.3059
 8508SOL     OW26101   1.444   6.589   1.787  0.3693 -0.2175 -0.6734
 8508SOL    HW126102   1.490   6.540   1.855  1.8831  2.4146  0.3281
 8508SOL    HW226103   1.447   6.532   1.710  1.5987 -1.8621  0.5297
 8509SOL     OW26104   3.973   0.270   0.872  0.2670 -0.2318  0.4561
 8509SOL    HW126105   3.902   0.317   0.830  1.2351  1.9355  1.1153
 8509SOL    HW226106   4.003   0.207   0.806 -0.9509  0.1836 -0.5285
 8510SOL     OW26107   6.541   7.880   6.753 -0.1566 -0.1080 -0.3114
 8510SOL    HW126108   6.522   7.817   6.683 -1.4887 -0.9812  0.8075
 8510SOL    HW226109   6.599   7.832   6.813  0.3363  0.3780 -0.3875
 8511SOL     OW26110   4.993   7.059   5.067  0.0064 -0.0235  0.0992
 8511SOL    HW126111   4.904   7.066   5.101 -0.0424  1.5447 -0.2716
 8511SOL    HW226112   4.999   6.969   5.033 -0.9596 -0.5972  1.3537
 8512SOL     OW26113   3.937   6.460   2.882 -0.1755 -0.6002 -0.4500
 8512SOL    HW126114   3.884   6.411   2.819  0.5192 -1.4104 -0.4242
 8512SOL    HW226115   3.967   6.394   2.945  0.3621 -0.0544 -0.1234
 8513SOL     OW26116   6.738   2.377   9.567  0.2932 -0.4329 -0.1391
 8513SOL    HW126117   6.797   2.305   9.543  1.8137  1.2902 -1.9517
 8513SOL    HW226118   6.795   2.454   9.572 -1.5665  1.0366 -0.4055
 8514SOL     OW26119   8.210   6.738   2.811 -0.0986  0.0806  0.0052
 8514SOL    HW126120   8.243   6.708   2.726 -0.1041  0.9179 -0.3020
 8514SOL    HW226121   8.160   6.664   2.845 -2.0674  0.4853 -1.7779
 8515SOL     OW26122   0.477   4.708   7.595 -0.4317  0.0395  0.3034
 8515SOL    HW126123   0.508   4.781   7.650 -2.8913  0.5958  1.0577
 8515SOL    HW226124   0.541   4.639   7.611  0.9359  1.3901  1.0382
 8516SOL     OW26125   1.047   5.640   7.539  0.3008  0.0399  0.2465
 8516SOL    HW126126   1.140   5.662   7.544  0.1089  0.9808 -0.1595
 8516SOL    HW226127   1.043   5.548   7.568  1.2954  0.1062  0.6475
 8517SOL     OW26128   1.288   3.264   1.431 -0.0906 -0.1541  0.4791
 8517SOL    HW126129   1.212   3.206   1.437  0.5610 -0.9676  1.1090
 8517SOL    HW226130   1.258   3.337   1.377 -1.3603 -0.3896  0.8253
 8518SOL     OW26131   0.877   0.251   1.359  0.3731  0.0056  0.3977
 8518SOL    HW126132   0.830   0.305   1.422 -1.4481 -0.7254 -0.2661
 8518SOL    HW226133   0.862   0.294   1.275  0.0431 -0.7770  0.0471
 8519SOL     OW26134   4.138   0.495   7.314 -0.5744 -0.5615  0.7806
 8519SOL    HW126135   4.121   0.464   7.403  0.3822  0.4945  1.3698
 8519SOL    HW226136   4.188   0.576   7.327 -0.9723 -0.0528 -0.7162
 8520SOL     OW26137   8.332   9.198   5.530  0.1282 -0.2732 -0.1904
 8520SOL    HW126138   8.368   9.124   5.579  0.1216 -0.7954 -0.9640
 8520SOL    HW226139   8.391   9.208   5.455 -1.0384 -0.8146 -1.2035
 8521SOL     OW26140   0.842   6.346   6.165  0.1270  0.4231 -0.9055
 8521SOL    HW126141   0.885   6.270   6.125  0.1025  0.3513 -0.7946
 8521SOL    HW226142   0.806   6.394   6.090  0.8068  0.7388 -1.0348
 8522SOL     OW26143   3.781   1.337   1.963  0.0317 -0.1698 -0.6264
 8522SOL    HW126144   3.821   1.396   2.027 -1.6873 -0.7551  1.1000
 8522SOL    HW226145   3.796   1.379   1.878 -0.9890  2.7197  0.4991
 8523SOL     OW26146   6.582   1.581   6.180 -0.3364  0.4124 -0.0307
 8523SOL    HW126147   6.578   1.495   6.221 -0.2404  1.2706  1.9010
 8523SOL    HW226148   6.497   1.620   6.197  0.1873  1.3214  0.6296
 8524SOL     OW26149   9.264   2.669   8.258  0.2495 -0.2225  0.5770
 8524SOL    HW126150   9.200   2.628   8.316 -1.6987 -0.0315 -1.3431
 8524SOL    HW226151   9.307   2.595   8.214 -1.3162 -0.3205 -0.8541
 8525SOL     OW26152   1.822   6.012   3.163 -0.0411 -0.9221 -0.5547
 8525SOL    HW126153   1.738   5.970   3.145 -1.0986 -0.4619  2.6189
 8525SOL    HW226154   1.817   6.096   3.117 -1.0519 -1.1735 -0.9359
 8526SOL     OW26155   6.465   5.294   9.379  0.4588  0.3423  0.5248
 8526SOL    HW126156   6.396   5.334   9.326 -0.5548  0.4770  1.8769
 8526SOL    HW226157   6.514   5.368   9.414  1.6567  0.2382 -0.8345
 8527SOL     OW26158   7.874   5.864   3.358  0.2749 -0.0625  0.0590
 8527SOL    HW126159   7.912   5.944   3.395  0.6286 -1.0677  1.9586
 8527SOL    HW226160   7.925   5.793   3.397  0.4089 -1.2420 -2.0921
 8528SOL     OW26161   5.917   9.882   3.545 -0.3463 -0.4437 -0.6781
 8528SOL    HW126162   5.838   9.855   3.498 -0.3477 -1.0811 -0.3357
 8528SOL    HW226163   5.964   9.800   3.560  0.8420  0.0366 -1.6719
 8529SOL     OW26164   3.088   9.782   6.851  0.4478 -0.5864 -0.1658
 8529SOL    HW126165   3.019   9.738   6.901  1.0516  0.1118  1.3373
 8529SOL    HW226166   3.165   9.778   6.908  0.8467  1.2843 -0.5152
 8530SOL     OW26167   2.803   0.767   7.426  0.5203  0.0680 -0.7445
 8530SOL    HW126168   2.739   0.761   7.354 -1.0490  0.2582  0.5873
 8530SOL    HW226169   2.835   0.857   7.423  2.7227 -0.6636 -2.9896
 8531SOL     OW26170   2.935   7.872   7.884  0.1876 -0.2174  0.2071
 8531SOL    HW126171   2.898   7.814   7.950 -1.6620  1.0430  0.3393
 8531SOL    HW226172   2.946   7.956   7.928  0.7314  0.1433 -0.5834
 8532SOL     OW26173   8.302   0.720   4.625  0.3676  0.2567 -0.6126
 8532SOL    HW126174   8.332   0.659   4.693  1.0863  1.7698  0.5010
 8532SOL    HW226175   8.372   0.720   4.560  0.5157  0.1466 -0.4541
 8533SOL     OW26176   4.249   7.583   7.895  0.0176  0.0051 -0.0660
 8533SOL    HW126177   4.302   7.503   7.887  3.5984  2.2478 -1.2500
 8533SOL    HW226178   4.204   7.589   7.810 -0.1756 -0.6404 -0.0213
 8534SOL     OW26179   0.731   8.897   1.959  0.1102 -0.2044 -0.5009
 8534SOL    HW126180   0.775   8.981   1.973 -0.8017  0.6170 -2.1803
 8534SOL    HW226181   0.782   8.834   2.009  0.6568  1.3865  1.0599
 8535SOL     OW26182   3.682   5.055   5.445  0.7143  0.4585 -0.1251
 8535SOL    HW126183   3.644   5.018   5.525 -2.0376  1.1105 -1.0318
 8535SOL    HW226184   3.689   4.980   5.386 -2.6960  0.7692 -1.1580
 8536SOL     OW26185   9.688   3.662   8.559  0.2422  0.0301 -0.2898
 8536SOL    HW126186   9.749   3.662   8.632 -0.6125  0.4279  0.4334
 8536SOL    HW226187   9.705   3.744   8.513  0.7838 -0.2242 -0.5642
 8537SOL     OW26188   4.759   6.032   7.812  0.1270 -0.0204  0.4855
 8537SOL    HW126189   4.697   6.016   7.741  0.7272 -1.7612  0.2962
 8537SOL    HW226190   4.718   6.101   7.865 -0.3564  1.2794 -1.4774
 8538SOL     OW26191   3.370   8.934   2.193 -0.0325 -0.2743  0.0139
 8538SOL    HW126192   3.366   9.024   2.161 -0.9653 -0.3515 -0.1073
 8538SOL    HW226193   3.404   8.883   2.119  0.5393 -0.0260  0.0967
 8539SOL     OW26194   2.895   6.683   9.245 -0.1956  0.4478 -0.3866
 8539SOL    HW126195   2.921   6.663   9.335 -0.3046 -1.0483 -0.6543
 8539SOL    HW226196   2.816   6.631   9.231  0.8403 -0.8064 -1.9080
 8540SOL     OW26197   3.040   0.656   1.551 -0.6486  0.4897  0.0845
 8540SOL    HW126198   3.108   0.661   1.619  0.2252 -2.6364 -0.4327
 8540SOL    HW226199   3.088   0.659   1.469 -1.0729 -1.6615 -0.2889
 8541SOL     OW26200   6.446   4.950   5.952 -0.5295  0.3556 -0.2372
 8541SOL    HW126201   6.420   4.905   5.871 -1.0338 -1.9470  1.1131
 8541SOL    HW226202   6.378   4.927   6.015  1.2430 -0.2445  1.5784
 8542SOL     OW26203   8.853   2.079   5.674  0.0636  0.2369  0.5241
 8542SOL    HW126204   8.771   2.068   5.625  1.9092 -2.0735 -2.4327
 8542SOL    HW226205   8.848   2.015   5.745 -1.3995  1.4747  1.5959
 8543SOL     OW26206   5.766   0.930   1.687  0.5408 -0.0705 -0.0360
 8543SOL    HW126207   5.819   0.861   1.726 -0.2919 -0.2421  0.8514
 8543SOL    HW226208   5.679   0.890   1.676  0.2787  0.5605 -0.3346
 8544SOL     OW26209   7.409   1.913   3.709 -0.1940 -0.0930 -0.3784
 8544SOL    HW126210   7.366   1.848   3.765  1.0712 -0.5566  0.0709
 8544SOL    HW226211   7.418   1.991   3.764  1.8534 -0.8355  0.3887
 8545SOL     OW26212   4.993   5.163   8.849 -0.5115  0.5177 -0.2499
 8545SOL    HW126213   4.987   5.233   8.915 -2.8893  1.2437 -1.0888
 8545SOL    HW226214   4.930   5.097   8.878 -0.4149  0.0988 -0.9620
 8546SOL     OW26215   8.278   6.596   4.410  0.4731 -0.1593  0.5173
 8546SOL    HW126216   8.311   6.514   4.447  2.5150  0.4816  0.2427
 8546SOL    HW226217   8.315   6.664   4.466 -1.7921  0.6015  1.1893
 8547SOL     OW26218   0.966   0.132   9.863  0.3096 -0.3438 -0.0643
 8547SOL    HW126219   0.874   0.110   9.852  0.2582 -0.2558  0.2026
 8547SOL    HW226220   0.966   0.217   9.906  0.5210 -1.2218  1.7356
 8548SOL     OW26221   7.896   5.690   2.150 -0.4830  0.6582  0.6492
 8548SOL    HW126222   7.990   5.710   2.148 -0.1684 -0.7605 -0.7166
 8548SOL    HW226223   7.892   5.595   2.147 -1.9494  0.7066 -2.5790
 8549SOL     OW26224   8.799   8.787   7.407 -0.0156  0.0035  0.1988
 8549SOL    HW126225   8.860   8.718   7.431  0.6978  0.5448 -0.0302
 8549SOL    HW226226   8.723   8.773   7.464  1.2120  0.6442  2.0560
 8550SOL     OW26227   3.613   1.689   8.831  0.3195  0.1031 -0.1575
 8550SOL    HW126228   3.571   1.775   8.832 -0.7286 -0.4079  0.0106
 8550SOL    HW226229   3.589   1.648   8.914 -2.0429 -1.6868 -1.6158
 8551SOL     OW26230   3.329   9.283   3.973 -0.0960  0.6623  0.4518
 8551SOL    HW126231   3.305   9.283   4.066 -0.5413  0.4431  0.3410
 8551SOL    HW226232   3.389   9.357   3.963  1.0109 -0.1120  1.1725
 8552SOL     OW26233   3.877   6.008   1.165  0.0884 -0.2244 -0.4136
 8552SOL    HW126234   3.952   5.970   1.212  0.2449 -1.0092 -1.2683
 8552SOL    HW226235   3.804   5.950   1.187  0.3021 -0.9840 -1.6355
 8553SOL     OW26236   9.344   0.712   8.942  0.2833  0.7621 -0.9966
 8553SOL    HW126237   9.284   0.780   8.910 -0.1699  0.8406 -0.0151
 8553SOL    HW226238   9.303   0.630   8.917 -0.5838  0.7990  0.2222
 8554SOL     OW26239   7.005   1.631   9.237 -0.3057 -0.5227  0.7348
 8554SOL    HW126240   7.020   1.539   9.217 -1.0218 -0.3675 -0.6515
 8554SOL    HW226241   6.955   1.630   9.319  1.0531 -1.2816  1.5817
 8555SOL     OW26242   3.907   3.173   5.120 -0.0789  0.0218  0.3579
 8555SOL    HW126243   3.843   3.106   5.101  0.8287 -0.4957 -1.0326
 8555SOL    HW226244   3.869   3.223   5.193 -1.7496 -0.6236 -0.0307
 8556SOL     OW26245   4.150   4.518   4.435  0.1284 -0.0210  0.7658
 8556SOL    HW126246   4.155   4.540   4.342  0.9161 -0.0390  0.7970
 8556SOL    HW226247   4.187   4.429   4.440 -0.2074 -0.1467  1.0551
 8557SOL     OW26248   2.036   5.669   8.726  0.1128 -0.5454 -0.1844
 8557SOL    HW126249   2.090   5.721   8.667 -2.7462  2.7794 -0.2116
 8557SOL    HW226250   2.088   5.659   8.806  1.7965 -0.0363 -1.1913
 8558SOL     OW26251   5.615   8.809   6.379 -0.4461  0.1929  0.2156
 8558SOL    HW126252   5.676   8.735   6.374  0.7601  1.1998 -0.4734
 8558SOL    HW226253   5.668   8.883   6.408 -1.2393  1.1900 -0.7550
 8559SOL     OW26254   6.383   8.766   9.412 -0.1389 -0.1445  0.4987
 8559SOL    HW126255   6.426   8.812   9.484 -0.3499 -1.0905  1.2363
 8559SOL    HW226256   6.451   8.761   9.344 -0.0449  1.0402  0.4849
 8560SOL     OW26257   3.162   0.468   3.652  0.0031  0.8825  0.2078
 8560SOL    HW126258   3.182   0.402   3.719  0.7966 -0.0983 -0.9363
 8560SOL    HW226259   3.100   0.527   3.694  1.1750  0.8634  2.1348
 8561SOL     OW26260   8.936   4.664   8.795  0.0548  0.0462 -0.5649
 8561SOL    HW126261   9.018   4.713   8.795  0.3857 -0.4919  0.1814
 8561SOL    HW226262   8.911   4.659   8.702  1.7594 -1.2436 -1.0181
 8562SOL     OW26263   2.378   9.150   1.188  0.2675 -0.0991 -0.2933
 8562SOL    HW126264   2.375   9.228   1.132  2.1358 -0.3355 -0.7870
 8562SOL    HW226265   2.290   9.114   1.183 -0.2166  1.1336 -1.2929
 8563SOL     OW26266   9.065   0.142   1.858 -0.3774 -0.2573  0.3706
 8563SOL    HW126267   9.079   0.158   1.765  1.1004 -0.5431  0.5244
 8563SOL    HW226268   8.995   0.077   1.861  0.3465 -1.1050 -0.5812
 8564SOL     OW26269   9.054   6.710   1.709 -0.1046 -0.6876 -0.1027
 8564SOL    HW126270   8.989   6.780   1.701 -1.2518 -1.7660 -0.5145
 8564SOL    HW226271   9.063   6.696   1.804  0.3514  0.1981 -0.0079
 8565SOL     OW26272   6.593   5.992   3.163  0.1939  0.0813 -0.0203
 8565SOL    HW126273   6.653   5.952   3.101  0.3815 -0.3417  0.4213
 8565SOL    HW226274   6.594   5.933   3.239  0.2477  0.7669  0.5257
 8566SOL     OW26275   6.552   5.984   6.095 -0.3630 -0.1703 -0.0967
 8566SOL    HW126276   6.590   5.899   6.074  0.4019  0.3820 -1.0723
 8566SOL    HW226277   6.531   5.979   6.188  1.3502 -0.8041  0.3000
 8567SOL     OW26278   8.323   3.694   8.058  0.3853 -0.2972 -0.6010
 8567SOL    HW126279   8.253   3.734   8.007 -0.7236  0.8337  1.6842
 8567SOL    HW226280   8.400   3.746   8.038  0.0554 -0.1001 -1.3707
 8568SOL     OW26281   7.528   8.819   4.316  0.1106  0.3316 -0.9508
 8568SOL    HW126282   7.597   8.858   4.262  0.0457  0.1982 -1.1290
 8568SOL    HW226283   7.468   8.892   4.334  1.0616  0.8171  0.4489
 8569SOL     OW26284   3.174   4.202   5.210 -0.4037  0.3310 -0.4988
 8569SOL    HW126285   3.216   4.153   5.281 -0.7455 -0.0229 -0.5388
 8569SOL    HW226286   3.081   4.184   5.221 -0.5702  1.2636 -0.2972
 8570SOL     OW26287   5.524   0.544   3.905 -0.3558 -0.0562  0.2602
 8570SOL    HW126288   5.499   0.500   3.823  0.4543  0.2185 -0.1460
 8570SOL    HW226289   5.616   0.518   3.919  0.8858  3.0646 -1.1005
 8571SOL     OW26290   0.215   1.874   6.178 -0.7728  0.1346  0.4970
 8571SOL    HW126291   0.249   1.860   6.266 -1.8174 -0.6630  0.7936
 8571SOL    HW226292   0.152   1.804   6.165 -0.3016 -0.0307 -1.0794
 8572SOL     OW26293   1.117   7.090   4.746  0.3837 -0.0626  0.6153
 8572SOL    HW126294   1.055   7.154   4.782  0.5546  0.1761  0.4861
 8572SOL    HW226295   1.062   7.031   4.694  0.2939  0.3007  0.2875
 8573SOL     OW26296   4.302   4.266   8.170 -0.5473  0.0313  0.7524
 8573SOL    HW126297   4.255   4.297   8.248 -0.1191  1.3323  0.5093
 8573SOL    HW226298   4.394   4.279   8.191 -0.1769 -2.9517  1.4159
 8574SOL     OW26299   8.747   9.709   1.346  0.2796  0.0389 -0.3613
 8574SOL    HW126300   8.783   9.635   1.395  0.7465  1.5546  1.7114
 8574SOL    HW226301   8.705   9.668   1.270 -0.8414 -2.5097  1.4544
 8575SOL     OW26302   5.719   7.984   3.284 -0.9748 -0.9347 -0.1787
 8575SOL    HW126303   5.640   8.030   3.258 -1.1664 -0.8682  0.5104
 8575SOL    HW226304   5.697   7.891   3.274 -1.9911 -1.0408  2.2626
 8576SOL     OW26305   1.719   5.808   3.704 -0.3686 -0.0333 -0.3264
 8576SOL    HW126306   1.744   5.761   3.783 -0.6889 -1.1886 -0.8761
 8576SOL    HW226307   1.623   5.809   3.705 -0.4112  2.7037  0.8253
 8577SOL     OW26308   8.916   2.727   0.565  0.1041  0.0175 -0.2821
 8577SOL    HW126309   9.001   2.763   0.540  0.6703 -0.2195  1.1758
 8577SOL    HW226310   8.929   2.696   0.655 -1.3963 -0.4597 -0.2027
 8578SOL     OW26311   1.855   8.158   3.231 -0.0561 -0.0400  0.7496
 8578SOL    HW126312   1.870   8.130   3.321  0.8157  0.0450  0.6347
 8578SOL    HW226313   1.873   8.080   3.178  0.6979  0.2630  0.5565
 8579SOL     OW26314   4.771   7.739   0.835  0.4643 -0.0189  0.0244
 8579SOL    HW126315   4.811   7.810   0.886 -1.7604  0.9774  0.5033
 8579SOL    HW226316   4.710   7.697   0.895  1.0255 -1.7535 -0.5579
 8580SOL     OW26317   8.762   7.640   0.658  0.1568  0.1240 -0.7214
 8580SOL    HW126318   8.727   7.561   0.699 -1.4513  1.7531  1.2697
 8580SOL    HW226319   8.737   7.631   0.566 -1.6485 -0.8549 -0.1935
 8581SOL     OW26320   1.009   7.954   9.027  0.4688  0.4330 -0.4440
 8581SOL    HW126321   1.046   7.955   8.939 -0.6720 -1.2413 -0.9928
 8581SOL    HW226322   0.918   7.981   9.015  0.2915  0.1341  0.1899
 8582SOL     OW26323   2.552   9.942   7.504  0.1130 -0.5076 -0.7369
 8582SOL    HW126324   2.459   9.965   7.503  0.6154  1.8645  0.0592
 8582SOL    HW226325   2.586   9.976   7.422  0.8536  1.7703  0.4194
 8583SOL     OW26326   1.426   6.803   3.326  0.0359  0.3128  0.2624
 8583SOL    HW126327   1.468   6.830   3.245  0.5087 -0.5219  0.2231
 8583SOL    HW226328   1.496   6.804   3.391 -0.1213  0.0057  0.4403
 8584SOL     OW26329   4.170   0.875   4.229 -0.6633  0.3922  0.8311
 8584SOL    HW126330   4.184   0.965   4.201 -0.5188 -0.2329 -1.2340
 8584SOL    HW226331   4.254   0.848   4.268  0.8152 -0.1292 -2.3901
 8585SOL     OW26332   9.844   3.972   7.570  0.3184 -0.5174 -0.9855
 8585SOL    HW126333   9.884   3.944   7.652  0.9621 -0.5721 -1.3088
 8585SOL    HW226334   9.818   4.063   7.586 -3.5945 -1.7229  0.7409
 8586SOL     OW26335   8.785   0.236   8.294 -0.5425 -0.0105  0.0950
 8586SOL    HW126336   8.808   0.171   8.361 -1.5559  0.2379  0.7060
 8586SOL    HW226337   8.869   0.258   8.253 -0.1951 -1.8478 -0.2750
 8587SOL     OW26338   9.150   9.443   4.520  0.2719 -0.1734  0.0524
 8587SOL    HW126339   9.085   9.430   4.451  0.9575  2.7009 -1.2928
 8587SOL    HW226340   9.204   9.364   4.517 -0.7382 -0.8604 -1.5689
 8588SOL     OW26341   9.712   7.342   9.581 -0.4884 -0.1922  0.4776
 8588SOL    HW126342   9.677   7.258   9.550 -0.7080  0.3901 -0.9265
 8588SOL    HW226343   9.807   7.328   9.583 -0.5648 -0.6970  0.9850
 8589SOL     OW26344   6.780   0.716   1.001 -0.0629 -0.0942 -0.1833
 8589SOL    HW126345   6.733   0.796   0.977 -0.5675 -0.3951 -0.2164
 8589SOL    HW226346   6.759   0.702   1.093  0.3046  0.0007 -0.0848
 8590SOL     OW26347   1.883   5.143   9.089  0.2937 -0.3592  0.1608
 8590SOL    HW126348   1.972   5.114   9.069  0.4253  0.1506  0.0047
 8590SOL    HW226349   1.834   5.125   9.009  0.2472 -0.6772  0.2600
 8591SOL     OW26350   6.767   0.981   4.722 -0.1752 -0.2995  0.0525
 8591SOL    HW126351   6.713   1.057   4.740 -0.7420 -1.0575  1.8060
 8591SOL    HW226352   6.745   0.919   4.792  0.8364 -1.7622 -0.8693
 8592SOL     OW26353   3.034   6.330   5.188  0.3430  0.5571  0.4268
 8592SOL    HW126354   3.034   6.423   5.211 -0.2788  0.9580 -1.0606
 8592SOL    HW226355   3.116   6.317   5.140 -1.1969  1.2930 -2.6658
 8593SOL     OW26356   2.250   6.750   9.111  0.1232  0.2873 -0.1987
 8593SOL    HW126357   2.315   6.697   9.065 -0.6425 -0.7310 -0.1270
 8593SOL    HW226358   2.294   6.777   9.191  0.4488 -0.4315 -0.1295
 8594SOL     OW26359   5.255   7.622   2.364 -0.3188  0.0993  0.5630
 8594SOL    HW126360   5.252   7.535   2.402 -0.4095 -0.5605 -0.8722
 8594SOL    HW226361   5.347   7.637   2.343 -0.2176  0.5986  1.3195
 8595SOL     OW26362   2.043   1.286   4.498 -0.7761  0.2740  0.0212
 8595SOL    HW126363   2.081   1.297   4.585 -0.5711 -0.3849  0.0208
 8595SOL    HW226364   1.961   1.239   4.513  0.1755 -1.5476 -0.2982
 8596SOL     OW26365   1.105   8.430   5.289 -0.0457  0.4474  0.6692
 8596SOL    HW126366   1.135   8.507   5.241  0.5719  0.6485  1.3440
 8596SOL    HW226367   1.138   8.355   5.240  1.0795  0.6606  1.0742
 8597SOL     OW26368   2.704   1.564   0.917  0.0923 -0.3978  0.6077
 8597SOL    HW126369   2.684   1.615   0.995  1.4244  0.8321  0.1730
 8597SOL    HW226370   2.753   1.488   0.950  0.7908  0.1993  0.9632
 8598SOL     OW26371   3.584   7.458   9.097 -0.0936 -0.0282  0.3669
 8598SOL    HW126372   3.493   7.452   9.125 -0.7943  1.6280 -1.3722
 8598SOL    HW226373   3.615   7.367   9.095 -2.7524 -1.0241 -2.2249
 8599SOL     OW26374   8.657   4.533   3.309  0.4135  0.0497  0.4160
 8599SOL    HW126375   8.731   4.488   3.349 -0.3152 -1.2103  0.3899
 8599SOL    HW226376   8.696   4.609   3.266  1.7490 -0.7786  0.0911
 8600SOL     OW26377   4.961   3.589   7.500 -0.0178  0.0757  0.7212
 8600SOL    HW126378   4.968   3.609   7.594 -0.1797  1.3791  0.4748
 8600SOL    HW226379   5.007   3.505   7.490 -1.5648 -1.0244  2.2442
 8601SOL     OW26380   1.744   7.225   7.890  0.0870  0.4444  0.3954
 8601SOL    HW126381   1.803   7.299   7.876  0.5658  0.2881  1.4905
 8601SOL    HW226382   1.728   7.191   7.802 -1.0205  2.4833 -0.2580
 8602SOL     OW26383   7.211   9.003   4.360  0.5552 -0.4235 -0.0257
 8602SOL    HW126384   7.192   9.087   4.402  0.0923  0.1328 -1.3052
 8602SOL    HW226385   7.266   9.026   4.285 -3.0761 -0.6198 -3.0438
 8603SOL     OW26386   0.418   0.473   8.465 -0.4466  0.2561 -0.0470
 8603SOL    HW126387   0.415   0.437   8.377 -1.3239 -0.2815  0.1903
 8603SOL    HW226388   0.387   0.401   8.521 -0.6787  0.8598  0.6085
 8604SOL     OW26389   5.626   8.891   1.248  0.3821  0.3785 -0.4333
 8604SOL    HW126390   5.700   8.840   1.282 -0.6481 -0.1299  1.1811
 8604SOL    HW226391   5.640   8.894   1.153  0.4703 -3.0239 -0.6579
 8605SOL     OW26392   2.657   7.630   9.972 -0.1155  0.0468  0.0386
 8605SOL    HW126393   2.654   7.535   9.963 -1.6208  0.2484 -2.3981
 8605SOL    HW226394   2.696   7.661   9.891  1.6148  1.5014  1.3471
 8606SOL     OW26395   0.734   1.781   3.411 -0.3218 -0.2029  0.0298
 8606SOL    HW126396   0.680   1.744   3.480  0.2827 -1.6268 -0.2321
 8606SOL    HW226397   0.672   1.827   3.354 -1.1871 -1.3099  0.0471
 8607SOL     OW26398   7.137   3.944   2.899 -0.2550  0.2251 -0.2127
 8607SOL    HW126399   7.214   3.924   2.952 -0.2368 -0.1686 -0.3843
 8607SOL    HW226400   7.138   4.040   2.892  0.3724  0.2090 -0.4419
 8608SOL     OW26401   9.023   9.751   5.643 -0.0077  0.6191 -0.4770
 8608SOL    HW126402   9.101   9.760   5.588  1.3478  0.7763  1.3916
 8608SOL    HW226403   9.005   9.657   5.645  0.2806  0.5575 -0.7297
 8609SOL     OW26404   6.643   0.735   7.053  0.0176  0.1296 -0.3113
 8609SOL    HW126405   6.583   0.809   7.057 -0.5913 -0.3555 -0.2867
 8609SOL    HW226406   6.718   0.768   7.003 -0.9655  0.2845 -1.7467
 8610SOL     OW26407   4.592   9.402   3.147 -0.8167  0.7640  0.4848
 8610SOL    HW126408   4.664   9.464   3.136 -0.8115  0.6057 -0.3907
 8610SOL    HW226409   4.557   9.389   3.059 -0.6255 -0.7073  0.6012
 8611SOL     OW26410   0.829   5.672   8.988  0.4108  0.5277 -0.7291
 8611SOL    HW126411   0.817   5.765   9.008 -0.1155  0.1664  0.7560
 8611SOL    HW226412   0.808   5.627   9.069 -0.7361 -0.9916 -1.8039
 8612SOL     OW26413   8.930   1.780   8.537 -0.1835 -0.3275  0.0494
 8612SOL    HW126414   8.848   1.755   8.494 -0.4121 -1.4880  1.1071
 8612SOL    HW226415   8.997   1.726   8.495 -0.3442 -1.1609  0.8445
 8613SOL     OW26416   3.045   3.245   6.318 -0.6554 -0.7172  0.1414
 8613SOL    HW126417   3.101   3.273   6.246 -0.8347  0.8453  0.5624
 8613SOL    HW226418   2.964   3.215   6.276 -2.0848  3.1526 -0.3694
 8614SOL     OW26419   5.757   5.311   0.084 -0.4131  0.1686  0.0299
 8614SOL    HW126420   5.784   5.248   0.152  2.4339  0.9506 -0.2284
 8614SOL    HW226421   5.786   5.396   0.118 -1.8857  1.0261 -0.7659
 8615SOL     OW26422   0.040   6.097   4.880 -0.0120 -0.0606 -0.2494
 8615SOL    HW126423   0.007   6.011   4.906 -0.5838 -0.2399 -1.4995
 8615SOL    HW226424   0.041   6.094   4.785  1.5037  0.7545 -0.2796
 8616SOL     OW26425   0.826   3.973   5.867  0.6333  0.2813  0.2914
 8616SOL    HW126426   0.909   4.004   5.830  0.3640 -0.6213 -1.1532
 8616SOL    HW226427   0.851   3.922   5.944  1.3603  0.5012  0.2066
 8617SOL     OW26428   6.002   3.305   6.679  0.2992  0.2042 -0.6407
 8617SOL    HW126429   5.951   3.384   6.658  2.5987  1.5529 -1.4683
 8617SOL    HW226430   6.080   3.338   6.723 -0.4159 -1.9545  2.5712
 8618SOL     OW26431   5.323   5.751   0.263  0.0655  0.3942  0.0714
 8618SOL    HW126432   5.264   5.811   0.309  0.2721  0.1629  0.6554
 8618SOL    HW226433   5.372   5.708   0.333  0.5271  0.1723 -0.3823
 8619SOL     OW26434   2.607   1.455   4.520  0.1834  0.5536  0.2524
 8619SOL    HW126435   2.696   1.420   4.514  0.2282  0.8968 -1.4617
 8619SOL    HW226436   2.564   1.424   4.440 -1.3123  0.2245  1.1525
 8620SOL     OW26437   0.093   7.588   5.454  0.1459 -0.9377 -0.5021
 8620SOL    HW126438   0.017   7.566   5.401 -1.0730 -1.5247  1.3727
 8620SOL    HW226439   0.068   7.667   5.502  0.2020 -1.7764  1.0020
 8621SOL     OW26440   0.100   4.899   0.201 -0.1019 -1.1453 -0.1495
 8621SOL    HW126441   0.156   4.904   0.124 -0.3418 -0.3730 -0.2814
 8621SOL    HW226442   0.044   4.976   0.195 -0.0247 -1.0012  0.8758
 8622SOL     OW26443   8.860   2.074   0.195  0.3730  0.0444  0.0710
 8622SOL    HW126444   8.874   2.020   0.117 -1.7531  0.4787 -0.6722
 8622SOL    HW226445   8.766   2.067   0.213  0.4895  1.4526  1.5004
 8623SOL     OW26446   1.367   0.654   8.038 -0.3256 -0.0841 -0.0768
 8623SOL    HW126447   1.352   0.681   8.129  0.0678 -0.8839  0.2376
 8623SOL    HW226448   1.311   0.577   8.027  1.6623 -1.6792  0.3824
 8624SOL     OW26449   0.726   0.513   8.640  0.3877 -0.2750  0.2685
 8624SOL    HW126450   0.633   0.529   8.626  0.2141  0.4025  1.9179
 8624SOL    HW226451   0.771   0.574   8.581 -0.1753 -1.0569 -1.0157
 8625SOL     OW26452   5.176   3.524   6.736 -0.2070  0.3094  0.3362
 8625SOL    HW126453   5.204   3.572   6.814 -0.1305  0.8231  0.0025
 8625SOL    HW226454   5.081   3.523   6.742 -0.2895  1.6737 -0.3110
 8626SOL     OW26455   5.149   5.775   7.690  0.0528 -0.1678  0.1479
 8626SOL    HW126456   5.134   5.867   7.670  2.5732  0.3786  0.4049
 8626SOL    HW226457   5.163   5.733   7.605 -0.6924 -0.2458  0.0591
 8627SOL     OW26458   4.352   8.805   2.963 -0.2193 -0.3413  0.5653
 8627SOL    HW126459   4.338   8.896   2.987  0.5463  0.3939 -1.5071
 8627SOL    HW226460   4.427   8.777   3.015 -0.5242  0.1660  1.2843
 8628SOL     OW26461   2.002   4.985   7.997  0.1961  0.4621 -0.0661
 8628SOL    HW126462   2.085   5.028   7.982  0.1081  0.5343 -0.3521
 8628SOL    HW226463   1.949   5.007   7.921 -0.9567  2.4871  1.2299
 8629SOL     OW26464   0.703   5.021   3.289  0.1195 -0.0346 -0.0913
 8629SOL    HW126465   0.764   5.057   3.225 -0.0172 -0.8157 -0.6791
 8629SOL    HW226466   0.616   5.035   3.251 -0.0587  0.7875  0.5956
 8630SOL     OW26467   8.975   3.871   0.319  0.5607 -0.1186 -0.9087
 8630SOL    HW126468   9.015   3.894   0.235 -0.2639  0.1924 -1.2242
 8630SOL    HW226469   9.003   3.941   0.379  0.2310  0.2846 -1.2130
 8631SOL     OW26470   2.276   5.911   0.358 -0.2016  0.4314  0.0687
 8631SOL    HW126471   2.318   5.901   0.443  0.9024 -1.2906 -0.6423
 8631SOL    HW226472   2.206   5.846   0.358 -0.8178  1.0746 -0.0088
 8632SOL     OW26473   1.156   5.922   9.035 -0.4804  0.2957  0.5409
 8632SOL    HW126474   1.100   6.000   9.042 -0.2674  0.9619 -3.2899
 8632SOL    HW226475   1.235   5.945   9.083 -1.7598  0.9725  2.4649
 8633SOL     OW26476   2.339   2.015   2.360 -0.2388  0.3563 -0.4483
 8633SOL    HW126477   2.428   2.023   2.325  0.0197 -1.6999 -0.3900
 8633SOL    HW226478   2.339   1.931   2.406 -2.7036 -0.5856 -1.9763
 8634SOL     OW26479   1.948   8.254   2.516 -0.0306  0.2650  0.1013
 8634SOL    HW126480   1.856   8.280   2.525  0.0416  0.4050  0.4330
 8634SOL    HW226481   1.994   8.305   2.582  0.3584  0.5456 -0.3774
 8635SOL     OW26482   7.940   5.578   6.959  0.5672 -0.0715  0.5696
 8635SOL    HW126483   7.894   5.500   6.928 -0.0346  1.2821 -2.3235
 8635SOL    HW226484   7.882   5.616   7.025 -0.5559 -0.5283 -0.1180
 8636SOL     OW26485   2.087   1.164   1.211 -0.1620 -0.4703 -0.2504
 8636SOL    HW126486   2.160   1.146   1.152 -0.7730 -0.1653 -1.1151
 8636SOL    HW226487   2.114   1.242   1.259  0.2465 -0.5876 -0.2861
 8637SOL     OW26488   9.282   2.070   4.959  0.6667  0.3418 -0.4171
 8637SOL    HW126489   9.314   2.132   4.893 -0.4487  0.0738 -1.2578
 8637SOL    HW226490   9.214   2.021   4.913  1.2927 -1.2808  0.3319
 8638SOL     OW26491   6.995   2.251   4.977  0.0158  0.2468 -0.4060
 8638SOL    HW126492   7.071   2.218   4.929  0.0052 -1.5667  0.7257
 8638SOL    HW226493   6.920   2.230   4.921  0.2167  0.7235 -0.8629
 8639SOL     OW26494   2.959   7.521   5.176  0.0944 -0.4683  0.5179
 8639SOL    HW126495   3.015   7.463   5.227  0.8363 -0.6151 -0.4400
 8639SOL    HW226496   2.959   7.603   5.224  2.7012  0.1537 -0.4151
 8640SOL     OW26497   9.676   6.419   0.659  0.2398  0.3394  0.3735
 8640SOL    HW126498   9.732   6.350   0.696 -1.5911 -1.0676  0.6390
 8640SOL    HW226499   9.697   6.419   0.566  1.0682  0.2205  0.5496
 8641SOL     OW26500   1.109   7.184   6.988  0.1369 -0.8922 -0.1035
 8641SOL    HW126501   1.151   7.150   7.067  2.2728  0.4611 -0.5673
 8641SOL    HW226502   1.021   7.146   6.989  0.5794 -2.0274  2.1607
 8642SOL     OW26503   3.320   0.137   1.901  0.0957  0.2045  0.0493
 8642SOL    HW126504   3.304   0.067   1.838  0.7764 -1.2317  1.4129
 8642SOL    HW226505   3.233   0.173   1.919 -0.1052  0.6925 -1.7197
 8643SOL     OW26506   3.686   8.608   8.032  0.3965  0.1339 -0.1072
 8643SOL    HW126507   3.608   8.658   8.056  0.3417 -0.3135  0.6722
 8643SOL    HW226508   3.731   8.663   7.967  1.0168  1.8138  1.6443
 8644SOL     OW26509   9.888   9.690   4.133  0.0768 -0.3499 -0.3440
 8644SOL    HW126510   9.964   9.733   4.093  0.2335 -1.0998 -0.8885
 8644SOL    HW226511   9.834   9.761   4.167  0.0102  0.3159 -1.7882
 8645SOL     OW26512   0.360   8.716   8.153  0.0225 -0.3837  0.2437
 8645SOL    HW126513   0.313   8.742   8.074  2.0405 -0.4130 -1.0566
 8645SOL    HW226514   0.323   8.770   8.222  0.2458  1.9381 -1.3215
 8646SOL     OW26515   7.322   2.721   6.094  0.3799  0.1702 -0.5381
 8646SOL    HW126516   7.413   2.740   6.118  0.6029 -0.6689 -0.6961
 8646SOL    HW226517   7.291   2.663   6.163 -0.5517  1.7014  0.3832
 8647SOL     OW26518   7.308   1.676   4.673 -0.7546 -0.4471 -0.0958
 8647SOL    HW126519   7.218   1.655   4.648 -1.0112 -0.0359  0.4510
 8647SOL    HW226520   7.337   1.739   4.607 -2.0810  2.1171  1.5976
 8648SOL     OW26521   6.819   7.514   7.905 -0.0173 -0.3127  0.3647
 8648SOL    HW126522   6.741   7.510   7.849  0.1238  0.7985  0.0732
 8648SOL    HW226523   6.865   7.593   7.877  0.3977 -0.0957  1.6099
 8649SOL     OW26524   7.412   3.034   5.398 -0.3174 -0.2396 -0.6909
 8649SOL    HW126525   7.400   2.980   5.321  1.9133 -1.3529 -0.3379
 8649SOL    HW226526   7.375   2.983   5.470 -1.4147  0.3159 -0.8466
 8650SOL     OW26527   2.213   8.983   2.996  0.1633 -0.8823  0.5404
 8650SOL    HW126528   2.209   8.908   2.936 -0.2226 -0.8364  0.5012
 8650SOL    HW226529   2.288   9.033   2.966 -0.5927 -0.3432 -0.5418
 8651SOL     OW26530   4.407   5.037   5.944  0.0752  0.2228 -0.0427
 8651SOL    HW126531   4.356   4.957   5.937 -0.9715  0.6794  1.7557
 8651SOL    HW226532   4.344   5.108   5.934  0.7594  0.8266 -0.2364
 8652SOL     OW26533   8.043   7.175   5.036  0.0826 -0.7770  0.7406
 8652SOL    HW126534   8.049   7.257   5.085  1.8039  1.4294 -2.7687
 8652SOL    HW226535   8.126   7.130   5.054 -0.2675 -1.1153  1.5647
 8653SOL     OW26536   2.223   6.583   0.186  0.2349  0.3161  0.4245
 8653SOL    HW126537   2.261   6.664   0.151 -0.1620  0.3629  0.0895
 8653SOL    HW226538   2.153   6.561   0.124  1.3784 -1.1702 -0.4286
 8654SOL     OW26539   1.115   3.732   2.854  0.4987  0.6740  0.5400
 8654SOL    HW126540   1.079   3.643   2.849 -0.6147  1.1380 -0.2918
 8654SOL    HW226541   1.107   3.766   2.765  1.9053  1.2560  0.6075
 8655SOL     OW26542   8.185   3.751   6.549  0.3977  0.7131  0.0594
 8655SOL    HW126543   8.138   3.786   6.624 -1.0555 -1.5678  0.2936
 8655SOL    HW226544   8.257   3.700   6.587 -0.7404 -1.0141  0.0213
 8656SOL     OW26545   6.643   4.966   2.043 -0.5610 -0.0255  0.1231
 8656SOL    HW126546   6.630   5.058   2.063 -0.2761  0.2667 -1.0116
 8656SOL    HW226547   6.562   4.923   2.072 -0.3284  0.4291  1.4959
 8657SOL     OW26548   2.492   7.148   1.473 -0.0689  0.7258  0.8207
 8657SOL    HW126549   2.458   7.141   1.384 -0.8028 -0.7935  1.1864
 8657SOL    HW226550   2.582   7.178   1.462  0.1440 -0.3124 -0.4966
 8658SOL     OW26551   2.135   9.776   0.269 -0.1046 -0.2433 -0.0657
 8658SOL    HW126552   2.042   9.755   0.263  0.2739 -1.9990 -0.3198
 8658SOL    HW226553   2.161   9.795   0.179 -0.4445  1.5078  0.1616
 8659SOL     OW26554   7.609   5.675   3.029 -0.0571 -0.4761 -0.1640
 8659SOL    HW126555   7.525   5.673   2.983  0.1202 -1.3527 -0.4671
 8659SOL    HW226556   7.619   5.766   3.057 -0.5376 -0.0905 -1.1902
 8660SOL     OW26557   9.912   2.467   7.897 -0.6840  0.0987  0.5492
 8660SOL    HW126558   9.934   2.392   7.952 -2.3847 -0.1697  0.9158
 8660SOL    HW226559   9.992   2.520   7.895  1.0239 -2.3709 -0.8795
 8661SOL     OW26560   5.587   9.979   7.128  0.1397 -0.1064  0.3628
 8661SOL    HW126561   5.680   9.972   7.152  0.2770 -0.4670 -0.2415
 8661SOL    HW226562   5.549   9.894   7.152  0.0143 -0.0357  0.4148
 8662SOL     OW26563   8.277   0.844   7.321  0.0413 -0.1200 -0.2850
 8662SOL    HW126564   8.369   0.824   7.306 -0.4006 -0.7574 -2.5584
 8662SOL    HW226565   8.232   0.761   7.305 -1.0692  0.5626 -0.8056
 8663SOL     OW26566   6.098   4.612   9.593 -0.5367  0.0290  0.1917
 8663SOL    HW126567   6.042   4.580   9.522  1.5657  0.4825 -1.7604
 8663SOL    HW226568   6.072   4.703   9.605 -0.2329  0.2400 -0.7009
 8664SOL     OW26569   0.969   6.224   5.951  0.3453 -0.4122  0.2045
 8664SOL    HW126570   1.064   6.214   5.952  0.4262  0.1409 -0.4637
 8664SOL    HW226571   0.940   6.168   5.879  0.1552 -0.6443  0.4609
 8665SOL     OW26572   9.737   7.783   1.111 -0.3944  0.2942  0.0776
 8665SOL    HW126573   9.831   7.799   1.116 -0.4392  0.7689 -0.4588
 8665SOL    HW226574   9.705   7.795   1.200  0.0296  0.2971  0.2305
 8666SOL     OW26575   8.729   7.348   7.846 -0.3273 -0.2422 -0.0486
 8666SOL    HW126576   8.659   7.343   7.911 -0.1281  1.6758  0.3849
 8666SOL    HW226577   8.699   7.413   7.783  0.3160 -0.6980 -0.8488
 8667SOL     OW26578   7.536   1.791   2.568 -0.0971  0.9381 -0.0328
 8667SOL    HW126579   7.607   1.793   2.504  1.6548 -0.5032  1.7199
 8667SOL    HW226580   7.568   1.843   2.642 -1.1328  0.7615  0.5691
 8668SOL     OW26581   3.502   5.899   0.424 -0.5828 -0.1419 -0.2679
 8668SOL    HW126582   3.436   5.874   0.489  0.1288  1.6214  1.2335
 8668SOL    HW226583   3.469   5.981   0.387  0.0243 -0.0421 -0.6048
 8669SOL     OW26584   6.186   5.937   0.601  0.2449  0.6556 -0.1192
 8669SOL    HW126585   6.124   5.995   0.645 -0.0149  1.1964 -1.1596
 8669SOL    HW226586   6.138   5.855   0.590  0.7999  0.0054  1.8535
 8670SOL     OW26587   2.248   6.941   4.842  0.3018 -0.2312  0.3567
 8670SOL    HW126588   2.335   6.953   4.880 -0.0937 -0.2600  1.2813
 8670SOL    HW226589   2.221   7.029   4.818  0.1840 -0.0957  0.9723
 8671SOL     OW26590   8.578   3.801   8.046  0.1919 -0.2725 -0.2126
 8671SOL    HW126591   8.627   3.858   8.106 -0.4899  1.0509 -0.8672
 8671SOL    HW226592   8.645   3.759   7.993  0.7506 -0.6570  0.7713
 8672SOL     OW26593   5.736   4.917   0.189 -0.1382 -0.3242  0.0252
 8672SOL    HW126594   5.652   4.882   0.220  0.4163 -1.3005  0.4995
 8672SOL    HW226595   5.731   4.912   0.094 -0.8509  0.2219  0.0245
 8673SOL     OW26596   3.176   0.828   4.852 -0.8391 -0.0727  0.1492
 8673SOL    HW126597   3.131   0.912   4.849  1.4959  1.2288 -2.0950
 8673SOL    HW226598   3.112   0.768   4.891 -3.3968  2.2192 -0.2244
 8674SOL     OW26599   8.365   9.825   1.172 -0.3836 -0.4004 -0.2184
 8674SOL    HW126600   8.366   9.732   1.149  1.4058 -0.8027  1.2641
 8674SOL    HW226601   8.342   9.826   1.265 -0.5465  0.6699 -0.2607
 8675SOL     OW26602   9.902   3.354   1.881  0.0503  0.0345  0.1542
 8675SOL    HW126603   9.890   3.444   1.910 -1.6643 -0.4625  1.2007
 8675SOL    HW226604   9.831   3.339   1.818 -1.0908 -1.1488  1.6045
 8676SOL     OW26605   7.262   0.112   4.055 -0.4239 -0.3510  1.1077
 8676SOL    HW126606   7.342   0.060   4.053 -0.3346 -0.2034  0.6309
 8676SOL    HW226607   7.212   0.077   4.129  0.3726  0.0076  1.8265
 8677SOL     OW26608   9.568   8.104   3.936 -0.0135  0.4164  0.0790
 8677SOL    HW126609   9.498   8.161   3.903  0.5319 -0.3673 -2.7609
 8677SOL    HW226610   9.523   8.043   3.994 -1.0643  1.9567  0.9835
 8678SOL     OW26611   3.087   1.814   4.784 -0.2713 -0.2755 -0.4893
 8678SOL    HW126612   3.168   1.865   4.794 -0.2415 -0.1584 -1.2414
 8678SOL    HW226613   3.088   1.785   4.693 -1.3902  0.2793 -0.6985
 8679SOL     OW26614   3.605   7.502   2.426  0.0514  0.1137  0.2678
 8679SOL    HW126615   3.576   7.589   2.398  1.6691  0.6577  0.1464
 8679SOL    HW226616   3.679   7.520   2.485 -0.7323 -1.1387  1.7031
 8680SOL     OW26617   2.894   3.992   2.139 -0.1622 -0.0326 -0.0378
 8680SOL    HW126618   2.921   3.958   2.224 -0.5625 -2.2318 -0.7230
 8680SOL    HW226619   2.799   3.990   2.142 -0.2024 -1.4844 -0.9701
 8681SOL     OW26620   6.097   7.033   0.737  0.8184 -0.2958  0.3491
 8681SOL    HW126621   6.012   6.995   0.761  0.8457 -0.5792  0.0117
 8681SOL    HW226622   6.155   7.008   0.809  0.3498  0.9275  1.1932
 8682SOL     OW26623   0.531   7.123   2.456  0.4400 -0.0986  0.2704
 8682SOL    HW126624   0.552   7.216   2.466  1.2755 -0.3158  0.6825
 8682SOL    HW226625   0.592   7.093   2.388  0.5597 -0.4586  0.5356
 8683SOL     OW26626   5.351   0.754   4.418  0.6199  0.4625  0.0124
 8683SOL    HW126627   5.261   0.739   4.389  0.3848  0.1810  0.8645
 8683SOL    HW226628   5.391   0.667   4.418  1.4026  0.7593 -1.9164
 8684SOL     OW26629   8.016   4.814   2.717  0.1833 -0.1500 -0.6480
 8684SOL    HW126630   8.085   4.874   2.690  0.6193 -0.6379 -0.6275
 8684SOL    HW226631   8.052   4.767   2.792 -0.6106  0.4212  0.1094
 8685SOL     OW26632   9.937   0.951   2.226 -0.2723 -0.2457 -0.4241
 8685SOL    HW126633   9.932   0.901   2.145  1.7365  2.4923 -2.4407
 8685SOL    HW226634   9.952   1.041   2.197 -2.0785  1.3186  2.9857
 8686SOL     OW26635   5.306   0.469   7.864 -0.0473 -0.0367  0.3711
 8686SOL    HW126636   5.400   0.471   7.846 -0.0297  0.8633  0.5334
 8686SOL    HW226637   5.295   0.525   7.941 -0.7763  0.2347  0.0765
 8687SOL     OW26638   3.788   0.772   1.425  0.6784  0.4194 -0.6050
 8687SOL    HW126639   3.722   0.835   1.455  1.5111  1.3905 -0.7534
 8687SOL    HW226640   3.787   0.780   1.330  0.7268  0.1509 -0.6275
 8688SOL     OW26641   2.954   4.871   8.430 -0.0936  0.7003  0.5586
 8688SOL    HW126642   2.942   4.960   8.463  0.5461  1.1015 -0.2392
 8688SOL    HW226643   3.016   4.831   8.491  0.2661  1.0920  0.4616
 8689SOL     OW26644   3.459   9.068   6.031  0.1804  0.4647  0.6980
 8689SOL    HW126645   3.420   9.072   6.118 -2.3657 -4.1297  0.1069
 8689SOL    HW226646   3.533   9.008   6.041  0.5983  0.8484 -0.0748
 8690SOL     OW26647   0.082   8.402   2.274 -0.4873 -0.0045  0.1259
 8690SOL    HW126648   0.042   8.457   2.206 -0.5361  1.1049  1.0214
 8690SOL    HW226649   0.019   8.404   2.346  0.7248  1.0280  1.2086
 8691SOL     OW26650   0.482   3.489   2.064  0.1397 -0.2627 -0.3585
 8691SOL    HW126651   0.498   3.507   1.972  2.1046  0.6450  0.1033
 8691SOL    HW226652   0.547   3.423   2.088 -0.2992 -0.4435  0.3971
 8692SOL     OW26653   8.067   6.010   4.975 -0.6411 -0.2769  0.0899
 8692SOL    HW126654   8.052   5.989   4.883  1.2350 -1.2055 -0.0408
 8692SOL    HW226655   8.088   5.927   5.016  2.4783  0.5930  0.4959
 8693SOL     OW26656   6.469   5.798   8.243  0.3668 -0.4579 -0.4320
 8693SOL    HW126657   6.405   5.813   8.174 -0.5228 -1.1551  0.2144
 8693SOL    HW226658   6.422   5.746   8.308  0.8515  1.0474  1.1934
 8694SOL     OW26659   8.528   6.733   4.969 -0.5040 -0.0547  0.4472
 8694SOL    HW126660   8.567   6.810   5.011  0.4491 -0.1355 -0.2565
 8694SOL    HW226661   8.583   6.660   4.996 -1.4440 -0.5207  1.1619
 8695SOL     OW26662   8.785   2.263   8.140 -0.0049 -0.0055  0.1027
 8695SOL    HW126663   8.709   2.221   8.099 -0.9707  1.9681 -0.2624
 8695SOL    HW226664   8.779   2.237   8.232 -2.4133  1.7671  0.5424
 8696SOL     OW26665   4.400   1.574   3.050  0.1291 -0.0673  0.0865
 8696SOL    HW126666   4.476   1.584   3.108  0.0283  1.2839  0.0010
 8696SOL    HW226667   4.342   1.645   3.074  0.4110  0.9974 -2.1692
 8697SOL     OW26668   5.489   5.422   7.720  0.0091  0.5070 -0.2608
 8697SOL    HW126669   5.455   5.488   7.780  1.3707 -0.5839  1.8493
 8697SOL    HW226670   5.582   5.442   7.712  0.3907 -0.9471  0.1943
 8698SOL     OW26671   4.960   1.587   9.524  0.0599  0.3847 -0.0609
 8698SOL    HW126672   5.050   1.618   9.526  0.1203  0.2237 -0.2685
 8698SOL    HW226673   4.958   1.514   9.585  0.7372 -1.3911 -2.0321
 8699SOL     OW26674   4.694   0.603   9.902  0.3017 -0.3616  0.2231
 8699SOL    HW126675   4.696   0.688   9.946 -3.5200 -1.1870  2.4455
 8699SOL    HW226676   4.656   0.621   9.816  0.1468  0.3041  0.4277
 8700SOL     OW26677   1.641   2.894   9.503 -0.4027  0.3663 -0.4648
 8700SOL    HW126678   1.619   2.901   9.410  0.3927  0.3996 -0.6597
 8700SOL    HW226679   1.564   2.927   9.548 -1.1223 -0.4156 -1.0887
 8701SOL     OW26680   5.380   0.277   8.166 -0.5849 -0.6985  0.3058
 8701SOL    HW126681   5.449   0.245   8.108  1.5641 -1.3538  3.0475
 8701SOL    HW226682   5.330   0.199   8.190 -1.9529 -0.3215 -1.1280
 8702SOL     OW26683   0.979   3.914   8.376  0.3131  0.2783 -0.3701
 8702SOL    HW126684   0.915   3.914   8.305 -1.2138  1.0306  0.9451
 8702SOL    HW226685   1.059   3.948   8.336 -0.5051  0.6835 -1.7363
 8703SOL     OW26686   6.153   7.093   5.613  0.0425 -0.5897  0.5127
 8703SOL    HW126687   6.085   7.119   5.675 -0.8746  2.5706 -1.5820
 8703SOL    HW226688   6.234   7.096   5.665 -0.8412  0.4778  1.9324
 8704SOL     OW26689   5.635   8.635   7.881  0.3174  0.2953 -0.0582
 8704SOL    HW126690   5.702   8.689   7.839 -0.3067 -0.1036 -1.6523
 8704SOL    HW226691   5.553   8.682   7.866  0.0746  0.1649  0.7919
 8705SOL     OW26692   5.791   7.249   7.336 -0.1791  0.3850  0.1151
 8705SOL    HW126693   5.807   7.194   7.413 -0.6886  1.4639  1.0239
 8705SOL    HW226694   5.714   7.210   7.295  0.2244 -0.3281  0.0101
 8706SOL     OW26695   6.004   3.393   7.030 -0.1102  0.0740 -0.1345
 8706SOL    HW126696   5.994   3.449   7.107  0.1645  0.2940 -0.2581
 8706SOL    HW226697   6.094   3.361   7.036 -0.1767 -0.1313 -0.2183
 8707SOL     OW26698   6.392   7.582   5.000  0.1006 -0.8771  0.3038
 8707SOL    HW126699   6.441   7.655   5.037 -1.9016  0.6566  0.0922
 8707SOL    HW226700   6.310   7.580   5.049 -1.0488 -1.1831 -1.5366
 8708SOL     OW26701   9.743   2.524   6.691  0.2094 -0.1216  0.2336
 8708SOL    HW126702   9.704   2.609   6.670  0.7968  0.5334  1.6867
 8708SOL    HW226703   9.830   2.528   6.652 -0.3534 -0.7494 -1.1582
 8709SOL     OW26704   9.320   1.281   2.111 -0.1208  0.2730 -0.1385
 8709SOL    HW126705   9.412   1.262   2.092  0.0715  0.6174  0.4291
 8709SOL    HW226706   9.282   1.300   2.025  0.2810 -0.1080 -0.4070
 8710SOL     OW26707   6.620   9.189   2.526  0.0120  0.2312 -0.2018
 8710SOL    HW126708   6.662   9.112   2.565 -1.2612 -0.4533 -0.1390
 8710SOL    HW226709   6.690   9.255   2.524  1.1167 -0.8891 -0.2102
 8711SOL     OW26710   3.242   2.877   7.465 -0.4617  0.6393 -0.3167
 8711SOL    HW126711   3.231   2.954   7.409  2.0877  1.6743  0.4915
 8711SOL    HW226712   3.307   2.824   7.420  0.2398  0.5824  0.7510
 8712SOL     OW26713   9.874   8.890   9.201  0.3041 -0.3694 -0.1536
 8712SOL    HW126714   9.873   8.871   9.107 -2.1820 -3.1739  0.2702
 8712SOL    HW226715   9.805   8.955   9.213 -0.1906 -0.8833 -0.1693
 8713SOL     OW26716   5.389   3.056   6.538 -0.5960 -0.5843 -0.1190
 8713SOL    HW126717   5.403   3.127   6.602 -2.5843 -1.2388  1.1241
 8713SOL    HW226718   5.328   3.093   6.475 -0.4857 -0.7150 -0.3026
 8714SOL     OW26719   6.874   7.049   2.698 -0.4959 -0.5054 -0.2417
 8714SOL    HW126720   6.849   6.971   2.747 -0.9458  0.1865  0.6715
 8714SOL    HW226721   6.875   7.021   2.607  1.3659 -2.0975  0.1933
 8715SOL     OW26722   4.745   1.189   3.990 -0.6393 -0.7468  0.3395
 8715SOL    HW126723   4.681   1.180   3.920 -0.5075 -3.3408  0.4762
 8715SOL    HW226724   4.714   1.264   4.041 -2.1438 -0.4069 -1.0032
 8716SOL     OW26725   9.997   2.746   8.130 -0.1141 -0.5209  0.0290
 8716SOL    HW126726   9.906   2.715   8.130 -0.6707  0.8598 -2.1281
 8716SOL    HW226727  10.013   2.774   8.220 -1.4535 -1.7857  0.6921
 8717SOL     OW26728   4.075   0.921   6.179  0.2299 -0.2565 -0.0852
 8717SOL    HW126729   4.137   0.851   6.155  0.9655  0.7262 -1.1658
 8717SOL    HW226730   4.021   0.933   6.101 -0.3642 -0.0902  0.3443
 8718SOL     OW26731   0.889   7.195   6.385 -0.3638  0.1974 -0.1220
 8718SOL    HW126732   0.840   7.140   6.324 -0.9656  0.3022  0.2545
 8718SOL    HW226733   0.935   7.258   6.330  0.0057 -0.4235 -0.5315
 8719SOL     OW26734   1.303   8.772   4.284 -1.1427  0.0328 -0.1494
 8719SOL    HW126735   1.266   8.686   4.302 -0.8078  0.2999  2.0061
 8719SOL    HW226736   1.372   8.784   4.349 -1.5699  2.1529  0.0006
 8720SOL     OW26737   2.615   7.575   3.265 -0.1275  0.5655 -0.4579
 8720SOL    HW126738   2.530   7.620   3.264 -1.3613 -1.5366  0.9938
 8720SOL    HW226739   2.600   7.495   3.214  0.7294 -0.2166  0.4763
 8721SOL     OW26740   4.863   7.959   1.644  0.1656 -0.4623 -0.0256
 8721SOL    HW126741   4.914   8.038   1.660  1.2048 -1.0886 -0.1143
 8721SOL    HW226742   4.854   7.954   1.549 -1.3788  0.4291  0.0439
 8722SOL     OW26743   6.695   5.692   0.938  0.1831  0.2403 -0.0447
 8722SOL    HW126744   6.757   5.752   0.896  2.1113 -1.4447  0.2413
 8722SOL    HW226745   6.619   5.692   0.880  1.8202 -0.2406 -2.3450
 8723SOL     OW26746   4.979   3.899   6.530 -0.3286  0.1193  0.7632
 8723SOL    HW126747   4.973   3.805   6.549 -1.4971 -0.3818 -1.6449
 8723SOL    HW226748   5.052   3.930   6.584 -0.2288 -2.0458  2.0032
 8724SOL     OW26749   2.891   8.440   0.824 -0.2476  0.0978 -0.1390
 8724SOL    HW126750   2.904   8.471   0.734  0.9226 -0.8004 -0.2996
 8724SOL    HW226751   2.979   8.438   0.862 -0.5852 -0.6868  0.6330
 8725SOL     OW26752   4.205   0.714   5.599 -0.1584  0.4953  0.3673
 8725SOL    HW126753   4.110   0.722   5.590 -0.7168 -2.5021  2.0932
 8725SOL    HW226754   4.217   0.640   5.658  3.2856  1.1964  0.7737
 8726SOL     OW26755   1.102   7.652   1.941 -0.4774  0.1036  0.2355
 8726SOL    HW126756   1.052   7.699   1.873 -0.7985  0.0852  0.4572
 8726SOL    HW226757   1.046   7.655   2.018 -0.3584 -0.3709  0.3415
 8727SOL     OW26758   7.637   3.024   8.541  0.7182  0.4513  0.5997
 8727SOL    HW126759   7.630   3.096   8.604  1.2136  0.6043  0.4785
 8727SOL    HW226760   7.595   2.950   8.586 -1.6351  1.2952 -0.0439
 8728SOL     OW26761   3.015   4.223   2.041  0.4673  0.0957 -0.3086
 8728SOL    HW126762   3.006   4.153   2.106 -0.6890 -1.0094 -1.6048
 8728SOL    HW226763   2.925   4.253   2.024  0.8701  1.3179 -0.4064
 8729SOL     OW26764   6.622   9.619   6.484 -0.0851 -0.2366  0.3731
 8729SOL    HW126765   6.707   9.575   6.492 -0.1135 -0.2370  0.7199
 8729SOL    HW226766   6.640   9.698   6.434  0.1308 -0.2171  0.4809
 8730SOL     OW26767   7.713   6.819   1.129  0.0282 -0.0964  0.1031
 8730SOL    HW126768   7.624   6.839   1.101  0.0559  0.4790  0.3906
 8730SOL    HW226769   7.713   6.839   1.223  1.3297  3.2968 -0.4727
 8731SOL     OW26770   0.274   8.665   3.502  0.2280 -0.3018  0.4239
 8731SOL    HW126771   0.309   8.594   3.449  1.2735  1.2023 -0.9844
 8731SOL    HW226772   0.346   8.689   3.560  0.2024  0.2173  0.2429
 8732SOL     OW26773   8.840   4.558   1.316  0.1452  0.1900  0.9039
 8732SOL    HW126774   8.769   4.508   1.278  0.9183 -0.0003 -0.3455
 8732SOL    HW226775   8.811   4.649   1.310 -0.9528 -0.0149  2.5235
 8733SOL     OW26776   9.906   2.719   0.963  0.3834  0.1262  0.2259
 8733SOL    HW126777   9.911   2.706   1.057  0.6748  2.3113  0.5742
 8733SOL    HW226778   9.956   2.646   0.926 -3.0702 -3.1939  1.4341
 8734SOL     OW26779   4.231   4.121   3.118 -0.1484 -0.4539 -0.1394
 8734SOL    HW126780   4.315   4.166   3.120  0.1827 -0.9393 -1.6468
 8734SOL    HW226781   4.246   4.043   3.065 -0.7342 -2.3474  2.2803
 8735SOL     OW26782   6.137   6.707   5.683 -0.0707 -0.5496 -0.5235
 8735SOL    HW126783   6.192   6.744   5.752 -0.9666 -1.5543  0.7625
 8735SOL    HW226784   6.059   6.762   5.682 -0.8164 -1.5472  0.4787
 8736SOL     OW26785   2.156   2.615   7.572  0.0541  0.2565  0.0874
 8736SOL    HW126786   2.087   2.635   7.508  1.3037 -0.3986 -1.5474
 8736SOL    HW226787   2.131   2.531   7.609 -0.5864  0.5425  0.3090
 8737SOL     OW26788   0.721   1.604   5.644  0.1942 -0.3494 -0.0149
 8737SOL    HW126789   0.778   1.586   5.570  1.0089  1.2799  0.1658
 8737SOL    HW226790   0.634   1.577   5.615  0.3673  0.8616 -1.8310
 8738SOL     OW26791   5.061   8.387   0.596 -0.2962 -0.5670 -0.6271
 8738SOL    HW126792   5.131   8.384   0.531 -0.0019 -0.1622 -0.3346
 8738SOL    HW226793   5.103   8.358   0.677  0.2988  2.3444  0.1983
 8739SOL     OW26794   2.295   8.344   2.833  0.4809 -0.8047  0.3126
 8739SOL    HW126795   2.390   8.338   2.824  0.4931 -1.4073  0.7856
 8739SOL    HW226796   2.277   8.438   2.829  1.5441 -0.2316  4.2690
 8740SOL     OW26797   3.159   4.709   7.744 -0.1791 -0.1596  0.2378
 8740SOL    HW126798   3.110   4.736   7.822 -2.6916  1.6005 -1.7648
 8740SOL    HW226799   3.115   4.754   7.671  2.9827 -0.4659 -2.0746
 8741SOL     OW26800   3.270   6.651   4.518  0.2474  0.3621 -0.6094
 8741SOL    HW126801   3.204   6.707   4.560 -1.1795 -2.1116  0.6951
 8741SOL    HW226802   3.239   6.642   4.428  0.0932  1.0492 -0.6340
 8742SOL     OW26803   8.058   3.869   5.356 -0.6170 -0.3875 -0.0396
 8742SOL    HW126804   8.117   3.925   5.406  0.0515 -0.3277 -0.8671
 8742SOL    HW226805   7.974   3.915   5.358 -0.2199  0.3666 -0.2258
 8743SOL     OW26806   6.226   6.532   6.784  0.4349 -0.6897 -0.0722
 8743SOL    HW126807   6.287   6.603   6.763 -0.8252  0.1247 -1.1235
 8743SOL    HW226808   6.178   6.517   6.702 -1.6361 -0.4491  1.0487
 8744SOL     OW26809   0.237   3.245   5.517 -0.1352 -0.0336 -0.3181
 8744SOL    HW126810   0.200   3.332   5.501 -2.2829 -0.5735  1.2721
 8744SOL    HW226811   0.305   3.259   5.583 -2.4289  0.2137  2.1838
 8745SOL     OW26812   7.748   3.877   2.426  0.4199  0.3392  0.6038
 8745SOL    HW126813   7.690   3.801   2.433 -1.0754  1.0553 -2.2682
 8745SOL    HW226814   7.701   3.946   2.473 -0.3310  0.5112 -0.3657
 8746SOL     OW26815   6.075   0.165   9.626 -0.6934  0.1844 -0.5945
 8746SOL    HW126816   6.009   0.234   9.624 -1.4497 -0.5396 -1.4015
 8746SOL    HW226817   6.034   0.091   9.581 -0.0697 -0.9440  0.6153
 8747SOL     OW26818   9.911   9.622   2.308  0.2145 -0.1679  0.4258
 8747SOL    HW126819   9.977   9.576   2.257 -1.4168 -1.1132 -0.9286
 8747SOL    HW226820   9.960   9.690   2.354  1.9343  0.1079 -1.6358
 8748SOL     OW26821   8.198   5.502   8.634  0.4213 -0.2482  0.5102
 8748SOL    HW126822   8.111   5.530   8.664  0.8415  1.0181  0.6123
 8748SOL    HW226823   8.233   5.452   8.708  0.1816  0.1107  0.8749
 8749SOL     OW26824   7.539   1.760   3.198  0.1320 -0.0226  0.0589
 8749SOL    HW126825   7.535   1.742   3.292  0.5228 -0.0726  0.0687
 8749SOL    HW226826   7.479   1.696   3.159 -1.9036  1.5256  0.4628
 8750SOL     OW26827   8.869   1.027   0.622  0.2563 -0.3981 -0.1861
 8750SOL    HW126828   8.959   1.012   0.594  0.3679  0.8358 -0.5113
 8750SOL    HW226829   8.817   0.969   0.566  0.6662  0.4788 -1.5121
 8751SOL     OW26830   2.509   0.778   8.606  0.7668 -0.2433 -0.1656
 8751SOL    HW126831   2.590   0.808   8.647  1.3059 -1.1812 -0.5207
 8751SOL    HW226832   2.512   0.683   8.615 -0.0349 -0.3189 -0.6710
 8752SOL     OW26833   0.185   5.543   7.879  0.1399  0.0478  0.2874
 8752SOL    HW126834   0.159   5.493   7.956  0.8607 -0.9240 -0.0764
 8752SOL    HW226835   0.242   5.484   7.830 -0.1567  0.7031 -0.9047
 8753SOL     OW26836   0.355   3.568   2.295  0.4052  0.5500 -0.0054
 8753SOL    HW126837   0.375   3.658   2.321  1.5297 -0.0507  1.3619
 8753SOL    HW226838   0.440   3.528   2.280 -0.0235 -0.5534  0.4126
 8754SOL     OW26839   8.678   4.597   2.420 -0.4975 -0.1906 -0.6320
 8754SOL    HW126840   8.726   4.598   2.337  1.0004  0.8903  0.2002
 8754SOL    HW226841   8.589   4.625   2.397 -0.4325 -1.0572 -2.0254
 8755SOL     OW26842   2.435   6.155   1.717 -0.1289  0.0964 -0.2406
 8755SOL    HW126843   2.481   6.190   1.793 -1.4584  0.6610  0.3320
 8755SOL    HW226844   2.342   6.169   1.736 -0.5716 -1.1652 -1.2797
 8756SOL     OW26845   3.168   7.286   6.250 -0.4113  0.3551  0.5270
 8756SOL    HW126846   3.134   7.197   6.261  0.0541  0.1349  0.2319
 8756SOL    HW226847   3.251   7.274   6.203 -0.1716  0.9142  0.7941
 8757SOL     OW26848   2.184   1.006   1.468 -0.1598  0.0025  0.5209
 8757SOL    HW126849   2.196   1.070   1.538 -0.7816 -1.3079  1.8857
 8757SOL    HW226850   2.090   1.004   1.452  0.0011  0.4708 -0.5493
 8758SOL     OW26851   8.614   9.546   3.147  0.3886 -0.2509  0.2261
 8758SOL    HW126852   8.643   9.500   3.068 -1.5721  0.7812 -1.1873
 8758SOL    HW226853   8.530   9.506   3.168  0.6350 -0.1353  1.4954
 8759SOL     OW26854   6.897   8.819   8.014 -0.3199  0.5689 -1.0226
 8759SOL    HW126855   6.862   8.779   8.093  0.8627  0.9306 -0.2886
 8759SOL    HW226856   6.820   8.847   7.965 -1.0646  1.1362  0.4128
 8760SOL     OW26857   6.015   9.898   8.093  0.1248  0.3087 -0.1601
 8760SOL    HW126858   6.070   9.877   8.168 -0.4616  0.2453  0.2650
 8760SOL    HW226859   5.926   9.897   8.128 -0.1051  0.9715 -0.7066
 8761SOL     OW26860   8.588   5.583   0.280  0.6474  0.0311  0.2074
 8761SOL    HW126861   8.586   5.553   0.189  0.8122 -1.5644  0.6896
 8761SOL    HW226862   8.663   5.642   0.285  0.4174  0.4088 -0.7727
 8762SOL     OW26863   2.891   6.861   5.042 -0.5239  0.1068 -0.1224
 8762SOL    HW126864   2.961   6.815   5.089  2.1064  0.9650 -2.9052
 8762SOL    HW226865   2.830   6.886   5.111  3.4438  2.1009  3.1269
 8763SOL     OW26866   6.698   1.961   4.693 -0.4386 -0.2564 -0.2417
 8763SOL    HW126867   6.620   1.906   4.700  0.2984 -1.3101  0.0254
 8763SOL    HW226868   6.709   1.975   4.599 -1.3985  0.5819 -0.2398
 8764SOL     OW26869   6.767   6.023   2.941  0.1538  0.2539  0.3014
 8764SOL    HW126870   6.823   6.085   2.893 -0.5392  1.7471  1.3516
 8764SOL    HW226871   6.680   6.036   2.903  0.2345 -1.0637 -0.3750
 8765SOL     OW26872   4.901   4.696   9.772  0.0926 -0.1582 -0.1257
 8765SOL    HW126873   4.941   4.783   9.761  3.4585 -1.6695 -1.1272
 8765SOL    HW226874   4.832   4.710   9.836 -0.2625  3.4457 -1.0342
 8766SOL     OW26875   8.253   7.437   2.733 -0.7953 -0.3440 -0.0366
 8766SOL    HW126876   8.212   7.357   2.767 -0.3146 -0.4500  0.2979
 8766SOL    HW226877   8.221   7.443   2.643  0.3572 -1.7538 -0.5781
 8767SOL     OW26878   7.527   3.952   5.479 -0.4695  0.3766  0.2734
 8767SOL    HW126879   7.537   3.985   5.569 -0.5554  1.3053 -0.0526
 8767SOL    HW226880   7.432   3.939   5.469 -0.3818 -0.7417  0.6526
 8768SOL     OW26881   5.986   8.563   7.914  0.0645  0.1457  0.1079
 8768SOL    HW126882   5.935   8.551   7.834 -0.4171 -0.9193  0.5414
 8768SOL    HW226883   5.925   8.606   7.974 -0.4756 -1.4499  0.7431
 8769SOL     OW26884   7.017   8.058   7.350 -0.1591 -0.0152  0.1294
 8769SOL    HW126885   6.954   7.995   7.316  0.0986  1.1224 -2.7263
 8769SOL    HW226886   7.069   8.008   7.414 -2.0970 -1.7138  0.4610
 8770SOL     OW26887   9.963   3.689   3.623 -0.5506  0.2778  0.0152
 8770SOL    HW126888   9.917   3.605   3.621  0.7306 -0.4933  1.0514
 8770SOL    HW226889   9.935   3.734   3.544 -0.2789 -1.6885 -1.2667
 8771SOL     OW26890   7.272   8.635   3.675  0.2446 -0.3542 -0.1722
 8771SOL    HW126891   7.358   8.677   3.668 -0.5014  1.3162  0.1024
 8771SOL    HW226892   7.212   8.697   3.632 -0.9417 -1.0930  0.3673
 8772SOL     OW26893   0.636   9.475   9.786 -0.3008 -0.5974 -0.3009
 8772SOL    HW126894   0.719   9.523   9.783  0.0963 -1.0705  1.6458
 8772SOL    HW226895   0.583   9.523   9.849  0.1210 -2.6108  1.7299
 8773SOL     OW26896   9.319   1.662   3.101  0.0096 -0.0035  0.8389
 8773SOL    HW126897   9.307   1.752   3.071 -0.0294  0.2552  1.5952
 8773SOL    HW226898   9.234   1.620   3.086  0.7716 -0.7343 -2.0543
 8774SOL     OW26899   1.261   6.267   3.409 -0.6346  0.1058 -0.1848
 8774SOL    HW126900   1.282   6.275   3.502 -2.9131  1.8249  0.2944
 8774SOL    HW226901   1.322   6.327   3.366  0.1879 -0.4180  0.2219
 8775SOL     OW26902   9.754   4.673   8.645 -0.0210  0.4297  0.7984
 8775SOL    HW126903   9.785   4.655   8.734 -0.5339  0.8610  1.0720
 8775SOL    HW226904   9.674   4.725   8.658 -0.6967 -0.4053  0.1088
 8776SOL     OW26905   6.051   8.011   5.378 -0.0917  0.4371  0.2643
 8776SOL    HW126906   6.089   8.092   5.347 -0.3773  0.4891  0.0431
 8776SOL    HW226907   5.985   8.039   5.442 -2.1054  0.5622 -1.7539
 8777SOL     OW26908   7.314   4.601   4.808  0.6487 -0.5823 -0.4754
 8777SOL    HW126909   7.316   4.697   4.807 -1.8461 -0.4808 -1.0936
 8777SOL    HW226910   7.289   4.579   4.898  1.4341 -0.6918 -0.2735
 8778SOL     OW26911   5.084   5.846   3.857 -0.0381 -0.4428 -0.2592
 8778SOL    HW126912   5.089   5.848   3.952 -1.0769  0.9233 -0.1991
 8778SOL    HW226913   5.175   5.838   3.828  0.4864  1.0749  0.8383
 8779SOL     OW26914   9.475   7.324   5.360 -0.0665  0.2403  0.0107
 8779SOL    HW126915   9.569   7.328   5.377  0.2190 -0.3892 -1.3187
 8779SOL    HW226916   9.451   7.415   5.338 -0.0976  0.7091  1.8398
 8780SOL     OW26917   9.061   0.530   5.930 -0.8584  0.6721  0.0085
 8780SOL    HW126918   9.145   0.572   5.912 -0.2802 -0.3456  0.2489
 8780SOL    HW226919   9.019   0.587   5.994  0.3466  0.3649  1.1023
 8781SOL     OW26920   3.528   7.917   7.002  0.7374 -0.0910  0.4439
 8781SOL    HW126921   3.556   7.917   6.911  2.6961  0.4950  1.0121
 8781SOL    HW226922   3.607   7.899   7.052  0.1585  1.7766  2.1496
 8782SOL     OW26923   4.959   1.804   3.008  0.0481 -0.6320  0.2999
 8782SOL    HW126924   4.975   1.818   3.102  0.3104  2.4507 -0.0917
 8782SOL    HW226925   5.046   1.785   2.972  0.7938  2.4663  0.1638
 8783SOL     OW26926   8.769   1.902   8.818  0.2309  0.2707  0.1503
 8783SOL    HW126927   8.837   1.963   8.844  0.4113 -0.5791  1.8088
 8783SOL    HW226928   8.816   1.826   8.783  0.1694 -0.2722  1.1973
 8784SOL     OW26929   5.590   1.502   2.795  0.0821 -0.3299 -0.4616
 8784SOL    HW126930   5.553   1.434   2.738 -0.9572 -0.1916  0.0245
 8784SOL    HW226931   5.576   1.584   2.748 -3.0035  0.1046  0.9272
 8785SOL     OW26932   2.614   5.321   7.468  0.1547  0.1332  0.1733
 8785SOL    HW126933   2.564   5.253   7.513 -2.5093  1.3015 -0.8014
 8785SOL    HW226934   2.686   5.275   7.427  0.9745 -1.3985  3.0841
 8786SOL     OW26935   3.762   8.403   1.305 -0.0835  0.3145  0.0178
 8786SOL    HW126936   3.669   8.388   1.286 -0.6371  1.3665  1.6359
 8786SOL    HW226937   3.764   8.493   1.340  1.7235  0.7398 -1.0769
 8787SOL     OW26938   1.791   0.451   1.903 -0.2820 -0.2597  0.6318
 8787SOL    HW126939   1.732   0.447   1.978  0.1096 -2.2021  0.8776
 8787SOL    HW226940   1.766   0.376   1.849 -0.4878  1.0401 -1.1634
 8788SOL     OW26941   6.515   8.246   3.990 -0.2572 -0.4973 -0.6566
 8788SOL    HW126942   6.539   8.202   3.908  2.6582 -1.2286  0.4598
 8788SOL    HW226943   6.598   8.253   4.038 -1.7731  0.3718  2.0238
 8789SOL     OW26944   2.592   9.535   2.328  0.1769  0.4584  0.6793
 8789SOL    HW126945   2.647   9.485   2.389  0.5999  0.1750  0.0768
 8789SOL    HW226946   2.648   9.548   2.251 -0.0815  1.4699  0.6425
 8790SOL     OW26947   8.866   0.941   5.993 -0.2019  0.1713  1.0212
 8790SOL    HW126948   8.790   0.884   6.003 -1.0989  1.1497  0.0497
 8790SOL    HW226949   8.830   1.029   5.992  0.6414  0.5954 -1.5592
 8791SOL     OW26950   0.214   5.396   5.112  0.9324 -0.0658 -0.7267
 8791SOL    HW126951   0.303   5.366   5.133 -0.1080 -2.0058  1.3925
 8791SOL    HW226952   0.159   5.319   5.126 -1.1890  1.2806 -1.2681
 8792SOL     OW26953   0.035   1.319   9.023  0.2029 -0.4685 -0.4621
 8792SOL    HW126954   0.043   1.244   9.083 -2.1994  0.6503  1.4263
 8792SOL    HW226955   0.121   1.360   9.024  0.2392 -0.4350  2.4065
 8793SOL     OW26956   5.359   2.782   9.845  0.0855 -0.4461  0.2705
 8793SOL    HW126957   5.403   2.697   9.837 -0.8552 -0.8560 -0.9857
 8793SOL    HW226958   5.387   2.816   9.930  0.4679 -2.0275  0.8145
 8794SOL     OW26959   6.294   9.155   7.676 -0.1483 -0.0807  0.1231
 8794SOL    HW126960   6.311   9.171   7.583 -0.5890 -0.9475 -0.1115
 8794SOL    HW226961   6.206   9.190   7.691 -0.0432  0.1370  0.2377
 8795SOL     OW26962   2.598   1.092   2.932 -0.8272 -0.0468 -0.5096
 8795SOL    HW126963   2.586   1.184   2.955 -1.9629 -0.5227  0.9700
 8795SOL    HW226964   2.515   1.066   2.892 -1.4884 -1.0243  1.3624
 8796SOL     OW26965   5.180   5.958   0.440  0.5249 -0.4730  0.7094
 8796SOL    HW126966   5.253   6.019   0.431  1.4626 -1.5114  1.0842
 8796SOL    HW226967   5.208   5.895   0.506 -1.0743 -0.4010  1.5121
 8797SOL     OW26968   0.158   1.723   7.242  0.2795 -0.2494  0.8239
 8797SOL    HW126969   0.082   1.670   7.216 -0.1274  0.7591 -0.1033
 8797SOL    HW226970   0.231   1.661   7.244 -0.3505 -1.0137  0.6031
 8798SOL     OW26971   0.219   1.114   3.079  0.2386 -0.0555  0.0639
 8798SOL    HW126972   0.246   1.095   3.169  0.1494 -0.8062 -0.0613
 8798SOL    HW226973   0.161   1.042   3.056  1.0681 -0.4097 -0.9551
 8799SOL     OW26974   8.484   3.673   9.889  0.5781  0.2206 -0.3350
 8799SOL    HW126975   8.458   3.763   9.913  0.1804 -0.1695  0.7544
 8799SOL    HW226976   8.417   3.618   9.930  1.0031 -0.5961 -0.7372
 8800SOL     OW26977   6.121   7.105   6.502 -0.1698 -0.3679  0.3180
 8800SOL    HW126978   6.087   7.145   6.422 -1.0219 -1.0071  0.3503
 8800SOL    HW226979   6.207   7.146   6.515 -0.4723  0.4936 -0.3485
 8801SOL     OW26980   8.427   1.559   2.957  0.2018  0.1567 -0.0956
 8801SOL    HW126981   8.494   1.491   2.965 -1.1817 -1.5009 -1.5946
 8801SOL    HW226982   8.372   1.529   2.884 -0.9755  2.4904 -0.2487
 8802SOL     OW26983   5.646   8.297   8.893 -0.2493  0.3611  0.6941
 8802SOL    HW126984   5.689   8.355   8.830 -0.8113 -1.1916 -1.2256
 8802SOL    HW226985   5.717   8.254   8.939  0.3318 -1.0444 -1.3789
 8803SOL     OW26986   3.810   8.359   9.113  0.3349 -0.0390  0.1336
 8803SOL    HW126987   3.741   8.323   9.169 -1.6408  1.2175 -1.3237
 8803SOL    HW226988   3.825   8.291   9.047  2.5670 -1.4618  1.9468
 8804SOL     OW26989   4.829   6.039   8.782 -0.4179 -0.1272  0.6188
 8804SOL    HW126990   4.787   6.081   8.858 -0.3182  0.3660  0.4066
 8804SOL    HW226991   4.898   6.100   8.756 -1.4673  0.4903 -0.8507
 8805SOL     OW26992   0.416   9.389   3.138  0.5965 -0.0928  0.2215
 8805SOL    HW126993   0.391   9.459   3.198 -0.1243  0.7212 -1.0014
 8805SOL    HW226994   0.334   9.363   3.095  1.0803 -0.7366 -0.3445
 8806SOL     OW26995   2.927   7.974   3.016 -0.2815  0.0741  0.4511
 8806SOL    HW126996   2.876   7.897   2.989  0.5900 -0.5639  0.5702
 8806SOL    HW226997   2.879   8.048   2.980 -0.4259 -0.6066 -0.8449
 8807SOL     OW26998   5.681   9.391   5.913  0.1824  0.0788 -0.0865
 8807SOL    HW126999   5.771   9.379   5.882  0.3144 -2.2737  1.0454
 8807SOL    HW227000   5.691   9.428   6.001 -0.1129  2.7820 -1.0797
 8808SOL     OW27001   1.281   6.656   5.792  0.6238 -0.6186  0.2491
 8808SOL    HW127002   1.354   6.613   5.749  0.2843 -1.8172  0.7972
 8808SOL    HW227003   1.275   6.612   5.877 -0.1353  0.1102  0.5869
 8809SOL     OW27004   3.640   0.453   0.397 -0.6024 -0.2637 -0.0599
 8809SOL    HW127005   3.565   0.513   0.399 -0.5865 -0.2601  0.6495
 8809SOL    HW227006   3.631   0.407   0.314 -1.4976 -0.3893  0.0936
 8810SOL     OW27007   4.183   6.492   3.442 -0.1904 -0.4215 -0.3275
 8810SOL    HW127008   4.168   6.523   3.531  0.3203  0.4093 -0.5172
 8810SOL    HW227009   4.105   6.521   3.394  0.6210  1.3485 -0.6776
 8811SOL     OW27010   2.098   0.482   1.784 -0.5814 -0.6362 -1.0103
 8811SOL    HW127011   2.108   0.508   1.875 -2.0206  2.0722 -1.5370
 8811SOL    HW227012   2.004   0.469   1.772 -0.6418  0.8314 -2.5027
 8812SOL     OW27013   8.610   8.081   7.484 -0.0521 -0.3668  0.1404
 8812SOL    HW127014   8.689   8.102   7.435 -0.0331 -0.1687  0.2558
 8812SOL    HW227015   8.551   8.042   7.419  0.8038 -2.2223  0.3959
 8813SOL     OW27016   2.885   1.463   9.013 -0.2915  0.0693  0.7440
 8813SOL    HW127017   2.854   1.536   8.959 -3.3521 -1.5570  0.0766
 8813SOL    HW227018   2.954   1.501   9.067 -0.9605  3.1601 -0.3542
 8814SOL     OW27019   0.170   4.935   7.666  0.1066  0.0916 -0.4194
 8814SOL    HW127020   0.170   5.028   7.690  0.9646 -0.0262  0.0403
 8814SOL    HW227021   0.186   4.888   7.747  0.2177 -0.4407 -0.7418
 8815SOL     OW27022   1.201   7.494   9.509  0.1616 -0.0519 -0.0966
 8815SOL    HW127023   1.245   7.490   9.424  0.3255 -1.8353  0.0322
 8815SOL    HW227024   1.246   7.564   9.556  0.3623  0.6531 -1.3102
 8816SOL     OW27025   8.191   7.753   6.374 -0.1245 -0.6127 -0.4564
 8816SOL    HW127026   8.106   7.772   6.332 -0.3691 -2.1508 -0.7248
 8816SOL    HW227027   8.219   7.837   6.411 -0.0226  0.8308 -3.4665
 8817SOL     OW27028   0.099   0.435   5.747 -0.2504 -0.0886  0.3318
 8817SOL    HW127029   0.105   0.512   5.690  0.5555 -1.6819 -1.9165
 8817SOL    HW227030   0.178   0.439   5.801 -1.7806  2.2811  2.6596
 8818SOL     OW27031   5.373   7.948   5.326 -0.4172  0.2552 -0.1245
 8818SOL    HW127032   5.309   7.886   5.361  0.4457 -0.2957  0.5095
 8818SOL    HW227033   5.383   7.924   5.234 -0.5756 -0.1191 -0.0426
 8819SOL     OW27034   4.574   1.564   3.704 -0.0532 -0.6945  0.0401
 8819SOL    HW127035   4.601   1.500   3.638 -0.3238  1.3913 -2.2396
 8819SOL    HW227036   4.652   1.580   3.756  0.7480 -0.9477 -1.0502
 8820SOL     OW27037   8.984   6.346   4.364 -0.3005 -0.0605 -0.3115
 8820SOL    HW127038   8.969   6.337   4.270  0.8706  0.6350 -0.5864
 8820SOL    HW227039   8.950   6.433   4.387  1.0681  0.5552 -0.4880
 8821SOL     OW27040   8.001   7.953   8.908  0.3174  0.0050 -0.3632
 8821SOL    HW127041   8.006   7.950   9.004 -2.7865 -2.0767 -0.1219
 8821SOL    HW227042   7.958   8.036   8.889  0.0620 -0.0176  0.1081
 8822SOL     OW27043   7.776   1.962   1.945 -0.2554 -0.1953  0.8204
 8822SOL    HW127044   7.745   1.881   1.905  1.8030 -0.0628 -1.2540
 8822SOL    HW227045   7.727   2.031   1.901 -0.1111 -0.1945  0.6596
 8823SOL     OW27046   1.877   2.177   7.078  0.5970  0.5308 -0.0549
 8823SOL    HW127047   1.953   2.122   7.060  0.2112  0.8981 -3.5378
 8823SOL    HW227048   1.909   2.266   7.066 -0.2818  0.7014 -1.3032
 8824SOL     OW27049   7.726   9.944   9.931  0.5866  0.4764  0.0974
 8824SOL    HW127050   7.654   9.975   9.877  0.4407  1.4194  0.7922
 8824SOL    HW227051   7.719   9.849   9.930 -0.1251  0.5317 -0.5603
 8825SOL     OW27052   9.176   1.281   3.869  0.4272 -0.3451 -0.3213
 8825SOL    HW127053   9.097   1.265   3.817 -0.5936  1.9625  0.3918
 8825SOL    HW227054   9.199   1.372   3.849  2.1151 -0.5508  0.5493
 8826SOL     OW27055   0.785   9.082   5.404 -0.0518 -0.2748  0.7015
 8826SOL    HW127056   0.852   9.129   5.354 -0.6402  0.4018  0.5373
 8826SOL    HW227057   0.732   9.037   5.337 -0.5079  0.1921  0.7428
 8827SOL     OW27058   3.040   5.245   0.703 -0.0505 -0.1941  0.4846
 8827SOL    HW127059   2.959   5.228   0.750  0.2537 -1.3293  0.6064
 8827SOL    HW227060   3.085   5.161   0.699  0.2825  0.0161 -1.1824
 8828SOL     OW27061   0.296   1.988   9.928  0.0441 -0.0569 -0.5740
 8828SOL    HW127062   0.212   1.999   9.972  0.3489 -0.9724  0.3000
 8828SOL    HW227063   0.337   2.074   9.931 -0.7925  0.3581 -0.8782
 8829SOL     OW27064   6.177   1.327   8.669  0.7734 -0.2332 -0.7354
 8829SOL    HW127065   6.096   1.288   8.635  0.0995 -1.5598  2.0915
 8829SOL    HW227066   6.155   1.420   8.680  0.2980 -0.2052 -1.7634
 8830SOL     OW27067   3.616   6.988   3.449 -0.1396  0.3075  0.4491
 8830SOL    HW127068   3.619   6.999   3.544  2.3028  0.6587  0.3882
 8830SOL    HW227069   3.704   7.010   3.419 -0.6728 -0.3814 -1.8449
 8831SOL     OW27070   0.405   2.974   8.637  0.1064  0.5209  0.0028
 8831SOL    HW127071   0.449   2.947   8.556  0.7598 -0.3650  0.6328
 8831SOL    HW227072   0.326   2.919   8.641  0.2858  0.2709  0.1638
 8832SOL     OW27073   5.817   9.759   7.806 -0.0584  0.1334 -0.9190
 8832SOL    HW127074   5.883   9.819   7.772 -1.0397  2.0636  0.3544
 8832SOL    HW227075   5.851   9.672   7.787  3.1683  0.9856  0.2430
 8833SOL     OW27076   1.565   6.340   5.281 -0.1080 -0.0865  0.3931
 8833SOL    HW127077   1.627   6.406   5.313 -0.6332 -0.6003  2.6426
 8833SOL    HW227078   1.555   6.359   5.187  1.0523  1.9374  0.6367
 8834SOL     OW27079   1.218   8.599   9.843  0.6920 -0.1154 -0.7348
 8834SOL    HW127080   1.201   8.588   9.750  2.5962 -2.3117 -0.9089
 8834SOL    HW227081   1.206   8.512   9.881  1.9308  0.2867  0.6840
 8835SOL     OW27082   2.560   6.603   2.543  0.0792 -0.3917 -0.1062
 8835SOL    HW127083   2.592   6.681   2.497  1.1470 -0.3350  0.6729
 8835SOL    HW227084   2.470   6.624   2.568 -0.0528  0.1000 -0.9787
 8836SOL     OW27085   0.910   4.955   5.727 -0.3313 -0.3223 -0.1913
 8836SOL    HW127086   0.890   4.999   5.810  0.7363 -0.0305 -0.0713
 8836SOL    HW227087   0.832   4.903   5.708 -1.2959  0.9795  0.0818
 8837SOL     OW27088   1.097   7.579   7.101 -0.0182 -0.2628  0.0923
 8837SOL    HW127089   1.143   7.558   7.020 -0.6902 -2.8264  0.2720
 8837SOL    HW227090   1.108   7.501   7.155 -1.9013  0.2910  1.3683
 8838SOL     OW27091   0.376   8.174   1.794 -0.6894  0.2451  0.4134
 8838SOL    HW127092   0.453   8.131   1.755 -1.2423 -0.3173 -0.0700
 8838SOL    HW227093   0.403   8.265   1.804 -0.8155  0.6447 -2.1636
 8839SOL     OW27094   0.513   0.965   5.799  0.2118 -0.0353  0.0486
 8839SOL    HW127095   0.594   0.996   5.840  0.0026  1.1399 -0.4020
 8839SOL    HW227096   0.534   0.876   5.769  0.7075 -0.5245  1.7104
 8840SOL     OW27097   4.949   4.798   0.143 -0.3744 -0.4749  0.2038
 8840SOL    HW127098   4.952   4.845   0.227 -0.3130  1.0297 -0.6008
 8840SOL    HW227099   4.860   4.764   0.138 -1.4774  2.2233 -0.5059
 8841SOL     OW27100   7.490   3.019   6.467 -0.2423 -0.4767 -0.6998
 8841SOL    HW127101   7.435   3.083   6.512  1.1659  1.8318 -2.0700
 8841SOL    HW227102   7.450   2.935   6.487 -1.9827  0.7683  1.4934
 8842SOL     OW27103   7.175   1.540   8.352  0.0129  0.4555 -0.4960
 8842SOL    HW127104   7.090   1.584   8.358  0.0412  0.5216 -0.5838
 8842SOL    HW227105   7.199   1.523   8.443 -0.3171  0.0108 -0.4895
 8843SOL     OW27106   4.447   1.646   2.304  0.5113  0.0038  0.0176
 8843SOL    HW127107   4.388   1.576   2.278 -0.9240  0.4864  1.7900
 8843SOL    HW227108   4.389   1.716   2.335  1.9343  1.5549 -0.6625
 8844SOL     OW27109   7.999   4.809   8.188  0.4462 -0.0909  0.0194
 8844SOL    HW127110   8.081   4.851   8.214  1.5376 -1.0689 -1.6559
 8844SOL    HW227111   7.932   4.858   8.235  1.5164  4.1477 -2.3119
 8845SOL     OW27112   6.131   4.073   3.909  0.4415  0.0345  0.3091
 8845SOL    HW127113   6.175   4.055   3.826 -1.6888  2.1936 -1.4475
 8845SOL    HW227114   6.174   4.152   3.942  0.0516  0.2861  0.2295
 8846SOL     OW27115   3.699   3.693   3.968 -0.1307 -0.5512  0.3862
 8846SOL    HW127116   3.668   3.621   3.914  0.5749 -0.9829  0.5468
 8846SOL    HW227117   3.681   3.772   3.916  2.0014 -1.0376 -1.2294
 8847SOL     OW27118   6.855   1.543   2.074  0.1703  0.5068  0.1838
 8847SOL    HW127119   6.882   1.506   1.989  0.4735 -3.2247  1.7074
 8847SOL    HW227120   6.761   1.529   2.077  0.4345 -1.3994  1.2164
 8848SOL     OW27121   5.022   7.875   3.385 -0.0747 -0.2750  0.6354
 8848SOL    HW127122   4.980   7.811   3.442  0.8696  0.4105  2.1627
 8848SOL    HW227123   5.083   7.922   3.442 -0.2957  1.5879 -0.5620
 8849SOL     OW27124   9.888   5.211   8.676 -0.2361 -0.1027  0.5156
 8849SOL    HW127125   9.882   5.158   8.596  0.2187  0.3701  0.1545
 8849SOL    HW227126   9.970   5.182   8.717 -0.0271  0.2649  0.3577
 8850SOL     OW27127   2.360   1.690   9.183 -0.5732  0.5753  0.2707
 8850SOL    HW127128   2.379   1.653   9.268  0.5238 -0.1576 -0.2714
 8850SOL    HW227129   2.445   1.723   9.152 -0.4427 -1.2211 -1.4861
 8851SOL     OW27130   6.283   1.661   5.990  0.8192  0.2919 -0.0098
 8851SOL    HW127131   6.319   1.667   6.079  2.1296 -0.9570 -0.4273
 8851SOL    HW227132   6.358   1.636   5.936 -0.4419 -1.3016 -1.0954
 8852SOL     OW27133   9.587   1.090   5.606 -0.5363  0.2640 -0.2455
 8852SOL    HW127134   9.615   1.164   5.661  1.1246 -1.0158  0.7515
 8852SOL    HW227135   9.517   1.126   5.551 -0.2627  2.3803  0.6716
 8853SOL     OW27136   0.097   0.161   4.692 -0.7571 -0.0342 -0.0770
 8853SOL    HW127137   0.079   0.215   4.769  0.7009  1.9612 -1.0516
 8853SOL    HW227138   0.029   0.185   4.630 -0.4703  0.2384 -0.2896
 8854SOL     OW27139   3.970   8.162   5.015 -0.5447  0.2013 -0.3076
 8854SOL    HW127140   4.052   8.184   4.970 -0.1289 -0.7563 -0.0500
 8854SOL    HW227141   3.926   8.246   5.026 -0.4376  0.5239 -2.0443
 8855SOL     OW27142   6.019   7.063   8.118  0.0809  0.2542 -0.0755
 8855SOL    HW127143   6.091   7.120   8.091  0.3263 -0.3630 -0.7439
 8855SOL    HW227144   6.001   7.008   8.042 -0.2294 -0.4874  0.5200
 8856SOL     OW27145   8.353   5.043   0.960 -0.2207  0.7414  0.7100
 8856SOL    HW127146   8.296   4.995   0.901 -1.7767  0.4931  2.3307
 8856SOL    HW227147   8.442   5.018   0.933 -0.9199 -0.8141 -0.2833
 8857SOL     OW27148   6.593   3.243   0.215 -0.1803  0.3284 -0.3363
 8857SOL    HW127149   6.565   3.169   0.268  0.8489 -0.2169 -0.5343
 8857SOL    HW227150   6.684   3.224   0.192 -0.3712  0.8989 -1.6908
 8858SOL     OW27151   5.240   7.192   4.445  0.1151 -0.5843  0.3858
 8858SOL    HW127152   5.212   7.139   4.370 -1.3749 -0.2820  0.6817
 8858SOL    HW227153   5.178   7.169   4.515  1.6513 -1.0929  1.6542
 8859SOL     OW27154   5.663   5.089   9.739  0.0890 -0.1112  0.4309
 8859SOL    HW127155   5.591   5.038   9.703  0.5574 -0.9606  0.6878
 8859SOL    HW227156   5.629   5.124   9.822 -0.5190  0.7226 -0.1476
 8860SOL     OW27157   5.171   1.867   7.805 -0.0240  0.3407  0.4750
 8860SOL    HW127158   5.255   1.838   7.769  1.0922  0.8507  2.5105
 8860SOL    HW227159   5.132   1.789   7.844 -0.3474  0.1845 -0.1397
 8861SOL     OW27160   2.994   1.789   2.476 -0.2260  0.4493  0.0271
 8861SOL    HW127161   2.900   1.806   2.471 -0.2627 -0.0405 -1.0334
 8861SOL    HW227162   3.034   1.876   2.474 -0.6177  0.6225 -0.4128
 8862SOL     OW27163   1.554   5.332   3.068  0.7306 -0.1818  0.2367
 8862SOL    HW127164   1.607   5.369   3.138  0.4206  2.3348 -0.7540
 8862SOL    HW227165   1.464   5.343   3.097  0.6073  0.6913 -0.4522
 8863SOL     OW27166   4.318   6.164   2.431  0.5918  0.6912  0.3560
 8863SOL    HW127167   4.291   6.229   2.496  0.9419 -0.3288  1.5634
 8863SOL    HW227168   4.278   6.082   2.461  2.4755 -0.2368  0.5030
 8864SOL     OW27169   0.408   6.963   5.359  0.2008 -0.1851 -0.4068
 8864SOL    HW127170   0.392   6.931   5.270  0.5823  0.3725 -0.6785
 8864SOL    HW227171   0.381   6.890   5.416 -1.0588 -0.1532 -0.9298
 8865SOL     OW27172   0.758   9.923   4.207  0.2442 -0.5431  0.5924
 8865SOL    HW127173   0.730  10.014   4.219  0.1342 -0.7327  1.9269
 8865SOL    HW227174   0.791   9.920   4.117  2.0368  1.2792  1.1251
 8866SOL     OW27175   0.416   8.986   9.208 -0.0487 -0.2654  0.0307
 8866SOL    HW127176   0.352   9.056   9.201 -0.7360 -0.9582 -0.9710
 8866SOL    HW227177   0.500   9.028   9.187 -0.5155  0.1785 -1.0301
 8867SOL     OW27178   8.817   7.849   8.556 -0.0782  0.5186 -0.0323
 8867SOL    HW127179   8.795   7.917   8.492 -0.8152 -1.1409 -1.6326
 8867SOL    HW227180   8.733   7.807   8.576  0.3524  0.0865  0.9577
 8868SOL     OW27181   8.833   5.311   5.805 -0.1773  0.0792  0.6676
 8868SOL    HW127182   8.833   5.215   5.801 -0.3990  0.1108 -0.9542
 8868SOL    HW227183   8.923   5.336   5.786 -0.7026  0.2091 -2.0269
 8869SOL     OW27184   6.328   9.497   2.071 -0.3281 -0.4057 -0.2306
 8869SOL    HW127185   6.309   9.515   2.163  3.2548  0.0306  0.6003
 8869SOL    HW227186   6.337   9.402   2.065 -2.4152 -0.6092 -0.6251
 8870SOL     OW27187   6.861   0.731   3.776  0.2809  0.1983  0.3546
 8870SOL    HW127188   6.916   0.801   3.740 -1.2243  0.6632 -1.1535
 8870SOL    HW227189   6.918   0.685   3.838  2.5276  0.3422 -1.4870
 8871SOL     OW27190   3.444   4.797   5.880  0.4747  0.0090  0.8667
 8871SOL    HW127191   3.350   4.778   5.883  0.5828 -0.4520  1.6748
 8871SOL    HW227192   3.483   4.735   5.942  1.2769  0.4160  0.7846
 8872SOL     OW27193   5.258   7.352   9.698  0.2058  0.0087  0.6878
 8872SOL    HW127194   5.235   7.397   9.617  1.4615  0.4450  0.5473
 8872SOL    HW227195   5.352   7.369   9.710  0.6729 -2.2438  0.8319
 8873SOL     OW27196   7.073   2.295   2.836  0.1239 -0.2880 -0.1801
 8873SOL    HW127197   6.980   2.272   2.828 -0.2406  1.3856 -1.2291
 8873SOL    HW227198   7.119   2.211   2.826 -1.1538 -0.7563 -3.0136
 8874SOL     OW27199   7.832   5.833   5.402  0.6380 -0.3427  0.0130
 8874SOL    HW127200   7.923   5.809   5.382  1.0151  1.1712 -0.2078
 8874SOL    HW227201   7.800   5.761   5.456  1.5190 -1.5795 -1.0385
 8875SOL     OW27202   5.112   5.732   8.802  0.3566 -0.1599 -0.7443
 8875SOL    HW127203   5.077   5.750   8.714  1.5041  1.3440 -0.9371
 8875SOL    HW227204   5.206   5.721   8.789  0.3672 -1.2929  0.1399
 8876SOL     OW27205   8.351   3.446   6.354 -0.2571  0.5052 -0.2569
 8876SOL    HW127206   8.338   3.516   6.289 -3.4168 -0.8593 -1.2751
 8876SOL    HW227207   8.384   3.491   6.431  0.8444  2.6257 -1.8465
 8877SOL     OW27208   5.967   3.909   4.050  0.1090  0.7329 -0.1211
 8877SOL    HW127209   6.034   3.964   4.008 -1.8548  2.6329 -0.9388
 8877SOL    HW227210   5.978   3.823   4.009  2.2957  0.8417  0.0944
 8878SOL     OW27211   6.635   2.157   0.102 -0.3480  0.6562 -0.2937
 8878SOL    HW127212   6.720   2.131   0.136 -0.8572 -2.2435 -0.9871
 8878SOL    HW227213   6.599   2.217   0.168  0.6916 -0.9615  1.8359
 8879SOL     OW27214   6.444   2.492   1.684  0.0857  0.4249  0.3648
 8879SOL    HW127215   6.503   2.536   1.746 -0.8066  0.8117  0.9690
 8879SOL    HW227216   6.489   2.497   1.600  0.5437  1.4410  0.6575
 8880SOL     OW27217   0.717   3.296   5.102  0.1858 -0.0532 -0.0477
 8880SOL    HW127218   0.634   3.267   5.065  1.5222 -3.3369 -0.7996
 8880SOL    HW227219   0.701   3.304   5.196 -0.6473 -2.1953  0.0448
 8881SOL     OW27220   1.763   8.960   9.960  0.5292  0.3756  0.4514
 8881SOL    HW127221   1.739   8.894   9.895  3.0706  0.8097 -1.0693
 8881SOL    HW227222   1.829   8.917  10.014  0.7108  1.0347  0.7559
 8882SOL     OW27223   2.950   0.847   8.248  0.4683  0.0283  0.0197
 8882SOL    HW127224   2.861   0.815   8.263  0.6794 -0.3612  0.4812
 8882SOL    HW227225   2.938   0.935   8.212 -0.0985  0.1296  0.4370
 8883SOL     OW27226   3.935   1.013   8.594 -0.1925  0.1245 -0.5635
 8883SOL    HW127227   3.878   1.090   8.598 -0.6122 -0.2016 -0.1125
 8883SOL    HW227228   3.914   0.964   8.674 -0.5420 -0.8745 -1.2491
 8884SOL     OW27229   3.375   5.814   9.330  0.1298 -0.2769 -0.1770
 8884SOL    HW127230   3.342   5.825   9.420 -0.4544 -0.4367 -0.3634
 8884SOL    HW227231   3.444   5.879   9.322 -0.3000  0.2318  0.1603
 8885SOL     OW27232   4.026   0.065   3.842 -0.1309  0.2184  0.3694
 8885SOL    HW127233   3.997  -0.020   3.875  0.1829  0.2847  0.8288
 8885SOL    HW227234   4.034   0.052   3.747 -0.8177 -0.0413  0.3377
 8886SOL     OW27235   6.079   6.611   6.371 -0.4365 -0.0825  0.3636
 8886SOL    HW127236   6.159   6.621   6.319  0.3029 -1.3631  1.1664
 8886SOL    HW227237   6.068   6.695   6.414 -0.8349  0.8676 -1.5030
 8887SOL     OW27238   9.537   0.591   5.672 -0.4494  0.1625 -0.1895
 8887SOL    HW127239   9.611   0.629   5.719  0.1858  1.7317 -2.3283
 8887SOL    HW227240   9.532   0.640   5.590 -3.3208 -0.4895 -0.5133
 8888SOL     OW27241   3.857   6.315   4.360  0.1954 -0.5858  0.5776
 8888SOL    HW127242   3.806   6.284   4.436  1.9342  0.3075  2.1916
 8888SOL    HW227243   3.945   6.283   4.376  0.2998 -1.7945 -1.9888
 8889SOL     OW27244   9.393   5.069   2.718  0.8944  0.1485  0.7940
 8889SOL    HW127245   9.392   5.100   2.808  0.6715 -1.2960  1.3117
 8889SOL    HW227246   9.469   5.112   2.678  1.9478 -0.4208  2.1282
 8890SOL     OW27247   2.432   9.634   6.670 -0.5541  0.5110  0.0209
 8890SOL    HW127248   2.455   9.548   6.706  0.8862  0.6321 -0.5612
 8890SOL    HW227249   2.496   9.694   6.708 -0.1562  0.9461 -1.2715
 8891SOL     OW27250   2.974   9.542   2.982 -0.4786 -0.6001  0.2555
 8891SOL    HW127251   2.910   9.571   3.048 -0.6997  1.5058 -0.8091
 8891SOL    HW227252   3.033   9.616   2.972 -0.5674 -0.7730 -2.0428
 8892SOL     OW27253   1.403   2.025   0.540 -0.3110  0.6707 -0.2028
 8892SOL    HW127254   1.339   2.065   0.599 -0.3398  0.6355 -0.2105
 8892SOL    HW227255   1.483   2.018   0.593 -0.0783  1.4449 -0.4299
 8893SOL     OW27256   0.419   4.625   8.727  0.1843 -0.8009  0.3477
 8893SOL    HW127257   0.471   4.653   8.803 -0.6671  0.2725  0.5629
 8893SOL    HW227258   0.342   4.682   8.729 -0.9105 -2.2173 -0.0769
 8894SOL     OW27259   4.753   9.343   8.297  0.0538 -0.0743 -0.2735
 8894SOL    HW127260   4.702   9.263   8.281 -2.7309  1.3149  0.8199
 8894SOL    HW227261   4.723   9.404   8.230  0.5179  0.7243  0.2366
 8895SOL     OW27262   7.857   8.694   6.954 -0.3402  0.6867  0.0309
 8895SOL    HW127263   7.869   8.613   7.003  3.4518 -1.0393 -3.2047
 8895SOL    HW227264   7.804   8.670   6.878 -0.4651  1.6116 -0.1926
 8896SOL     OW27265   6.616   4.057   6.639 -0.0478 -0.3912 -0.2003
 8896SOL    HW127266   6.640   4.127   6.700 -1.8396 -2.0171  2.6216
 8896SOL    HW227267   6.598   4.102   6.557  0.1759  2.2908  1.1081
 8897SOL     OW27268   8.875   7.883   6.286  0.0433 -0.5066  0.1691
 8897SOL    HW127269   8.916   7.921   6.364 -0.1256  1.3306 -0.5941
 8897SOL    HW227270   8.827   7.955   6.246  0.2055 -1.3602 -1.6970
 8898SOL     OW27271   1.887   3.037   8.289 -0.2249  0.4489  0.1190
 8898SOL    HW127272   1.810   3.016   8.236 -0.0036  1.1774 -0.5117
 8898SOL    HW227273   1.941   2.958   8.285 -0.7498  0.0758  0.2388
 8899SOL     OW27274   4.895   1.742   4.176  0.7927  0.2777  0.5216
 8899SOL    HW127275   4.934   1.830   4.182  2.1145 -0.1349 -1.1554
 8899SOL    HW227276   4.970   1.684   4.158 -0.1656 -1.0706  0.7645
 8900SOL     OW27277   1.932   8.084   3.503  0.4588 -0.3147 -0.3123
 8900SOL    HW127278   1.971   8.171   3.494 -1.4122  0.7669  1.2455
 8900SOL    HW227279   2.007   8.025   3.514  1.8064  0.9662 -2.0623
 8901SOL     OW27280   1.385   9.789   7.098  0.8188  0.3885 -0.3466
 8901SOL    HW127281   1.433   9.738   7.033  0.2354 -0.8513  0.1701
 8901SOL    HW227282   1.437   9.869   7.108  1.5605  0.0723 -1.4405
 8902SOL     OW27283   0.492   9.595   2.026 -0.6360 -1.1120  0.1357
 8902SOL    HW127284   0.566   9.641   1.987 -0.0048 -0.5184  1.9070
 8902SOL    HW227285   0.416   9.629   1.979 -0.0400  0.6511  0.3443
 8903SOL     OW27286   0.802   2.357   7.307  0.3672 -0.1120  0.3459
 8903SOL    HW127287   0.727   2.299   7.314 -0.6022  1.0425 -0.1702
 8903SOL    HW227288   0.770   2.443   7.335  1.2529  0.5829 -0.6461
 8904SOL     OW27289   7.852   6.084   3.902  0.3950  0.4596  0.1639
 8904SOL    HW127290   7.925   6.140   3.929  0.6071  1.3401 -2.0041
 8904SOL    HW227291   7.800   6.138   3.843  0.2089 -1.3923 -1.4797
 8905SOL     OW27292   7.944   6.253   6.245 -0.1818  0.6899  0.3320
 8905SOL    HW127293   7.998   6.260   6.167  0.6648  0.4666  0.8850
 8905SOL    HW227294   7.911   6.163   6.243 -0.8131  0.9214 -0.1713
 8906SOL     OW27295   8.283   7.910   0.771  0.7230  0.3131 -0.6697
 8906SOL    HW127296   8.275   7.905   0.867 -0.5358 -0.7044 -0.8111
 8906SOL    HW227297   8.356   7.970   0.757  1.7314 -0.4695  0.9447
 8907SOL     OW27298   0.557   7.442   8.253  0.7469  0.1722  0.0515
 8907SOL    HW127299   0.603   7.358   8.250  0.3648 -0.0098 -0.7129
 8907SOL    HW227300   0.612   7.500   8.201 -0.0816 -0.1455 -1.1974
 8908SOL     OW27301   6.218   2.997   0.185  0.0306  0.1956 -0.4243
 8908SOL    HW127302   6.287   2.972   0.123  1.8075 -1.0435  1.8658
 8908SOL    HW227303   6.231   3.091   0.199  1.6408 -0.0968  0.3053
 8909SOL     OW27304   4.456   1.811   4.100  0.2406  0.7937  0.6539
 8909SOL    HW127305   4.434   1.867   4.175 -0.8676  0.2205  0.7712
 8909SOL    HW227306   4.409   1.730   4.116  2.1391 -0.3720  0.6865
 8910SOL     OW27307   3.701   9.360   9.185 -0.0100 -0.6207  0.3879
 8910SOL    HW127308   3.773   9.306   9.218 -0.3126 -0.7220  0.8888
 8910SOL    HW227309   3.693   9.335   9.093  0.8324 -0.3458  0.2326
 8911SOL     OW27310   5.040   1.040   2.326 -0.5139  0.0070 -0.3100
 8911SOL    HW127311   5.106   0.972   2.312 -2.4694 -2.4359  1.4771
 8911SOL    HW227312   5.035   1.085   2.242  0.1984 -2.7320 -1.9704
 8912SOL     OW27313   6.984   8.056   4.909 -0.2548  0.0944  0.5296
 8912SOL    HW127314   7.079   8.070   4.905 -0.1093 -0.8911 -3.2490
 8912SOL    HW227315   6.950   8.099   4.831 -2.5571 -1.9878  0.2652
 8913SOL     OW27316   0.601   2.486   0.044  0.2554 -0.3867  0.7528
 8913SOL    HW127317   0.579   2.478  -0.049 -0.5643 -0.4028  0.9397
 8913SOL    HW227318   0.610   2.396   0.074  0.3872 -0.3853  0.7146
 8914SOL     OW27319   9.023   8.210   2.588  0.4732 -0.0268 -0.0372
 8914SOL    HW127320   9.082   8.205   2.663 -0.2934 -2.9282  0.5218
 8914SOL    HW227321   9.070   8.166   2.517  0.4164  0.9281 -0.6714
 8915SOL     OW27322   5.116   1.445   6.042  0.0845 -0.4975 -0.7733
 8915SOL    HW127323   5.168   1.507   5.992  1.6044  0.7867  2.1386
 8915SOL    HW227324   5.174   1.371   6.057  0.0186 -0.4136 -0.0695
 8916SOL     OW27325   5.014   8.758   7.568  0.5708 -0.3485  0.2299
 8916SOL    HW127326   4.959   8.758   7.646 -1.0932 -0.1335 -0.9068
 8916SOL    HW227327   5.068   8.837   7.577 -0.9811  0.7586  0.2685
 8917SOL     OW27328   9.116   9.522   6.900 -0.2888  0.0035 -0.0332
 8917SOL    HW127329   9.118   9.560   6.813 -0.1347  0.6530  0.2460
 8917SOL    HW227330   9.071   9.588   6.954  0.7234  0.1697  0.6305
 8918SOL     OW27331   2.263   5.278   8.728  0.0530  0.1171 -0.3137
 8918SOL    HW127332   2.214   5.233   8.660 -0.5150  0.6663 -0.2688
 8918SOL    HW227333   2.197   5.305   8.792  0.5811 -0.5011  0.5335
 8919SOL     OW27334   7.939   4.762   0.723  0.3234 -0.0443 -0.5016
 8919SOL    HW127335   7.867   4.713   0.764  1.1249 -0.8773 -0.0340
 8919SOL    HW227336   7.910   4.777   0.633 -0.1135 -1.0776 -0.5500
 8920SOL     OW27337   3.778   9.133   6.970 -0.3197  0.0080 -0.2674
 8920SOL    HW127338   3.736   9.067   6.916 -0.8910  1.0701 -1.1654
 8920SOL    HW227339   3.722   9.210   6.962  0.4080  0.6562  0.6248
 8921SOL     OW27340   6.344   8.030   8.866  0.7588  0.2465  0.4084
 8921SOL    HW127341   6.431   8.070   8.857  1.1786 -0.3533  1.4912
 8921SOL    HW227342   6.284   8.104   8.877  0.8167  0.7813 -2.2132
 8922SOL     OW27343   9.052   9.566   9.231 -0.1245 -0.0758 -0.2769
 8922SOL    HW127344   9.028   9.492   9.287 -0.8026  0.9397  0.8253
 8922SOL    HW227345   8.972   9.587   9.182 -0.8566  1.6696  1.5030
 8923SOL     OW27346   7.019   0.319   4.897 -0.2209  0.4192 -0.5071
 8923SOL    HW127347   7.026   0.408   4.862 -1.6132  0.9951  0.5832
 8923SOL    HW227348   6.932   0.290   4.872  0.7522 -1.2745 -2.1611
 8924SOL     OW27349   6.015   3.886   8.738  0.0173 -0.6830 -0.3332
 8924SOL    HW127350   5.921   3.879   8.718 -0.0672 -1.4699  0.2717
 8924SOL    HW227351   6.018   3.913   8.829  0.3724 -0.9472 -0.2640
 8925SOL     OW27352   8.229   4.934   3.542  0.4411 -0.4209  0.1150
 8925SOL    HW127353   8.145   4.948   3.586  0.5636 -0.1244  0.2541
 8925SOL    HW227354   8.293   4.978   3.598  0.4376  1.0968 -1.0242
 8926SOL     OW27355   6.015   6.635   8.108  0.0953  0.5276 -0.3088
 8926SOL    HW127356   6.063   6.668   8.184  2.1367 -0.2171 -1.1960
 8926SOL    HW227357   6.017   6.707   8.045 -2.5098  1.5301  0.6503
 8927SOL     OW27358   7.951   9.319   9.129  0.1122  0.0075  0.1742
 8927SOL    HW127359   7.994   9.323   9.214  1.7702  0.9640 -0.6661
 8927SOL    HW227360   7.857   9.320   9.149  0.4459 -0.8476  2.0077
 8928SOL     OW27361   4.388   2.386   1.497  0.0517  0.2237  0.2149
 8928SOL    HW127362   4.470   2.342   1.521 -0.0042  0.5366  1.0007
 8928SOL    HW227363   4.343   2.323   1.441  0.0409 -0.6675  1.1960
 8929SOL     OW27364   8.304   5.721   5.734  0.0855 -0.6124 -0.0937
 8929SOL    HW127365   8.301   5.676   5.650 -0.9034  0.6814 -0.7857
 8929SOL    HW227366   8.218   5.708   5.772 -0.0577  0.2960 -0.0963
 8930SOL     OW27367   8.870   1.718   9.242 -0.1063  0.0313  0.8274
 8930SOL    HW127368   8.822   1.712   9.159 -0.6678  1.5547  1.0075
 8930SOL    HW227369   8.953   1.761   9.218 -0.1527  0.2204  1.0000
 8931SOL     OW27370   0.743   4.033   8.572 -0.2292  0.0520 -0.3303
 8931SOL    HW127371   0.732   4.086   8.492  0.1979 -0.0069 -0.4346
 8931SOL    HW227372   0.745   4.097   8.643 -1.2582  0.0612 -0.2943
 8932SOL     OW27373   9.297   5.959   3.607 -0.4153 -0.1047  0.4319
 8932SOL    HW127374   9.324   5.871   3.632 -0.4703  0.0735  1.1627
 8932SOL    HW227375   9.355   5.983   3.535 -0.7333 -0.9240 -0.1105
 8933SOL     OW27376   0.842   7.785   8.765  0.2932  0.8171  0.6974
 8933SOL    HW127377   0.902   7.720   8.802 -0.3845 -0.0044  0.3679
 8933SOL    HW227378   0.892   7.826   8.694  0.6846  0.5779  0.8323
 8934SOL     OW27379   1.442   4.770   4.479  0.0321 -0.7593  0.0038
 8934SOL    HW127380   1.505   4.774   4.551 -0.4002  1.0045  0.3112
 8934SOL    HW227381   1.387   4.694   4.500  1.3317 -1.6707  0.2958
 8935SOL     OW27382   6.187   0.306   1.617 -0.3161 -0.2978 -0.1058
 8935SOL    HW127383   6.127   0.239   1.584  0.4119 -0.8505 -0.3109
 8935SOL    HW227384   6.229   0.266   1.693  0.2172 -0.1293 -0.3056
 8936SOL     OW27385   5.058   9.431   0.412  0.0892 -0.2338  0.5368
 8936SOL    HW127386   5.017   9.420   0.326  0.1177 -3.0022  0.7866
 8936SOL    HW227387   4.985   9.423   0.474  0.4487 -1.3656  0.8391
 8937SOL     OW27388   3.999   1.017   8.329 -0.3294 -0.0228 -0.4306
 8937SOL    HW127389   4.000   1.014   8.425  1.4381 -0.6060 -0.4249
 8937SOL    HW227390   3.907   1.018   8.306 -0.7920 -0.3715  1.2646
 8938SOL     OW27391   6.503   3.368   6.221 -0.1074  0.0883 -0.3610
 8938SOL    HW127392   6.451   3.433   6.174 -0.5902  0.1959  0.2906
 8938SOL    HW227393   6.438   3.317   6.269  0.4111  0.6984  1.0689
 8939SOL     OW27394   1.220   1.851   0.401  0.2751 -0.2065 -0.0655
 8939SOL    HW127395   1.282   1.789   0.439 -0.7404 -1.1711  0.0645
 8939SOL    HW227396   1.178   1.892   0.477  0.6189  0.3120 -0.1531
 8940SOL     OW27397   4.598   7.376   9.518  0.5052 -0.0341 -0.3034
 8940SOL    HW127398   4.524   7.422   9.480  1.4598  0.4629 -1.6622
 8940SOL    HW227399   4.623   7.311   9.452  0.9777 -0.5166  0.3324
 8941SOL     OW27400   2.093   8.457   0.558  0.6560  0.1244 -0.2837
 8941SOL    HW127401   2.175   8.483   0.516 -0.0763  1.4585 -0.9159
 8941SOL    HW227402   2.100   8.361   0.566  1.3338 -0.0421 -2.3371
 8942SOL     OW27403   2.562   4.987   0.458 -0.2714 -0.1396 -0.2969
 8942SOL    HW127404   2.484   4.960   0.411 -0.9911 -0.8575  1.2405
 8942SOL    HW227405   2.572   5.080   0.437 -1.1216 -0.2100 -1.0568
 8943SOL     OW27406   8.360   9.557   7.591  0.6751 -0.1309 -0.0046
 8943SOL    HW127407   8.378   9.586   7.680  2.2309  1.8694 -0.9050
 8943SOL    HW227408   8.387   9.465   7.590 -0.2726 -0.4711  1.8046
 8944SOL     OW27409   2.934   0.295   4.902 -0.0057  0.1209  0.1149
 8944SOL    HW127410   2.883   0.345   4.965 -0.2243 -0.1471  0.1538
 8944SOL    HW227411   2.882   0.297   4.821 -0.5066 -0.8790  0.3976
 8945SOL     OW27412   5.843   2.682   5.804 -0.1460 -0.9249  0.4001
 8945SOL    HW127413   5.748   2.689   5.798 -0.2661 -1.4888  1.5578
 8945SOL    HW227414   5.859   2.629   5.882  1.1235 -0.6508  0.3451
 8946SOL     OW27415   0.642   2.459   0.367 -0.0697 -0.3669 -1.1228
 8946SOL    HW127416   0.561   2.421   0.334  0.1919 -0.6818 -1.4155
 8946SOL    HW227417   0.693   2.480   0.289  0.4249 -0.8342 -0.9361
 8947SOL     OW27418   3.085   0.181   7.790 -0.4902 -0.6389 -0.0099
 8947SOL    HW127419   3.167   0.198   7.745 -0.2899 -0.1679  0.5172
 8947SOL    HW227420   3.017   0.195   7.724 -0.1465 -1.1533 -0.4792
 8948SOL     OW27421   4.554   7.438   3.383 -0.1399  0.9178  0.1434
 8948SOL    HW127422   4.470   7.474   3.409 -0.3079 -0.4125  1.5899
 8948SOL    HW227423   4.533   7.352   3.347  0.5445  0.8321 -0.0596
 8949SOL     OW27424   3.006   4.404   0.935  0.1936 -0.5035 -0.0959
 8949SOL    HW127425   3.044   4.364   0.857  0.5905 -1.1243  0.4087
 8949SOL    HW227426   3.067   4.384   1.005  0.1528  0.5840  0.2683
 8950SOL     OW27427   5.035   6.400   6.679 -0.4130 -0.1130  0.3350
 8950SOL    HW127428   5.116   6.363   6.716 -0.0826 -0.5703 -0.7838
 8950SOL    HW227429   5.028   6.487   6.718  1.0811  0.2568 -0.1494
 8951SOL     OW27430   8.881   7.718   3.580  0.0243  0.0146 -0.5295
 8951SOL    HW127431   8.881   7.794   3.521  0.6389 -0.1093 -0.6952
 8951SOL    HW227432   8.789   7.692   3.585 -0.1465  0.5490 -0.7591
 8952SOL     OW27433   3.060   8.395   9.785  0.2287 -0.3769  0.4852
 8952SOL    HW127434   3.108   8.442   9.717  0.4591 -0.2432  0.7381
 8952SOL    HW227435   2.970   8.429   9.780  0.9944  2.3071  2.6116
 8953SOL     OW27436   7.335   3.514   5.124  0.0346 -0.2001 -0.0899
 8953SOL    HW127437   7.308   3.425   5.148  1.1557 -0.2319  1.1653
 8953SOL    HW227438   7.334   3.562   5.207  2.6587  0.0699 -0.1347
 8954SOL     OW27439   5.954   4.281   3.259 -0.6036 -0.2956 -0.4141
 8954SOL    HW127440   5.901   4.284   3.339 -2.5039  0.2585 -1.6316
 8954SOL    HW227441   5.912   4.344   3.200  1.4991  0.2402 -1.4253
 8955SOL     OW27442   7.025   1.806   6.177 -0.0885 -0.6248 -0.2121
 8955SOL    HW127443   6.967   1.730   6.178 -1.8559  0.6332  2.2638
 8955SOL    HW227444   6.987   1.865   6.112  1.6094 -1.9449 -2.5648
 8956SOL     OW27445   9.842   1.317   6.720  0.2544 -0.2328 -0.3022
 8956SOL    HW127446   9.843   1.409   6.693  0.7848 -0.0393  0.3325
 8956SOL    HW227447   9.863   1.319   6.813 -1.2204 -0.9007  0.0683
 8957SOL     OW27448   8.592   4.505   6.993  0.2077 -0.1339  0.3172
 8957SOL    HW127449   8.664   4.447   6.967  1.1099  1.1091 -0.0340
 8957SOL    HW227450   8.582   4.489   7.087 -0.9065 -2.2847 -0.1073
 8958SOL     OW27451   0.989   6.888   3.010 -0.2764 -0.0382  0.3760
 8958SOL    HW127452   0.898   6.917   3.012 -0.5753 -0.7228 -1.2543
 8958SOL    HW227453   1.040   6.969   3.003 -0.8505  0.2980  0.0156
 8959SOL     OW27454   5.715   7.057   4.412 -0.2965  0.3407 -0.0164
 8959SOL    HW127455   5.658   7.077   4.338 -0.9199  1.5440  0.7709
 8959SOL    HW227456   5.794   7.020   4.372 -0.9216  0.2675 -1.2236
 8960SOL     OW27457   6.902   3.924   2.202  0.2425  0.0921 -0.2651
 8960SOL    HW127458   6.895   3.917   2.297  0.4875  0.3725 -0.2284
 8960SOL    HW227459   6.957   4.000   2.187 -1.2365  1.1211 -0.6609
 8961SOL     OW27460   0.254   5.645   4.122 -0.0849  0.2829 -0.0462
 8961SOL    HW127461   0.221   5.556   4.129 -3.0033  1.3210  0.8091
 8961SOL    HW227462   0.252   5.679   4.212  0.7728  1.2842 -0.3815
 8962SOL     OW27463   2.482   9.415   9.183  0.5424 -0.1711  0.3328
 8962SOL    HW127464   2.436   9.499   9.177 -0.0094 -0.4660  0.3645
 8962SOL    HW227465   2.525   9.417   9.268 -1.1363 -0.7463  1.2439
 8963SOL     OW27466   5.675   8.583   4.475 -0.3252 -0.0805 -0.0498
 8963SOL    HW127467   5.752   8.640   4.475 -1.0157  0.9610  2.1553
 8963SOL    HW227468   5.604   8.639   4.443 -0.4868 -0.5656 -0.5548
 8964SOL     OW27469   8.791   9.467   2.941 -0.0285  0.1122  0.1547
 8964SOL    HW127470   8.860   9.430   2.886  1.4941  0.0798  1.9704
 8964SOL    HW227471   8.829   9.548   2.975 -1.6504  1.1023 -0.3053
 8965SOL     OW27472   6.364   0.421   6.128 -0.2018  0.1469 -0.0203
 8965SOL    HW127473   6.405   0.339   6.100 -0.4997  0.0184 -0.0851
 8965SOL    HW227474   6.282   0.424   6.079 -0.3635  0.3028  0.2632
 8966SOL     OW27475   1.209   7.719   5.372  0.0157  0.3021  0.1365
 8966SOL    HW127476   1.153   7.758   5.439 -0.3518 -0.5294  0.3257
 8966SOL    HW227477   1.265   7.658   5.420 -0.5117 -0.5824 -0.3530
 8967SOL     OW27478   3.335   9.448   8.036 -0.4742  0.0646  0.0804
 8967SOL    HW127479   3.347   9.354   8.051  1.0820  0.4644  1.6280
 8967SOL    HW227480   3.372   9.490   8.114 -3.4572  1.9066  0.6654
 8968SOL     OW27481   0.639   8.166   8.784 -0.1688  0.3798 -0.0043
 8968SOL    HW127482   0.710   8.231   8.782 -0.1108  0.3010 -0.7673
 8968SOL    HW227483   0.572   8.205   8.839 -0.4371  1.4150 -1.0355
 8969SOL     OW27484   6.840   6.234   8.757 -0.5039 -0.3172 -0.0921
 8969SOL    HW127485   6.792   6.268   8.681 -2.9151 -1.1362  0.9496
 8969SOL    HW227486   6.920   6.196   8.721 -0.2971  1.6434 -1.8736
 8970SOL     OW27487   8.432   3.138   6.786  0.1625  0.1835 -0.1268
 8970SOL    HW127488   8.359   3.200   6.793 -0.1580 -0.1461 -0.5582
 8970SOL    HW227489   8.444   3.125   6.692  0.0673 -0.5977 -0.0367
 8971SOL     OW27490   3.216   7.119   8.278  0.3020 -0.1673  0.2625
 8971SOL    HW127491   3.162   7.079   8.346  0.0038  0.0663  0.1641
 8971SOL    HW227492   3.278   7.050   8.253 -0.2054 -0.5688  0.0923
 8972SOL     OW27493   3.843   9.911   4.415  0.1227  0.2710 -0.0079
 8972SOL    HW127494   3.909   9.858   4.370  0.3192  0.4200  0.1011
 8972SOL    HW227495   3.824   9.861   4.495  1.2066  0.9459  0.7004
 8973SOL     OW27496   2.752   2.409   4.300  0.1788 -0.6154  0.1337
 8973SOL    HW127497   2.682   2.468   4.330 -2.1920 -2.8534 -0.7258
 8973SOL    HW227498   2.775   2.358   4.378  2.1606  1.1788  0.8500
 8974SOL     OW27499   7.173   5.870   9.135 -0.5844  0.2966 -0.7432
 8974SOL    HW127500   7.260   5.849   9.168 -0.9046 -0.5249 -0.3967
 8974SOL    HW227501   7.133   5.786   9.115 -1.2021  0.6747 -1.1659
 8975SOL     OW27502   1.834   5.614   3.869  0.0044  0.1238  0.1814
 8975SOL    HW127503   1.880   5.642   3.948  1.5480 -0.7576 -0.3471
 8975SOL    HW227504   1.814   5.522   3.884 -0.5928  0.2108 -0.0549
 8976SOL     OW27505   6.958   1.881   0.430  0.2135  0.3267 -0.6454
 8976SOL    HW127506   6.941   1.830   0.509  1.5900  1.2847  0.2992
 8976SOL    HW227507   6.871   1.906   0.399 -0.3330  1.2698  1.4750
 8977SOL     OW27508   4.189   3.232   1.524  0.1055  0.0077  0.2352
 8977SOL    HW127509   4.217   3.311   1.571 -0.4119  0.9412 -0.9724
 8977SOL    HW227510   4.183   3.165   1.592  0.6060  0.9861  1.2860
 8978SOL     OW27511   9.195   2.866   3.329  0.6748  0.2760 -0.4068
 8978SOL    HW127512   9.283   2.843   3.297  1.0872  0.8593  0.2765
 8978SOL    HW227513   9.210   2.897   3.419 -0.3257 -0.3007 -0.0312
 8979SOL     OW27514   0.534   9.083   8.628  0.2822 -0.3218  0.3529
 8979SOL    HW127515   0.544   9.111   8.537 -0.6898 -0.1519  0.2839
 8979SOL    HW227516   0.488   8.999   8.622 -0.6542  0.1528  0.7113
 8980SOL     OW27517   5.513   7.991   6.417  0.1945  0.2061 -0.2931
 8980SOL    HW127518   5.484   8.081   6.401 -0.3775 -0.1184 -1.1269
 8980SOL    HW227519   5.540   7.991   6.509  2.3143  1.7821 -0.8387
 8981SOL     OW27520   2.066   4.637   0.230  0.4589  0.1490  0.2671
 8981SOL    HW127521   2.055   4.623   0.136 -0.1728  1.0448  0.1990
 8981SOL    HW227522   2.082   4.549   0.266  0.2759 -0.2512 -0.6158
 8982SOL     OW27523   2.436   1.832   7.813 -0.0893 -0.0881 -1.0915
 8982SOL    HW127524   2.525   1.811   7.841  0.5463  1.1058 -2.1147
 8982SOL    HW227525   2.401   1.748   7.781  1.8443 -0.0167 -3.6961
 8983SOL     OW27526   3.731   1.544   3.917  0.2003  0.1258 -0.1326
 8983SOL    HW127527   3.653   1.594   3.892  0.2244  1.8515  2.7449
 8983SOL    HW227528   3.701   1.453   3.917 -0.5159  0.2398 -3.2210
 8984SOL     OW27529   9.508   5.874   5.694  0.0879 -0.7554  0.3029
 8984SOL    HW127530   9.576   5.845   5.755 -0.5748 -1.3030  0.7948
 8984SOL    HW227531   9.530   5.965   5.675 -0.0602 -0.3630  1.8886
 8985SOL     OW27532   6.801   5.013   1.478  0.2762  0.6002 -0.2996
 8985SOL    HW127533   6.773   4.921   1.478 -2.3606  1.2737  2.0365
 8985SOL    HW227534   6.889   5.010   1.442 -0.2251 -2.6460 -1.6978
 8986SOL     OW27535   2.208   0.900   1.832 -0.2658  0.1162 -0.0891
 8986SOL    HW127536   2.131   0.889   1.776  0.4360 -2.7725 -0.6464
 8986SOL    HW227537   2.186   0.851   1.912 -0.2098  1.9900  1.1459
 8987SOL     OW27538   9.753   8.730   8.384 -0.9829 -0.4980 -0.5427
 8987SOL    HW127539   9.703   8.794   8.334 -0.0891  0.6881  0.0296
 8987SOL    HW227540   9.726   8.744   8.475  0.1054 -0.0813 -0.2698
 8988SOL     OW27541   3.533   4.247   2.278 -0.5556  0.1660  0.6362
 8988SOL    HW127542   3.557   4.159   2.249 -1.0870 -0.3945  1.8164
 8988SOL    HW227543   3.614   4.298   2.270  0.1499 -0.8093  1.3026
 8989SOL     OW27544   4.589   0.260   6.488 -0.0608 -0.0507 -0.7337
 8989SOL    HW127545   4.624   0.176   6.458  1.9830  0.9965 -1.4590
 8989SOL    HW227546   4.554   0.242   6.575 -0.0744 -1.7449 -1.0540
 8990SOL     OW27547   2.612   2.898   0.707 -0.1458 -0.6452 -0.2009
 8990SOL    HW127548   2.640   2.832   0.644  0.9358  1.1702 -1.7345
 8990SOL    HW227549   2.549   2.952   0.660  0.7681  0.8295  0.1869
 8991SOL     OW27550   8.042   9.753   2.349  0.1047  0.1016 -0.1415
 8991SOL    HW127551   8.117   9.732   2.405 -0.9888  1.9281  2.2012
 8991SOL    HW227552   7.985   9.806   2.405 -2.3071 -0.0809 -2.2633
 8992SOL     OW27553   4.867   6.789   2.907 -0.4686 -0.1089 -0.3441
 8992SOL    HW127554   4.780   6.753   2.923 -1.2651  0.6809 -2.4996
 8992SOL    HW227555   4.909   6.724   2.851  0.0641 -0.1257  0.0680
 8993SOL     OW27556   9.893   6.365   9.155  0.6741 -0.5916 -0.2523
 8993SOL    HW127557   9.857   6.365   9.067  0.4222 -0.4000 -0.1502
 8993SOL    HW227558   9.940   6.448   9.162  1.3359 -0.9393 -0.4631
 8994SOL     OW27559   3.839   3.254   6.802  0.3510 -0.5822  0.3892
 8994SOL    HW127560   3.830   3.169   6.845  1.0178 -1.3690 -0.9515
 8994SOL    HW227561   3.751   3.290   6.802 -0.1603 -1.7598  0.0445
 8995SOL     OW27562   3.405   9.788   0.667  0.0494 -0.2466  0.2698
 8995SOL    HW127563   3.322   9.756   0.633 -1.2982  1.5283  1.6963
 8995SOL    HW227564   3.446   9.711   0.708 -1.3815 -0.9151  0.4815
 8996SOL     OW27565   0.433   6.728   7.424 -0.3926  0.5163 -0.0835
 8996SOL    HW127566   0.443   6.664   7.354 -0.4761  0.0729  0.2991
 8996SOL    HW227567   0.521   6.736   7.462 -0.3341  0.8033 -0.2822
 8997SOL     OW27568   5.790   5.844   8.870 -0.6774 -0.0481  0.1655
 8997SOL    HW127569   5.715   5.900   8.891 -0.7444 -0.3572  0.7791
 8997SOL    HW227570   5.858   5.905   8.841 -1.1084  0.2492 -0.2410
 8998SOL     OW27571   9.270   7.279   8.960 -0.4035  0.3452 -0.1580
 8998SOL    HW127572   9.342   7.226   8.993 -1.2502 -2.9718 -3.0385
 8998SOL    HW227573   9.194   7.251   9.010 -0.5558  0.1903 -0.4776
 8999SOL     OW27574   8.138   2.967   2.131  0.2346  0.1786 -0.1687
 8999SOL    HW127575   8.124   2.970   2.226 -0.8984 -0.2737 -0.2988
 8999SOL    HW227576   8.062   3.012   2.094  0.6128  0.2577 -0.8719
 9000SOL     OW27577   2.224   8.788   5.424  0.5396 -0.4083  0.3734
 9000SOL    HW127578   2.265   8.872   5.444 -0.8519  0.0442  1.4467
 9000SOL    HW227579   2.168   8.769   5.499 -2.1921 -0.3581 -1.4809
 9001SOL     OW27580   4.683   3.254   3.367 -0.1065 -0.1593 -0.4534
 9001SOL    HW127581   4.641   3.247   3.281  0.2084 -0.4236 -0.5859
 9001SOL    HW227582   4.775   3.270   3.348 -0.2555  1.1191 -0.1572
 9002SOL     OW27583   4.220   9.060   4.955 -0.2846 -0.0845  0.0009
 9002SOL    HW127584   4.145   9.006   4.931  0.4993 -0.6350 -1.3169
 9002SOL    HW227585   4.295   9.001   4.947  0.3611  0.6158  0.7165
 9003SOL     OW27586   1.047   4.961   2.851  0.4108  0.4065 -0.3679
 9003SOL    HW127587   1.027   4.879   2.806 -0.1801  0.1784  0.2796
 9003SOL    HW227588   1.138   4.980   2.828  0.2072  0.1656 -1.4258
 9004SOL     OW27589   3.419   7.655   5.844  0.5685 -0.0885 -0.1025
 9004SOL    HW127590   3.328   7.632   5.861  0.4277  0.7162  0.2515
 9004SOL    HW227591   3.463   7.571   5.832 -0.5738 -0.4796 -2.1649
 9005SOL     OW27592   9.633   4.112   3.182  0.0458  0.0378 -0.5880
 9005SOL    HW127593   9.674   4.131   3.266 -2.4908 -1.8051  1.1983
 9005SOL    HW227594   9.687   4.044   3.143  0.5924  0.0837  0.0760
 9006SOL     OW27595   9.937   3.646   5.173 -0.2737 -0.3489  0.3401
 9006SOL    HW127596   9.859   3.651   5.228  0.0791  1.3573  0.7382
 9006SOL    HW227597   9.908   3.677   5.087 -0.2699 -0.6991  0.2121
 9007SOL     OW27598   8.971   5.734   3.705 -0.4124  0.1342 -0.3860
 9007SOL    HW127599   9.029   5.684   3.763  0.7853  0.3022 -1.4076
 9007SOL    HW227600   8.920   5.667   3.659 -2.7296  0.0125  2.0977
 9008SOL     OW27601   2.156   7.950   3.378 -0.0441 -0.0319 -0.4062
 9008SOL    HW127602   2.182   7.932   3.288  0.2298  0.6570 -0.4686
 9008SOL    HW227603   2.207   8.027   3.403 -0.5939  0.1659  0.1213
 9009SOL     OW27604   1.967   5.177   3.493  0.7155  0.3115 -0.1360
 9009SOL    HW127605   1.951   5.111   3.561  0.3490  0.5663  0.0285
 9009SOL    HW227606   2.004   5.251   3.541  0.9197  0.3086 -0.2894
 9010SOL     OW27607   8.295   0.932   9.368  0.1880  0.1468  0.1000
 9010SOL    HW127608   8.285   0.997   9.438 -1.9882 -0.7548  0.7115
 9010SOL    HW227609   8.255   0.974   9.291  1.9591  0.8636 -0.4758
 9011SOL     OW27610   7.873   2.430   5.886 -1.0393  0.0270  0.1629
 9011SOL    HW127611   7.834   2.440   5.799 -1.2526 -0.9305  0.1312
 9011SOL    HW227612   7.799   2.412   5.944 -0.7870 -0.5241  0.3285
 9012SOL     OW27613   9.971   3.899   2.097  0.4113 -0.3127 -0.0835
 9012SOL    HW127614   9.936   3.981   2.130 -1.9231 -1.1060 -0.3904
 9012SOL    HW227615   9.969   3.840   2.172 -0.3876 -0.7863 -0.4638
 9013SOL     OW27616   1.647   9.729   0.171 -0.3625 -0.3407 -0.4787
 9013SOL    HW127617   1.623   9.764   0.257  0.0029  2.2118 -1.3321
 9013SOL    HW227618   1.563   9.719   0.125 -0.3984  1.8632 -1.0329
 9014SOL     OW27619   4.579   0.843   1.330 -0.4178 -0.1715 -0.1271
 9014SOL    HW127620   4.585   0.759   1.375  0.3816 -0.1549 -0.1841
 9014SOL    HW227621   4.588   0.822   1.238 -0.7836 -0.0786 -0.1845
 9015SOL     OW27622   0.969   9.573   5.607  0.0307 -0.2825  0.3584
 9015SOL    HW127623   0.967   9.666   5.584 -0.5272 -0.6165 -1.0537
 9015SOL    HW227624   1.052   9.562   5.654  0.0791  0.9301  0.5951
 9016SOL     OW27625   3.789   1.547   5.936  0.0134  0.3358  0.4026
 9016SOL    HW127626   3.731   1.478   5.905  0.7867 -0.5273  0.8338
 9016SOL    HW227627   3.760   1.626   5.889 -1.1185 -0.1916  0.1859
 9017SOL     OW27628   8.816   0.504   2.589  0.0447  0.0519 -0.4415
 9017SOL    HW127629   8.757   0.571   2.554 -1.6928 -1.2265 -0.0812
 9017SOL    HW227630   8.811   0.432   2.526 -0.0444 -0.7217  0.4370
 9018SOL     OW27631   3.188   0.356   3.377  0.2699 -0.1448 -0.3740
 9018SOL    HW127632   3.161   0.439   3.337 -0.1922  0.5218  1.2448
 9018SOL    HW227633   3.183   0.372   3.471  0.1035 -2.0391 -0.0239
 9019SOL     OW27634   7.945   8.020   3.330 -0.3981 -0.4484  0.0966
 9019SOL    HW127635   8.022   8.003   3.276 -0.2785 -2.0330  0.7429
 9019SOL    HW227636   7.871   8.011   3.269 -0.1096  2.6219 -0.9134
 9020SOL     OW27637  -0.009   5.161   6.292 -0.4992 -0.2402  0.1874
 9020SOL    HW127638   0.074   5.154   6.245 -0.0030  0.6132  0.9128
 9020SOL    HW227639   0.013   5.144   6.384 -1.1617 -0.2125  0.3593
 9021SOL     OW27640   6.461   4.711   0.748 -0.3283 -0.2339  0.0342
 9021SOL    HW127641   6.466   4.778   0.816 -0.5276 -0.5594  0.3714
 9021SOL    HW227642   6.395   4.650   0.779 -0.7582 -0.1413 -0.6744
 9022SOL     OW27643   0.095   2.002   2.152 -0.2939 -0.3351 -0.2221
 9022SOL    HW127644   0.019   1.976   2.204  0.2405  0.0216  0.7386
 9022SOL    HW227645   0.080   2.095   2.133  2.0453  1.1455  3.9172
 9023SOL     OW27646   8.277   5.901   3.202  0.1559  0.6583  0.3982
 9023SOL    HW127647   8.239   5.855   3.127  1.1638  1.1326 -0.4153
 9023SOL    HW227648   8.371   5.881   3.198  0.1563  0.2269  1.8655
 9024SOL     OW27649   0.663   4.355   9.230  0.3151 -0.4788  0.1163
 9024SOL    HW127650   0.675   4.435   9.281 -1.0031 -0.5783  0.6193
 9024SOL    HW227651   0.664   4.285   9.295  1.4421 -0.8802 -0.3192
 9025SOL     OW27652   4.634   2.724   7.198  0.3077 -0.0882 -0.2255
 9025SOL    HW127653   4.694   2.788   7.160 -2.3564  2.4284 -0.4990
 9025SOL    HW227654   4.563   2.717   7.135 -1.2174 -0.5692  1.4763
 9026SOL     OW27655   7.648   9.813   9.604 -0.5844 -0.5673 -0.4763
 9026SOL    HW127656   7.591   9.775   9.671 -1.2280 -1.3603 -1.4453
 9026SOL    HW227657   7.682   9.738   9.556  2.1778 -0.2041  0.7240
 9027SOL     OW27658   2.978   7.361   0.495 -0.4874  0.1777  0.3309
 9027SOL    HW127659   2.972   7.453   0.470 -1.3316  0.0827  0.1404
 9027SOL    HW227660   3.027   7.319   0.425 -3.8425 -0.3239 -1.9234
 9028SOL     OW27661   4.938   7.569   3.217  0.0825  0.4036 -0.0814
 9028SOL    HW127662   4.857   7.618   3.234 -1.5814 -1.0782 -2.9029
 9028SOL    HW227663   4.954   7.581   3.123  1.5474 -1.6126 -0.1630
 9029SOL     OW27664   7.631   1.383   1.888 -0.3466 -0.3348 -0.1453
 9029SOL    HW127665   7.568   1.455   1.890  1.5049  1.3533  1.9499
 9029SOL    HW227666   7.583   1.309   1.925 -2.1615 -0.1795 -1.9773
 9030SOL     OW27667   2.363   1.040   2.832  0.1972 -0.2567  0.1819
 9030SOL    HW127668   2.320   1.008   2.912  2.5139 -1.5061  1.0281
 9030SOL    HW227669   2.352   0.969   2.769 -0.4839  0.1679 -0.1811
 9031SOL     OW27670   4.817   4.617   5.176  0.1423 -0.0311 -0.1908
 9031SOL    HW127671   4.892   4.596   5.232  0.1962 -1.7171 -0.8242
 9031SOL    HW227672   4.741   4.587   5.226  0.1065 -0.5782 -0.5614
 9032SOL     OW27673   1.821   8.425   7.801 -0.0149 -0.0839  0.3170
 9032SOL    HW127674   1.779   8.410   7.717 -0.6724  0.7759  0.4839
 9032SOL    HW227675   1.859   8.340   7.824 -0.7718 -0.6062 -0.3207
 9033SOL     OW27676   2.105   7.562   3.314 -0.6137 -0.1587  0.2416
 9033SOL    HW127677   2.190   7.581   3.274  1.1216 -4.0412  1.6097
 9033SOL    HW227678   2.106   7.609   3.398 -0.1361  0.3074 -0.0211
 9034SOL     OW27679   5.180   2.085   1.703 -0.0793  0.4063  0.1209
 9034SOL    HW127680   5.257   2.033   1.725 -1.1217 -1.0047  0.6093
 9034SOL    HW227681   5.123   2.024   1.655 -1.6555  0.8448  1.3395
 9035SOL     OW27682   1.882   1.484   0.961 -0.4433  0.4049 -0.4960
 9035SOL    HW127683   1.950   1.439   0.911 -1.4295  1.6865 -3.1740
 9035SOL    HW227684   1.930   1.541   1.020  0.8108  0.0798 -1.1497
 9036SOL     OW27685   5.743   3.833   5.703 -0.6123 -0.4553 -0.8677
 9036SOL    HW127686   5.741   3.763   5.637  2.3672 -1.0583 -0.4704
 9036SOL    HW227687   5.689   3.800   5.774  0.0414 -2.0239 -1.0446
 9037SOL     OW27688   3.923   9.317   9.531 -0.4034 -0.5396 -0.4141
 9037SOL    HW127689   4.016   9.327   9.549 -0.8688  2.7521  0.7035
 9037SOL    HW227690   3.920   9.257   9.456  2.5071 -1.4472  0.0604
 9038SOL     OW27691   7.609   5.792   6.409  0.1266  0.1285  0.4306
 9038SOL    HW127692   7.590   5.700   6.389  3.2339 -1.2845  3.0247
 9038SOL    HW227693   7.580   5.804   6.499  0.1005  1.6368  0.2527
 9039SOL     OW27694   4.654   7.501   6.707 -0.1582  0.1849  0.7586
 9039SOL    HW127695   4.682   7.499   6.798  0.1657 -0.6386  0.6507
 9039SOL    HW227696   4.663   7.410   6.677 -1.1980  0.2513  0.1951
 9040SOL     OW27697   7.855   1.847   4.107  0.1962 -0.0120 -0.1103
 9040SOL    HW127698   7.934   1.860   4.054  0.8907  0.3144  0.9803
 9040SOL    HW227699   7.849   1.926   4.160 -1.5709  0.5227 -1.0387
 9041SOL     OW27700   4.356   9.575   8.172  0.3991 -0.4984  0.0137
 9041SOL    HW127701   4.318   9.662   8.163 -0.5775 -0.9105 -0.0238
 9041SOL    HW227702   4.310   9.537   8.247  0.4412 -1.1658 -0.2888
 9042SOL     OW27703   4.644   9.950   6.372 -0.9338  0.0251  0.0354
 9042SOL    HW127704   4.645   9.899   6.453 -1.5206 -0.4571 -0.2515
 9042SOL    HW227705   4.604   9.891   6.307 -0.3912  0.3731 -0.6238
 9043SOL     OW27706   4.654   5.644   7.979 -0.2032  0.1183 -0.8915
 9043SOL    HW127707   4.648   5.718   7.920  1.5269  1.2961  0.3104
 9043SOL    HW227708   4.574   5.648   8.031  0.3682  1.8635 -0.0766
 9044SOL     OW27709   4.123   8.477   8.221  0.2027 -0.1410 -0.3024
 9044SOL    HW127710   4.200   8.533   8.218 -0.5962  1.0429  0.6081
 9044SOL    HW227711   4.127   8.435   8.307 -0.0813 -0.2035 -0.3183
 9045SOL     OW27712   9.785   1.887   6.475 -0.0574  0.5015  0.5541
 9045SOL    HW127713   9.789   1.792   6.464 -1.0913  0.1759  2.5072
 9045SOL    HW227714   9.849   1.922   6.412 -1.1435 -1.3201 -1.7175
 9046SOL     OW27715   7.109   8.181   8.606  0.3009 -0.3288 -0.2677
 9046SOL    HW127716   7.120   8.153   8.515  3.7731  1.1498 -0.4583
 9046SOL    HW227717   7.110   8.276   8.602 -1.4081 -0.2071  1.2085
 9047SOL     OW27718   9.113   3.196   0.851 -0.7135  0.4488  0.6650
 9047SOL    HW127719   9.163   3.256   0.795 -1.5082  2.2304  1.7677
 9047SOL    HW227720   9.093   3.122   0.795  1.7972  0.3785 -0.2708
 9048SOL     OW27721   6.280   0.452   2.809 -0.2971  0.3201 -0.0899
 9048SOL    HW127722   6.244   0.529   2.765 -0.3659  0.7081  0.6286
 9048SOL    HW227723   6.363   0.482   2.846 -0.0236 -0.1256 -0.3338
 9049SOL     OW27724   4.492   3.254   6.870 -0.1113 -0.4343  0.6134
 9049SOL    HW127725   4.402   3.242   6.900  0.3000 -1.3958  1.5226
 9049SOL    HW227726   4.546   3.242   6.948  0.8704 -0.8717 -0.0994
 9050SOL     OW27727   4.902   2.211   8.117 -0.0442 -0.5304 -0.0299
 9050SOL    HW127728   4.877   2.269   8.188  0.6344  0.2857 -0.4337
 9050SOL    HW227729   4.965   2.262   8.065  0.6888 -1.6780 -0.3138
 9051SOL     OW27730   8.588   6.955   7.311  0.3276 -0.1769 -0.2581
 9051SOL    HW127731   8.548   7.042   7.323 -0.3311 -0.4273 -0.5960
 9051SOL    HW227732   8.640   6.943   7.391  0.1071  0.3602 -0.0201
 9052SOL     OW27733   7.321   8.072   3.197  0.0643 -0.3503 -0.1915
 9052SOL    HW127734   7.250   8.135   3.205 -0.4493 -0.8088 -1.0554
 9052SOL    HW227735   7.391   8.121   3.153  0.5268  0.2681  1.1594
 9053SOL     OW27736   7.151   6.232   2.154  0.3579 -0.3865  0.0301
 9053SOL    HW127737   7.078   6.290   2.172  0.0071 -0.7674 -0.1485
 9053SOL    HW227738   7.179   6.202   2.241  0.1428 -0.4312  0.0845
 9054SOL     OW27739   9.757   4.514   4.675 -0.3914  0.4516 -0.6619
 9054SOL    HW127740   9.801   4.595   4.703  0.9280 -0.0603 -1.1435
 9054SOL    HW227741   9.671   4.518   4.715  0.8914  0.3722  2.3569
 9055SOL     OW27742   2.302   4.848   1.342  0.3384 -0.4137  0.3007
 9055SOL    HW127743   2.359   4.914   1.382  0.1543  0.5120 -0.9256
 9055SOL    HW227744   2.242   4.823   1.412  1.5820 -0.6723  1.3233
 9056SOL     OW27745   3.991   0.140   8.680  0.1573  0.7770  0.0767
 9056SOL    HW127746   3.951   0.058   8.650 -1.4392  2.2500 -2.1997
 9056SOL    HW227747   4.029   0.119   8.766  0.7631 -2.5634 -0.8725
 9057SOL     OW27748   7.097   3.159   6.398 -0.2747 -0.0853  0.1115
 9057SOL    HW127749   7.118   3.238   6.447 -1.2217  0.7906 -0.8174
 9057SOL    HW227750   7.025   3.186   6.339  0.4735 -1.1924 -1.3855
 9058SOL     OW27751   9.391   5.342   2.232 -0.7276 -0.2601 -0.0852
 9058SOL    HW127752   9.383   5.272   2.167 -0.4638  0.8570 -1.3775
 9058SOL    HW227753   9.369   5.422   2.183 -3.2448  0.3734  1.8531
 9059SOL     OW27754   2.817   1.127   6.253  0.4664  0.5546  0.4576
 9059SOL    HW127755   2.752   1.100   6.319 -0.0570  1.0752  0.1669
 9059SOL    HW227756   2.900   1.130   6.300  0.2871 -0.1323  0.8373
 9060SOL     OW27757   6.722   9.324   9.354 -0.0925  0.8798 -0.2203
 9060SOL    HW127758   6.697   9.408   9.391  0.0898  1.9689 -2.3732
 9060SOL    HW227759   6.809   9.338   9.317 -0.3840  0.0236 -1.3254
 9061SOL     OW27760   7.727   9.971   1.809 -0.0674  0.2032  0.3568
 9061SOL    HW127761   7.800   9.936   1.758  0.4800  1.1854  0.4449
 9061SOL    HW227762   7.675   9.894   1.833  0.0011 -0.3382 -1.1495
 9062SOL     OW27763   2.034   1.609   6.170  0.1158 -0.3264 -0.1901
 9062SOL    HW127764   2.098   1.663   6.216  1.8214 -1.0983 -1.5415
 9062SOL    HW227765   2.049   1.628   6.077 -1.3144 -0.8850 -0.5595
 9063SOL     OW27766   5.668   8.624   6.138 -0.1937  0.6344 -0.1883
 9063SOL    HW127767   5.691   8.669   6.056  1.5419  2.9004  1.4348
 9063SOL    HW227768   5.745   8.633   6.193 -2.3628  2.0628  2.8806
 9064SOL     OW27769   9.420   1.568   5.906 -0.0734  0.6768 -0.5104
 9064SOL    HW127770   9.493   1.573   5.967  1.7624 -1.4004 -2.3626
 9064SOL    HW227771   9.417   1.654   5.864  1.3399  0.7791 -0.4242
 9065SOL     OW27772   3.748   9.719   0.133 -0.2384  0.3219  0.4033
 9065SOL    HW127773   3.784   9.691   0.217  1.9476  2.4553  0.2891
 9065SOL    HW227774   3.664   9.759   0.155  0.5769  1.4245  1.7228
 9066SOL     OW27775   9.384   8.841   2.236 -0.0218 -0.1020 -0.6495
 9066SOL    HW127776   9.404   8.912   2.175  0.3373  0.3760  0.0068
 9066SOL    HW227777   9.345   8.884   2.311  0.3517 -0.5771 -0.1690
 9067SOL     OW27778   1.959   0.309   9.683  0.1063  0.5389 -0.2186
 9067SOL    HW127779   1.924   0.248   9.617  0.1169 -0.9582  1.1009
 9067SOL    HW227780   2.015   0.254   9.739  2.0708  2.2476 -0.3887
 9068SOL     OW27781   1.291   1.490   1.639 -0.1997  1.0146 -0.3878
 9068SOL    HW127782   1.347   1.416   1.663 -0.8850  0.8738  0.8190
 9068SOL    HW227783   1.310   1.504   1.546 -1.1923 -1.6728 -1.0792
 9069SOL     OW27784   8.676   1.751   4.752  0.1650  0.3628  0.0788
 9069SOL    HW127785   8.597   1.805   4.755 -0.6735 -0.8040 -0.1807
 9069SOL    HW227786   8.702   1.751   4.660 -0.6535 -0.7789 -0.1729
 9070SOL     OW27787   0.418   9.321   9.288 -0.1127  0.5303 -0.0307
 9070SOL    HW127788   0.456   9.350   9.371  2.5698 -1.9439 -0.2645
 9070SOL    HW227789   0.353   9.255   9.313 -0.6568  1.0994  0.1155
 9071SOL     OW27790   3.791   8.589   0.380  0.4097 -0.4647 -0.3105
 9071SOL    HW127791   3.855   8.535   0.333  1.2288  0.8758 -0.8070
 9071SOL    HW227792   3.748   8.529   0.440  1.5451 -1.5917 -0.5812
 9072SOL     OW27793   5.524   1.366   1.395  0.1723  0.4269  0.1706
 9072SOL    HW127794   5.551   1.294   1.451 -1.9599 -0.3868  0.2438
 9072SOL    HW227795   5.491   1.324   1.316 -1.7937  1.2076  0.5102
 9073SOL     OW27796   6.773   1.446   2.585  0.4621  0.0041 -0.1959
 9073SOL    HW127797   6.833   1.476   2.516  1.0415 -0.1649  0.2316
 9073SOL    HW227798   6.694   1.419   2.537  1.3353 -1.3801 -0.9469
 9074SOL     OW27799   9.371   2.404   5.834  0.6834  0.6548  0.1770
 9074SOL    HW127800   9.379   2.432   5.743 -1.6769 -0.0578 -0.3370
 9074SOL    HW227801   9.342   2.482   5.881 -2.1611  0.1462 -0.5386
 9075SOL     OW27802   4.037   9.043   5.544 -0.8477  0.7338 -0.3387
 9075SOL    HW127803   4.120   9.091   5.550  0.3245 -1.1608 -0.7268
 9075SOL    HW227804   4.061   8.952   5.558 -2.7042  0.0023 -1.6058
 9076SOL     OW27805   0.716   6.033   2.885 -0.2012 -0.0019  0.0126
 9076SOL    HW127806   0.674   6.117   2.867  0.6781  0.9728  2.0844
 9076SOL    HW227807   0.789   6.055   2.943 -0.6945 -2.3042  1.6822
 9077SOL     OW27808   1.190   7.870   6.762  0.6821 -0.1286 -0.0207
 9077SOL    HW127809   1.204   7.863   6.667 -1.2097  1.1337 -0.4505
 9077SOL    HW227810   1.263   7.822   6.800  4.0255  2.8204 -2.0051
 9078SOL     OW27811   1.477   1.937   2.592 -0.1348 -0.3535 -0.3648
 9078SOL    HW127812   1.460   1.975   2.506 -1.3653 -0.9468 -0.4088
 9078SOL    HW227813   1.487   1.844   2.576  3.0357 -0.1338 -0.2762
 9079SOL     OW27814   4.790   5.488   5.748 -0.5240 -0.2164  0.0490
 9079SOL    HW127815   4.789   5.531   5.662 -2.4943  1.5263  0.8713
 9079SOL    HW227816   4.881   5.462   5.761  0.6476  2.9998 -0.8868
 9080SOL     OW27817   7.984   7.921   6.646  0.1791 -0.3180 -0.6638
 9080SOL    HW127818   8.023   7.973   6.717 -0.9416  0.0143 -0.2548
 9080SOL    HW227819   8.008   7.968   6.566  0.2121  0.1492 -0.3856
 9081SOL     OW27820   7.317   2.991   9.259  0.2139 -0.4735  0.3296
 9081SOL    HW127821   7.382   3.008   9.191  2.5405 -3.0019  1.7297
 9081SOL    HW227822   7.282   2.905   9.238  0.8191 -1.2038  2.1650
 9082SOL     OW27823   9.377   0.699   9.222 -0.0816  0.1514 -0.7282
 9082SOL    HW127824   9.423   0.774   9.260 -2.4810  2.8806 -2.7468
 9082SOL    HW227825   9.394   0.705   9.128 -0.0042 -2.1427 -0.9173
 9083SOL     OW27826   5.422   7.411   6.938  0.2018  0.4766  0.0871
 9083SOL    HW127827   5.335   7.439   6.909 -0.4281 -0.2267  1.2371
 9083SOL    HW227828   5.407   7.363   7.019  1.5749 -0.4665 -0.1685
 9084SOL     OW27829   4.890   8.027   5.085  0.3982  0.2862 -0.0308
 9084SOL    HW127830   4.880   7.959   5.019  2.0236  0.1655 -0.1943
 9084SOL    HW227831   4.871   7.984   5.168  0.4747 -0.1135 -0.2216
 9085SOL     OW27832   9.455   1.728   7.575  0.3204 -0.1406 -0.3831
 9085SOL    HW127833   9.433   1.645   7.533  2.0848  0.1417 -2.0157
 9085SOL    HW227834   9.550   1.726   7.583  0.3502  1.5071  0.0516
 9086SOL     OW27835   8.877   5.465   3.009 -0.6563 -0.0040 -0.0017
 9086SOL    HW127836   8.886   5.376   2.974 -0.2789 -0.0387  0.1678
 9086SOL    HW227837   8.856   5.452   3.102  0.3093  0.0721  0.2395
 9087SOL     OW27838   1.824   2.855   7.344  0.4251  0.0033 -0.1817
 9087SOL    HW127839   1.796   2.893   7.261 -0.0779  0.5814  0.2383
 9087SOL    HW227840   1.904   2.901   7.366  0.5918 -0.1930 -0.3716
 9088SOL     OW27841   9.482   5.390   8.891  0.2095 -0.9332 -0.4453
 9088SOL    HW127842   9.468   5.331   8.816 -0.3940 -1.4089  0.0298
 9088SOL    HW227843   9.480   5.478   8.853  0.2058 -1.1785 -1.0331
 9089SOL     OW27844   8.260   4.574   1.594 -0.0430 -0.1128 -0.1368
 9089SOL    HW127845   8.249   4.516   1.519  1.5505 -0.0420 -0.4613
 9089SOL    HW227846   8.258   4.662   1.556  0.4991 -0.0699 -0.0780
 9090SOL     OW27847   6.070   1.067   4.352  0.5754  0.1876  0.1189
 9090SOL    HW127848   6.142   1.026   4.304 -0.4876 -0.2853 -1.1574
 9090SOL    HW227849   6.030   1.126   4.289 -1.3430 -1.0159  0.1228
 9091SOL     OW27850   6.830   9.700   8.448 -0.3500  0.1564  0.2089
 9091SOL    HW127851   6.814   9.795   8.446 -0.1895  0.1986  0.7179
 9091SOL    HW227852   6.772   9.668   8.518 -1.9079 -0.4203 -1.2800
 9092SOL     OW27853   1.799   2.380   9.550 -0.1331 -0.3080  0.6455
 9092SOL    HW127854   1.890   2.370   9.523  0.0040  1.7608  0.1876
 9092SOL    HW227855   1.758   2.428   9.478 -0.9627  0.9451  1.9105
 9093SOL     OW27856   3.795   7.565   2.648 -0.0366  0.6459 -0.2370
 9093SOL    HW127857   3.877   7.520   2.669  0.3068  0.9974 -0.7852
 9093SOL    HW227858   3.739   7.550   2.724  0.3450 -0.0486 -0.0870
 9094SOL     OW27859   1.693   1.317   1.415  0.4469  0.0613  0.4872
 9094SOL    HW127860   1.633   1.389   1.402 -1.5397 -1.4357  0.9109
 9094SOL    HW227861   1.680   1.260   1.340  0.1775 -1.0210  1.3196
 9095SOL     OW27862   4.840   4.571   8.109  0.0949 -0.2305  0.2654
 9095SOL    HW127863   4.828   4.571   8.014  0.0033  1.8133  0.2173
 9095SOL    HW227864   4.931   4.597   8.122  0.2420 -0.9735  0.7328
 9096SOL     OW27865   8.469   0.536   5.676 -0.4722  0.3565 -0.1806
 9096SOL    HW127866   8.509   0.451   5.657 -0.7889 -0.4103  2.1966
 9096SOL    HW227867   8.544   0.594   5.692 -0.1975 -0.4499  1.7842
 9097SOL     OW27868   3.519   1.308   2.118  0.5451  0.2526 -0.3273
 9097SOL    HW127869   3.518   1.213   2.134  0.8221  0.0729 -1.3515
 9097SOL    HW227870   3.568   1.318   2.037 -2.2499  0.9864 -2.0534
 9098SOL     OW27871   3.857   4.992   0.301 -0.4821  0.0794 -0.1818
 9098SOL    HW127872   3.804   4.913   0.286 -1.2954  0.7342 -0.8394
 9098SOL    HW227873   3.810   5.040   0.369  0.6850 -0.5765  1.1596
 9099SOL     OW27874   6.456   7.460   1.088 -0.0480 -0.1116 -0.1363
 9099SOL    HW127875   6.421   7.522   1.152 -0.3688 -1.5117  1.0961
 9099SOL    HW227876   6.540   7.433   1.124 -0.4940 -1.3583  0.0316
 9100SOL     OW27877   0.611   1.896   3.917  0.4095 -0.0170  0.5358
 9100SOL    HW127878   0.552   1.901   3.842  0.9341 -0.9250  0.0365
 9100SOL    HW227879   0.645   1.985   3.927  0.7403  0.0037 -0.6429
 9101SOL     OW27880   9.566   8.315   5.430  0.2233 -0.8504 -0.3417
 9101SOL    HW127881   9.474   8.336   5.444  0.7343  1.3031  0.1012
 9101SOL    HW227882   9.614   8.385   5.473  2.0797 -1.2686 -1.5869
 9102SOL     OW27883   7.051   1.807   4.049 -0.3523 -0.2376 -0.1530
 9102SOL    HW127884   7.060   1.864   4.125  0.8178 -0.7530  0.1276
 9102SOL    HW227885   6.970   1.759   4.064  0.7612 -1.6727  1.7534
 9103SOL     OW27886   8.018   6.552   9.730 -0.0699 -0.1667  0.7105
 9103SOL    HW127887   7.974   6.484   9.679 -0.8467  0.0489  1.0762
 9103SOL    HW227888   7.996   6.531   9.821  0.1970  0.2263  0.8680
 9104SOL     OW27889   2.875   1.420   8.127  0.0088 -0.0226 -0.5707
 9104SOL    HW127890   2.898   1.432   8.219 -1.0969  1.1557 -0.4283
 9104SOL    HW227891   2.911   1.498   8.083  2.1186 -1.3952 -1.4963
 9105SOL     OW27892   9.022   4.386   3.261  0.3148  0.1145 -0.0007
 9105SOL    HW127893   8.963   4.337   3.319  0.5535 -0.5136 -0.2727
 9105SOL    HW227894   9.107   4.384   3.306  0.1924  0.7978  0.2688
 9106SOL     OW27895   6.101   6.158   1.082  0.3831 -0.1494  0.2245
 9106SOL    HW127896   6.025   6.215   1.070  0.3668 -0.5362 -2.0954
 9106SOL    HW227897   6.170   6.215   1.114  0.4387  1.3292 -2.2589
 9107SOL     OW27898   7.027   6.693   8.105 -0.5711 -0.4829 -0.2473
 9107SOL    HW127899   7.063   6.605   8.108 -1.5504 -0.8716  0.3692
 9107SOL    HW227900   6.956   6.693   8.169 -0.5977  0.7491 -0.2414
 9108SOL     OW27901   5.110   9.669   1.718  0.3502 -0.0531  0.1033
 9108SOL    HW127902   5.020   9.674   1.751  0.2094 -0.2240 -0.2590
 9108SOL    HW227903   5.147   9.755   1.738 -0.3446  0.5412 -1.0649
 9109SOL     OW27904   9.650   8.982   6.271  0.2259  0.0064 -0.0177
 9109SOL    HW127905   9.634   8.905   6.216  0.7569  2.1445 -3.4845
 9109SOL    HW227906   9.742   8.975   6.296  0.1508 -0.6830  0.0912
 9110SOL     OW27907   7.712   6.757   7.524  0.3184  0.2326  0.0208
 9110SOL    HW127908   7.623   6.785   7.502 -0.3384 -0.1348  2.0634
 9110SOL    HW227909   7.700   6.691   7.592  2.2221  1.4181  1.5918
 9111SOL     OW27910   9.646   7.510   8.511  0.3460 -0.1268  0.6522
 9111SOL    HW127911   9.631   7.576   8.443 -0.1200 -1.2027 -0.3237
 9111SOL    HW227912   9.676   7.432   8.463 -0.1543 -0.9655  1.6511
 9112SOL     OW27913   9.119   4.668   4.218 -0.4866  0.1944 -0.1643
 9112SOL    HW127914   9.177   4.719   4.161  1.4330 -0.6379  0.9203
 9112SOL    HW227915   9.128   4.578   4.186 -0.1315 -0.1362  0.8339
 9113SOL     OW27916   1.947   1.463   7.748 -0.0940  0.8308  0.1045
 9113SOL    HW127917   1.863   1.453   7.792  0.0277 -0.7656  0.0614
 9113SOL    HW227918   2.008   1.410   7.801  0.5780  0.8824 -0.5992
 9114SOL     OW27919   3.689   7.567   4.951  0.2240  0.4158 -0.2266
 9114SOL    HW127920   3.756   7.504   4.926 -0.4390  0.3509 -2.0019
 9114SOL    HW227921   3.693   7.634   4.883 -0.0780  1.5381  0.8239
 9115SOL     OW27922   0.228   7.426   4.247 -0.3312 -0.0857  0.2444
 9115SOL    HW127923   0.297   7.491   4.237 -0.8846  0.4136 -0.3705
 9115SOL    HW227924   0.155   7.459   4.195 -0.9003 -0.8046  0.5611
 9116SOL     OW27925   7.086   6.898   5.973  0.0075  0.0704 -0.1534
 9116SOL    HW127926   7.110   6.974   6.028  0.0750 -0.8189  1.0968
 9116SOL    HW227927   7.138   6.826   6.009 -1.6630 -1.0466  0.1089
 9117SOL     OW27928   2.171   6.420   5.484 -0.3277  0.1111  0.7595
 9117SOL    HW127929   2.102   6.357   5.501 -0.8925 -0.3647 -2.6282
 9117SOL    HW227930   2.125   6.500   5.457  0.3993  0.1306 -0.4974
 9118SOL     OW27931   0.620   3.881   0.093  0.0923  0.9053 -0.2860
 9118SOL    HW127932   0.703   3.912   0.130 -1.1813  0.4130  3.3140
 9118SOL    HW227933   0.636   3.789   0.073  0.2207  0.5755  1.2241
 9119SOL     OW27934   9.253   8.968   3.568  0.1695  0.1429  0.1312
 9119SOL    HW127935   9.208   8.887   3.542  2.6887 -1.0615 -0.9054
 9119SOL    HW227936   9.215   9.036   3.512 -2.4937 -0.1143  1.5130
 9120SOL     OW27937   5.184   2.863   4.492  0.3243  0.6107 -0.2051
 9120SOL    HW127938   5.106   2.919   4.487 -0.4328 -0.2325  1.4531
 9120SOL    HW227939   5.170   2.796   4.425 -1.3009 -0.5796  1.2268
 9121SOL     OW27940   5.048   0.383   8.981 -0.1130 -0.6419  0.2131
 9121SOL    HW127941   5.144   0.390   8.986 -0.2675  2.5216  1.6370
 9121SOL    HW227942   5.032   0.313   8.918  3.1085 -2.4181  1.1458
 9122SOL     OW27943   6.118   8.168   9.169 -0.3111  0.2422  0.2964
 9122SOL    HW127944   6.142   8.087   9.213  0.5409  1.3839  2.0895
 9122SOL    HW227945   6.198   8.198   9.127 -0.1616  0.9355  1.0311
 9123SOL     OW27946   6.632   4.568   3.080  0.6872 -0.6627  0.1737
 9123SOL    HW127947   6.683   4.491   3.052  0.2035 -1.5121  1.5344
 9123SOL    HW227948   6.677   4.642   3.039  0.8161 -1.6935 -1.6895
 9124SOL     OW27949   5.784   8.374   1.417 -0.0572  0.4569  0.1700
 9124SOL    HW127950   5.696   8.406   1.401  0.2398  0.7981 -0.8435
 9124SOL    HW227951   5.792   8.373   1.512 -1.5459 -0.6924  0.3303
 9125SOL     OW27952   5.499   2.827   1.461 -0.1698  0.7928 -0.1090
 9125SOL    HW127953   5.406   2.809   1.449 -0.0760  0.2890 -0.0990
 9125SOL    HW227954   5.543   2.747   1.433  0.2065  0.6768  0.7526
 9126SOL     OW27955   8.840   2.706   9.143 -0.1945 -0.1650  0.2361
 9126SOL    HW127956   8.867   2.707   9.235  2.0139  2.4279 -0.3329
 9126SOL    HW227957   8.785   2.783   9.133  1.2108  0.7356 -0.9879
 9127SOL     OW27958   2.395   1.407   1.410 -0.5375  0.4662 -0.5553
 9127SOL    HW127959   2.460   1.447   1.352 -0.1358  0.6111 -0.0136
 9127SOL    HW227960   2.393   1.315   1.384  0.1513  0.3848 -0.3512
 9128SOL     OW27961   0.697   6.352   0.379  0.0437 -0.2347  0.0382
 9128SOL    HW127962   0.640   6.391   0.313  1.2490 -2.7029 -2.7267
 9128SOL    HW227963   0.642   6.288   0.424 -0.9136  1.7936  1.8928
 9129SOL     OW27964   4.769   1.363   1.839 -0.0988  0.1392 -0.2267
 9129SOL    HW127965   4.693   1.321   1.799  0.5859  0.4805 -1.9654
 9129SOL    HW227966   4.835   1.294   1.842 -0.6000 -0.3074  1.7771
 9130SOL     OW27967   7.941   8.958  -0.020  0.4131  0.1447  0.0705
 9130SOL    HW127968   8.025   8.951   0.026  0.6490  0.0920 -0.3536
 9130SOL    HW227969   7.891   8.883   0.011  0.9201 -0.4246 -0.4430
 9131SOL     OW27970   3.004   2.970   5.663 -0.4195 -0.3374 -0.1536
 9131SOL    HW127971   2.974   2.895   5.714 -0.0130 -0.5174 -0.1739
 9131SOL    HW227972   2.961   2.959   5.578 -0.5594 -0.4123 -0.0732
 9132SOL     OW27973   0.863   1.221   0.844  0.2907 -0.1370  0.2933
 9132SOL    HW127974   0.921   1.218   0.768 -1.5164 -0.9371 -1.1138
 9132SOL    HW227975   0.910   1.275   0.908  2.4053 -0.4764 -0.9003
 9133SOL     OW27976   6.515   8.607   3.690  0.1116  0.2156 -0.0784
 9133SOL    HW127977   6.491   8.687   3.644  1.3496  0.1114 -0.9636
 9133SOL    HW227978   6.449   8.598   3.759 -0.1456  1.9011 -0.0573
 9134SOL     OW27979   1.543   3.665   0.990 -0.4785 -0.4670 -0.2125
 9134SOL    HW127980   1.593   3.733   1.035  0.9904 -0.9663 -1.0046
 9134SOL    HW227981   1.515   3.606   1.060 -1.3255  0.6593  0.4207
 9135SOL     OW27982   1.629   9.210   0.904 -0.0617  0.6670  0.4411
 9135SOL    HW127983   1.618   9.116   0.918 -0.6511  0.7275  0.4141
 9135SOL    HW227984   1.687   9.217   0.827  0.2139  0.3314  0.6184
 9136SOL     OW27985   4.370   8.155   6.247 -0.2009 -0.3220  0.0868
 9136SOL    HW127986   4.342   8.150   6.338 -0.9694 -0.2837 -0.1460
 9136SOL    HW227987   4.439   8.221   6.247  0.8158 -1.3281  0.8894
 9137SOL     OW27988   7.170   4.278   5.495  0.2091  0.0312 -0.3342
 9137SOL    HW127989   7.228   4.262   5.421  0.5441 -1.5223  0.2403
 9137SOL    HW227990   7.103   4.209   5.489 -2.0443  2.1359 -1.3754
 9138SOL     OW27991   3.565   7.360   6.219  0.0724  0.2798  0.4881
 9138SOL    HW127992   3.580   7.452   6.239  0.3529  0.1205  1.0131
 9138SOL    HW227993   3.489   7.361   6.160  0.3644  0.8755  0.1028
 9139SOL     OW27994   3.625   6.886   0.022  0.2328  0.4595  0.6756
 9139SOL    HW127995   3.647   6.883   0.115  1.0028 -1.2465  0.4790
 9139SOL    HW227996   3.694   6.835  -0.021 -0.5897  0.4625 -0.7247
 9140SOL     OW27997   8.121   8.156   4.306  0.0303  0.4404 -0.1772
 9140SOL    HW127998   8.216   8.161   4.315 -0.0075  1.1380 -0.0541
 9140SOL    HW227999   8.088   8.163   4.395 -0.1473  0.5659 -0.2521
 9141SOL     OW28000   4.385   0.076   6.683 -0.6302 -0.3785 -0.6242
 9141SOL    HW128001   4.323   0.053   6.614 -1.6707 -1.4591  0.6183
 9141SOL    HW228002   4.344   0.150   6.728 -0.7161 -0.6613 -0.2252
 9142SOL     OW28003   1.153   1.814   6.005 -0.0117 -0.1416  0.0482
 9142SOL    HW128004   1.181   1.905   5.995  0.2216 -0.0105  1.7148
 9142SOL    HW228005   1.220   1.774   6.060 -1.0579 -0.8543  0.8291
 9143SOL     OW28006   8.665   0.411   1.705  0.1879 -0.1317  0.1382
 9143SOL    HW128007   8.638   0.327   1.668  0.7647 -0.2587 -0.0102
 9143SOL    HW228008   8.626   0.476   1.647  0.5855 -0.3196 -0.3461
 9144SOL     OW28009   9.396   5.305   0.361 -0.0276 -0.3176 -0.0151
 9144SOL    HW128010   9.426   5.350   0.282  0.0811  0.3200  0.3777
 9144SOL    HW228011   9.376   5.376   0.423 -3.7016 -0.5902 -0.6830
 9145SOL     OW28012   0.843   0.780   9.646 -0.2943 -0.0151 -0.5681
 9145SOL    HW128013   0.821   0.721   9.719  0.2508  0.0040 -0.3864
 9145SOL    HW228014   0.868   0.721   9.575  0.6954 -0.0062 -0.2449
 9146SOL     OW28015   7.770   6.822   9.730 -0.7328 -0.1255 -0.2748
 9146SOL    HW128016   7.734   6.877   9.661  0.2387  0.6493 -0.2000
 9146SOL    HW228017   7.865   6.824   9.715 -0.6440 -1.5196 -0.0588
 9147SOL     OW28018   3.889   8.662   3.407  0.1979  0.1409  0.3239
 9147SOL    HW128019   3.807   8.683   3.364  0.1429  0.6916  0.6905
 9147SOL    HW228020   3.868   8.589   3.466  0.1338 -0.1858 -0.0969
 9148SOL     OW28021   4.341   4.694   4.559  0.4266 -0.1898 -0.4219
 9148SOL    HW128022   4.276   4.623   4.554 -2.1377  1.8570  0.9953
 9148SOL    HW228023   4.358   4.717   4.468 -0.4294 -1.1391 -0.8503
 9149SOL     OW28024   2.931   7.082   0.148  0.3246 -0.6951  0.0972
 9149SOL    HW128025   2.900   7.162   0.191 -0.0642  0.2359 -1.7802
 9149SOL    HW228026   3.026   7.089   0.150  0.2972  0.5126 -1.1759
 9150SOL     OW28027   2.955   9.176   4.063  0.3197 -0.0844 -0.1259
 9150SOL    HW128028   2.934   9.238   3.993 -0.7779  0.1778  0.4092
 9150SOL    HW228029   2.907   9.097   4.041  0.0285 -0.0254  0.2885
 9151SOL     OW28030   6.733   2.209   2.683 -0.2114 -0.1338 -0.1770
 9151SOL    HW128031   6.772   2.243   2.764 -0.3132 -0.9047  0.2050
 9151SOL    HW228032   6.651   2.168   2.711  0.9064 -2.6102 -0.2575
 9152SOL     OW28033   5.272   8.973   2.050  0.4951 -0.0241 -0.7019
 9152SOL    HW128034   5.338   8.983   1.982  0.6869 -0.3936 -0.5773
 9152SOL    HW228035   5.298   9.034   2.119  0.4312  0.1828 -0.8609
 9153SOL     OW28036   4.326   7.576   3.443 -0.2872  0.3161 -0.4305
 9153SOL    HW128037   4.296   7.556   3.532  0.9035 -0.0134 -0.0808
 9153SOL    HW228038   4.265   7.642   3.411 -1.7266 -0.7564  0.0091
 9154SOL     OW28039   6.139   7.985   3.053 -0.1163  0.6074  0.0368
 9154SOL    HW128040   6.123   7.890   3.053  0.1177  0.5508  1.4570
 9154SOL    HW228041   6.214   7.997   3.111 -1.4450  1.8555  1.5726
 9155SOL     OW28042   3.420   7.535   6.657 -0.1282 -0.4010 -0.4591
 9155SOL    HW128043   3.338   7.586   6.654 -0.3350 -0.7461 -0.8957
 9155SOL    HW228044   3.399   7.454   6.610  0.8227  0.0335 -1.7161
 9156SOL     OW28045   8.508   1.187   9.636  0.1896  0.3722  1.0320
 9156SOL    HW128046   8.481   1.118   9.696 -0.5439 -1.5405 -1.3156
 9156SOL    HW228047   8.427   1.217   9.594  0.7719  0.7448  0.1249
 9157SOL     OW28048   3.154   9.269   5.988  0.1751 -0.5212 -0.5759
 9157SOL    HW128049   3.064   9.239   5.995  0.0670 -0.2903 -0.9621
 9157SOL    HW228050   3.191   9.218   5.915  0.8772 -1.8895  0.6689
 9158SOL     OW28051   3.685   4.064   8.237 -0.1668  0.1525 -0.5906
 9158SOL    HW128052   3.708   3.974   8.216  0.7559  0.1777  0.2445
 9158SOL    HW228053   3.743   4.088   8.310 -1.0611  1.0940 -0.1521
 9159SOL     OW28054   6.579   2.518   5.439  0.5143  0.0267  0.0322
 9159SOL    HW128055   6.595   2.480   5.525  2.7423  1.3161  0.2677
 9159SOL    HW228056   6.507   2.580   5.453  1.0821  0.4729  1.0418
 9160SOL     OW28057   1.596   6.455   2.810  0.3071 -0.3120 -0.1663
 9160SOL    HW128058   1.541   6.387   2.771 -0.5362 -0.5432  1.3282
 9160SOL    HW228059   1.649   6.408   2.875 -0.0779  0.4058  0.6840
 9161SOL     OW28060   0.053   7.269   1.436  0.4579 -0.1985 -0.2006
 9161SOL    HW128061   0.112   7.193   1.435  1.8380  0.8273 -0.0154
 9161SOL    HW228062   0.090   7.328   1.370  0.4783  1.0783  0.9071
 9162SOL     OW28063   3.966   4.873   4.138 -0.6452 -0.2387 -0.4005
 9162SOL    HW128064   3.928   4.801   4.187  1.2455 -1.4597 -0.6185
 9162SOL    HW228065   4.021   4.920   4.201  1.0743 -1.2720 -1.0614
 9163SOL     OW28066   6.538   0.918   4.491  0.0462  0.0853  0.0717
 9163SOL    HW128067   6.511   1.005   4.521  1.0094  1.1372 -1.8672
 9163SOL    HW228068   6.524   0.861   4.566  0.6847  2.1655  1.8943
 9164SOL     OW28069   0.942   4.509   6.709 -0.0107 -0.0915  0.1158
 9164SOL    HW128070   0.970   4.433   6.657  0.7730 -0.9346  1.6843
 9164SOL    HW228071   1.005   4.578   6.686  0.6215 -0.6003  0.2965
 9165SOL     OW28072   4.296   9.702   0.939 -0.0194 -0.2384 -0.1598
 9165SOL    HW128073   4.261   9.637   0.999 -1.1387  0.0047 -0.5199
 9165SOL    HW228074   4.314   9.778   0.994  1.5207 -0.8824  0.3059
 9166SOL     OW28075   3.949   3.739   4.081  0.0374 -0.0623 -0.1392
 9166SOL    HW128076   3.893   3.682   4.028  2.0819 -1.8856 -0.4630
 9166SOL    HW228077   3.943   3.824   4.038 -1.4760 -0.4936 -0.8885
 9167SOL     OW28078   8.868   4.564   1.733  0.7741 -0.1031  0.4751
 9167SOL    HW128079   8.876   4.478   1.775  0.3545 -0.4515 -0.1524
 9167SOL    HW228080   8.776   4.570   1.707  1.2725 -0.3955 -1.4666
 9168SOL     OW28081   0.186   2.822   6.845  0.5364  0.5354 -0.1116
 9168SOL    HW128082   0.178   2.830   6.940  1.0288  1.6924 -0.1470
 9168SOL    HW228083   0.261   2.877   6.822  0.6788 -0.0445 -1.1305
 9169SOL     OW28084   9.793   7.597   2.684 -0.7071 -0.5812 -0.1546
 9169SOL    HW128085   9.876   7.557   2.711  0.6866  2.3718  0.3872
 9169SOL    HW228086   9.727   7.555   2.739  1.0375 -0.0774  2.5447
 9170SOL     OW28087   0.321   6.536   4.606  0.0281  0.4633 -0.3624
 9170SOL    HW128088   0.386   6.520   4.674  2.0575  2.6795 -1.6116
 9170SOL    HW228089   0.293   6.627   4.620  0.0999  0.7973 -2.1149
 9171SOL     OW28090   9.890   0.601   8.688 -0.2792 -0.3458  0.3433
 9171SOL    HW128091   9.842   0.575   8.767  1.4783  0.6540  1.8227
 9171SOL    HW228092   9.851   0.685   8.663  0.1347  0.0711  1.0639
 9172SOL     OW28093   3.967   1.754   5.192 -0.3166  0.4804 -0.7440
 9172SOL    HW128094   3.922   1.772   5.110  2.0535  0.2985 -2.1425
 9172SOL    HW228095   4.005   1.668   5.181  2.7284  1.7155 -0.7888
 9173SOL     OW28096   8.976   6.111   9.588  0.4080  0.9534 -0.1576
 9173SOL    HW128097   9.007   6.200   9.570  1.4401  0.4688 -0.7992
 9173SOL    HW228098   9.024   6.055   9.528  1.6355 -0.3575  1.9069
 9174SOL     OW28099   0.332   4.673   9.715  0.2970  0.7089 -0.0206
 9174SOL    HW128100   0.418   4.713   9.726  0.5436  0.0510  0.5342
 9174SOL    HW228101   0.337   4.591   9.765 -0.4970  0.4391 -0.3611
 9175SOL     OW28102   4.613   4.025   2.669 -0.3900 -0.2644  0.6099
 9175SOL    HW128103   4.560   4.099   2.700 -0.2829 -1.0685  2.9065
 9175SOL    HW228104   4.685   4.020   2.731  0.5771 -1.2351 -0.5438
 9176SOL     OW28105   6.319   5.245   0.564 -0.4261  0.2604 -0.1198
 9176SOL    HW128106   6.228   5.258   0.589 -0.2907  0.4240  0.2894
 9176SOL    HW228107   6.329   5.150   0.559 -0.3218  0.1999  0.9739
 9177SOL     OW28108   1.024   4.045   3.608  0.2403 -0.1575 -0.2159
 9177SOL    HW128109   1.061   4.030   3.521 -0.9688 -0.1385 -0.7540
 9177SOL    HW228110   1.018   4.140   3.616 -1.3247 -0.1781 -0.8692
 9178SOL     OW28111   0.384   6.667   5.897 -0.0114  0.4736  0.4885
 9178SOL    HW128112   0.297   6.703   5.880 -0.6292 -0.2077  2.0243
 9178SOL    HW228113   0.418   6.719   5.969  0.3987  0.0296  0.6216
 9179SOL     OW28114   4.119   8.944   8.822  0.0897  0.1018 -0.0710
 9179SOL    HW128115   4.106   8.862   8.870  0.3757 -0.2877 -0.6516
 9179SOL    HW228116   4.053   9.004   8.859  0.9184  0.1254  1.4746
 9180SOL     OW28117   4.429   2.479   5.996  0.0233  0.1567  0.2667
 9180SOL    HW128118   4.392   2.406   5.946 -0.0629 -0.3071  0.9973
 9180SOL    HW228119   4.521   2.483   5.966 -0.3934  0.8544 -1.0163
 9181SOL     OW28120   2.318   7.508   1.133 -0.0123 -0.1731 -0.5632
 9181SOL    HW128121   2.290   7.431   1.183  0.1652 -0.7513 -1.3278
 9181SOL    HW228122   2.373   7.472   1.063  0.6814  0.7212 -0.4991
 9182SOL     OW28123   7.009   7.776   1.360 -0.5192  0.4543  0.3209
 9182SOL    HW128124   6.971   7.724   1.431  1.2160 -0.7815  0.4138
 9182SOL    HW228125   6.957   7.753   1.283 -0.2304 -0.9245  0.5096
 9183SOL     OW28126   0.991   9.450   2.750  0.4264 -0.2125 -0.3580
 9183SOL    HW128127   1.039   9.501   2.816 -0.4798 -0.2277  0.3322
 9183SOL    HW228128   1.044   9.458   2.671  0.3182  1.8346 -0.2821
 9184SOL     OW28129   7.302   5.565   4.750 -0.3700 -0.5724 -0.2802
 9184SOL    HW128130   7.256   5.649   4.740 -3.1641 -1.9935 -0.4263
 9184SOL    HW228131   7.383   5.587   4.795 -2.0726  1.9648  1.8457
 9185SOL     OW28132   0.695   5.111   2.625  0.4368 -0.3620  0.0404
 9185SOL    HW128133   0.759   5.138   2.690 -0.1162  0.1006  0.4065
 9185SOL    HW228134   0.610   5.123   2.669  0.1277 -2.3452  0.1001
 9186SOL     OW28135   4.048   2.503   6.832 -0.0334  0.0775  0.4994
 9186SOL    HW128136   4.000   2.495   6.914 -2.1912 -1.5212 -0.7921
 9186SOL    HW228137   4.133   2.464   6.849 -1.3889 -2.7801  1.3367
 9187SOL     OW28138   3.430   9.762   2.996 -0.2128  0.0092 -0.1495
 9187SOL    HW128139   3.429   9.814   2.915 -0.0082 -0.5736 -0.5321
 9187SOL    HW228140   3.346   9.716   2.995  0.4472 -1.2263 -0.8530
 9188SOL     OW28141   5.852   5.434   8.913 -0.2287  0.4829  0.1572
 9188SOL    HW128142   5.765   5.451   8.949  0.8883 -0.3504  3.6066
 9188SOL    HW228143   5.872   5.512   8.861 -1.3023  2.8089  2.9679
 9189SOL     OW28144   9.602   7.423   2.179 -0.5789  0.5257 -0.1606
 9189SOL    HW128145   9.661   7.348   2.182 -2.9220 -1.4264  2.8561
 9189SOL    HW228146   9.642   7.488   2.236 -0.6364 -0.2610  0.8030
 9190SOL     OW28147   5.139   3.712   1.495 -0.2417  0.0841  0.0552
 9190SOL    HW128148   5.229   3.692   1.469  0.1017 -0.1106  1.3406
 9190SOL    HW228149   5.134   3.807   1.495 -0.0550  0.0938 -0.1004
 9191SOL     OW28150   4.012   0.235   2.140 -0.5976 -0.1937  0.0119
 9191SOL    HW128151   3.991   0.243   2.233  0.3241  0.1879  0.1953
 9191SOL    HW228152   4.107   0.237   2.136 -0.6356  1.5935 -1.0755
 9192SOL     OW28153   9.822   6.091   5.685  0.6316  0.0649 -0.1472
 9192SOL    HW128154   9.795   6.023   5.746 -0.8588  1.3693  0.7348
 9192SOL    HW228155   9.846   6.165   5.741  1.2259  0.6186 -1.1048
 9193SOL     OW28156   8.067   5.626   1.707 -0.1688 -0.1455 -0.0090
 9193SOL    HW128157   8.040   5.545   1.664  0.7396 -0.1400 -0.6355
 9193SOL    HW228158   8.139   5.658   1.652  1.3268 -0.3411  1.7445
 9194SOL     OW28159   1.127   1.271   6.479 -0.1633 -0.1830 -0.5058
 9194SOL    HW128160   1.122   1.346   6.538  0.6106 -1.8613  1.8339
 9194SOL    HW228161   1.220   1.261   6.460 -0.3967  0.2769 -1.9860
 9195SOL     OW28162   1.803   7.077   7.232  0.2075 -0.2153  0.8101
 9195SOL    HW128163   1.850   7.084   7.149 -1.6945 -0.0900 -0.3195
 9195SOL    HW228164   1.763   6.990   7.231  0.6250 -0.4449  1.8836
 9196SOL     OW28165   5.259   1.491   6.549  0.1815  0.4955 -0.0824
 9196SOL    HW128166   5.270   1.497   6.644 -2.1533  1.9446  0.1742
 9196SOL    HW228167   5.186   1.430   6.538  0.8826 -0.1996 -1.0158
 9197SOL     OW28168   8.007   8.694   3.369  0.0101  0.2240 -0.0032
 9197SOL    HW128169   8.070   8.632   3.405 -0.0322 -0.4022 -0.9625
 9197SOL    HW228170   8.061   8.766   3.335  0.0910  0.4849  0.6740
 9198SOL     OW28171   2.366   6.087   3.618 -0.4102 -0.5695 -0.2600
 9198SOL    HW128172   2.350   6.178   3.594 -0.5112 -0.3841  0.4945
 9198SOL    HW228173   2.281   6.044   3.607 -0.2907 -0.6494 -0.9225
 9199SOL     OW28174   6.148   0.369   1.216 -0.3060 -0.2513 -0.0642
 9199SOL    HW128175   6.198   0.437   1.172 -1.7375  0.5346 -0.5426
 9199SOL    HW228176   6.156   0.389   1.309 -0.8551  0.6881 -0.2100
 9200SOL     OW28177   2.905   6.258   6.470 -0.1844 -0.4094  0.3397
 9200SOL    HW128178   2.939   6.187   6.415  0.0231 -1.5917  1.9171
 9200SOL    HW228179   2.823   6.284   6.427  0.8045 -0.0937 -1.4465
 9201SOL     OW28180   6.118   3.196   1.413 -0.2538  0.0577  0.3241
 9201SOL    HW128181   6.049   3.235   1.359  0.8145  0.9433 -0.4323
 9201SOL    HW228182   6.172   3.269   1.441  1.1011 -0.7253 -0.1310
 9202SOL     OW28183   5.385   5.390   4.132 -0.1761  0.3584 -0.4909
 9202SOL    HW128184   5.370   5.299   4.157 -0.1407  0.8044  1.2689
 9202SOL    HW228185   5.458   5.419   4.187  0.0338  1.3602 -1.2616
 9203SOL     OW28186   8.414   9.776   1.522 -0.2654  0.2021  0.4343
 9203SOL    HW128187   8.490   9.833   1.523  1.0071 -1.3985  1.7207
 9203SOL    HW228188   8.391   9.765   1.614 -0.3404 -1.4425  0.2562
 9204SOL     OW28189   9.219   2.912   8.424 -0.3121 -0.6862 -0.1060
 9204SOL    HW128190   9.157   2.873   8.485 -0.2069  1.1888  1.2593
 9204SOL    HW228191   9.241   2.840   8.364 -1.4517 -2.2168  1.2139
 9205SOL     OW28192   7.133   3.453   8.486  0.1205  0.0468  0.3721
 9205SOL    HW128193   7.155   3.495   8.403 -0.6655  0.2709  0.2690
 9205SOL    HW228194   7.041   3.428   8.476 -0.4222  1.3857  1.7069
 9206SOL     OW28195   2.279   3.081   1.914  0.2309  0.7092  0.0337
 9206SOL    HW128196   2.210   3.103   1.852 -1.4003 -1.6180  0.8507
 9206SOL    HW228197   2.333   3.016   1.869 -0.2143 -0.0524  0.5642
 9207SOL     OW28198   4.814   6.073   7.519 -0.2165  0.2212  0.2597
 9207SOL    HW128199   4.802   6.118   7.435  1.5586 -0.2545 -0.3005
 9207SOL    HW228200   4.726   6.064   7.555 -0.9497  0.9759 -1.2763
 9208SOL     OW28201   9.858   8.291   7.595 -0.1620 -0.0907  0.1118
 9208SOL    HW128202   9.925   8.242   7.644 -0.2051 -2.3226 -1.8611
 9208SOL    HW228203   9.793   8.315   7.661  1.1592 -0.4208  1.5957
 9209SOL     OW28204   7.392   9.041   6.877 -0.7778  0.6592 -0.3937
 9209SOL    HW128205   7.422   8.959   6.917 -0.4435  0.0986 -1.7181
 9209SOL    HW228206   7.312   9.063   6.924  0.0761  0.5295  1.1634
 9210SOL     OW28207   0.636   7.683   5.838 -0.3298  0.3929  0.6424
 9210SOL    HW128208   0.643   7.667   5.932  0.8516 -1.1233  0.3419
 9210SOL    HW228209   0.715   7.733   5.816 -0.2327  0.1035  0.3321
 9211SOL     OW28210   5.796   1.432   7.772  0.1957 -0.1313  0.0846
 9211SOL    HW128211   5.720   1.376   7.756 -1.2023  1.6536  0.0828
 9211SOL    HW228212   5.810   1.428   7.866  0.5051 -0.9494  0.0094
 9212SOL     OW28213   7.983   7.064   0.740 -0.4746  0.2502  0.2259
 9212SOL    HW128214   7.996   6.983   0.692 -1.9128  0.4018 -0.4626
 9212SOL    HW228215   8.048   7.124   0.703 -0.9546  0.0897 -0.8975
 9213SOL     OW28216   8.133   1.279   9.779  0.5017  0.3825  0.0559
 9213SOL    HW128217   8.056   1.335   9.774  0.4247  0.2125 -0.8070
 9213SOL    HW228218   8.099   1.193   9.806  0.3386  0.2251 -0.6320
 9214SOL     OW28219   9.396   6.062   1.632  0.1809  0.1243 -0.4994
 9214SOL    HW128220   9.425   6.153   1.635 -2.7573  1.1421  1.8384
 9214SOL    HW228221   9.428   6.023   1.713 -2.9156  0.7446  1.1850
 9215SOL     OW28222   4.274   3.121   7.384  0.3992  0.4325 -0.3329
 9215SOL    HW128223   4.297   3.040   7.338  1.4764 -0.1386  1.1151
 9215SOL    HW228224   4.271   3.096   7.476 -0.6721  1.7561  0.0209
 9216SOL     OW28225   2.722   4.462   7.822 -0.1777 -0.2903  0.1803
 9216SOL    HW128226   2.663   4.387   7.824  0.5878 -0.9085  2.1629
 9216SOL    HW228227   2.775   4.449   7.744 -1.6659 -0.4902 -0.8371
 9217SOL     OW28228   2.273   6.431   2.281 -0.1322 -1.1031 -0.1018
 9217SOL    HW128229   2.333   6.384   2.223 -0.0662  0.1204 -1.0592
 9217SOL    HW228230   2.296   6.524   2.269 -0.2783 -0.7897  1.6957
 9218SOL     OW28231   6.636   4.589   8.438 -0.0550 -0.2879 -0.0143
 9218SOL    HW128232   6.664   4.596   8.346 -1.6221 -1.6529 -0.6528
 9218SOL    HW228233   6.718   4.590   8.488  0.8988 -0.5242 -1.4945
 9219SOL     OW28234   4.276   9.532   2.743  0.5000 -0.1953 -0.4339
 9219SOL    HW128235   4.241   9.498   2.660 -0.1726  0.6671 -0.5184
 9219SOL    HW228236   4.204   9.584   2.779  1.6401  1.5248 -0.5403
 9220SOL     OW28237   7.268   5.090   9.340 -0.2150  0.1713  0.1916
 9220SOL    HW128238   7.278   5.073   9.433 -0.6581 -0.4505  0.1321
 9220SOL    HW228239   7.310   5.015   9.297  0.2937  0.6275 -0.1111
 9221SOL     OW28240   6.689   1.045   3.992  0.1584  0.3313  0.1457
 9221SOL    HW128241   6.727   0.989   4.059  1.7379 -1.5008 -2.1539
 9221SOL    HW228242   6.594   1.030   3.999  0.4318 -1.2479  0.7065
 9222SOL     OW28243   3.893   0.411   5.775  0.2276 -0.4281  0.2592
 9222SOL    HW128244   3.847   0.399   5.858  0.4405  0.0720  0.4570
 9222SOL    HW228245   3.829   0.390   5.708 -0.0554 -0.4874  0.5489
 9223SOL     OW28246   7.313   0.255   8.347  0.2743 -0.2484  0.1943
 9223SOL    HW128247   7.396   0.287   8.311  0.0615  0.7480  0.5534
 9223SOL    HW228248   7.324   0.263   8.442 -0.1155 -0.4188  0.2543
 9224SOL     OW28249   6.728   6.944   5.196 -0.7127  0.1466 -0.0921
 9224SOL    HW128250   6.822   6.928   5.197 -0.5704  0.9258  0.9688
 9224SOL    HW228251   6.689   6.858   5.181  0.1266 -0.5039  1.2059
 9225SOL     OW28252   1.263   3.000   1.999  0.6829 -0.0560  0.7495
 9225SOL    HW128253   1.327   3.029   1.934  0.8558 -0.5826  0.6832
 9225SOL    HW228254   1.315   2.953   2.064  0.5434  0.6524  1.3922
 9226SOL     OW28255   5.037   9.406   8.988 -0.3755  0.2171  0.5666
 9226SOL    HW128256   5.132   9.414   8.982 -0.3450 -0.2452  0.3257
 9226SOL    HW228257   5.009   9.394   8.898 -0.6245  0.0013  0.6716
 9227SOL     OW28258   8.169   5.195   5.790  0.3623 -0.0488  0.2878
 9227SOL    HW128259   8.166   5.286   5.822 -0.6383  0.2215 -0.5221
 9227SOL    HW228260   8.133   5.143   5.862 -1.1196  0.4608 -0.0474
 9228SOL     OW28261   0.382   5.889   8.718 -0.6177  0.5648 -0.5318
 9228SOL    HW128262   0.304   5.944   8.713 -1.3128 -0.4835 -2.2663
 9228SOL    HW228263   0.373   5.828   8.645  0.4097 -1.4645  0.9287
 9229SOL     OW28264   5.971   3.851   1.986  0.0198 -0.3355  0.0112
 9229SOL    HW128265   6.030   3.786   1.947  0.7671 -0.0330  0.6015
 9229SOL    HW228266   5.971   3.830   2.079 -0.0076  0.2993  0.1566
 9230SOL     OW28267   4.289   3.462   2.687 -0.2652 -0.8734  0.2527
 9230SOL    HW128268   4.348   3.424   2.622  0.2326 -1.4486  1.0225
 9230SOL    HW228269   4.257   3.542   2.646 -0.9703 -1.8749 -1.2093
 9231SOL     OW28270   6.581   0.955   1.608  0.6503  0.4757 -0.3219
 9231SOL    HW128271   6.629   0.884   1.650  0.1283 -0.4694 -1.2709
 9231SOL    HW228272   6.568   1.020   1.678  1.2329 -0.3017  0.5339
 9232SOL     OW28273   0.308   6.937   2.126  0.3026 -0.3843  0.0566
 9232SOL    HW128274   0.227   6.989   2.131  0.8457  0.4880 -0.0671
 9232SOL    HW228275   0.305   6.882   2.204 -1.0426 -1.3175 -0.6221
 9233SOL     OW28276   0.696   6.042   8.287 -0.2856 -0.4196  0.1070
 9233SOL    HW128277   0.658   6.075   8.206  0.5734 -0.2707 -0.2490
 9233SOL    HW228278   0.790   6.051   8.274 -0.1000 -1.3993  0.7023
 9234SOL     OW28279   8.822   0.583   2.987 -0.5533 -0.0913 -0.1796
 9234SOL    HW128280   8.800   0.620   3.072  0.6610 -1.5736  0.8559
 9234SOL    HW228281   8.799   0.651   2.923 -0.8862  1.3124  1.3783
 9235SOL     OW28282   5.999   1.800   8.826 -0.1437  0.5163  0.3355
 9235SOL    HW128283   6.057   1.763   8.760 -0.0411 -1.9583  1.6974
 9235SOL    HW228284   5.916   1.813   8.780  0.0490 -0.7293 -0.4082
 9236SOL     OW28285   9.375   5.981   8.153  0.6356  0.2389  0.3279
 9236SOL    HW128286   9.326   6.056   8.188 -2.3817 -1.2220 -0.4805
 9236SOL    HW228287   9.372   5.993   8.058  0.0045 -0.9471  0.1855
 9237SOL     OW28288   4.566   8.298   0.860  0.9702  0.2036 -0.0862
 9237SOL    HW128289   4.505   8.311   0.788  0.5599  0.0628  0.2361
 9237SOL    HW228290   4.652   8.300   0.819  0.6708 -3.0456 -1.1094
 9238SOL     OW28291   9.242   1.262   4.382  0.0833 -0.1653  0.5121
 9238SOL    HW128292   9.251   1.168   4.397  0.6986 -0.7456 -2.7820
 9238SOL    HW228293   9.331   1.297   4.390 -0.1574  0.1947  1.8235
 9239SOL     OW28294   0.757   2.020   4.669 -0.4250  0.0559  0.1596
 9239SOL    HW128295   0.678   1.981   4.707 -0.0643  0.2843  1.1648
 9239SOL    HW228296   0.829   1.987   4.722 -0.0141  1.2314  0.3764
 9240SOL     OW28297   0.506   5.753   5.877  0.5153  0.6343  0.5782
 9240SOL    HW128298   0.473   5.695   5.946 -0.3177  1.1204  0.6010
 9240SOL    HW228299   0.491   5.841   5.911 -0.5364  0.8887 -0.5169
 9241SOL     OW28300   8.969   3.617   4.054  0.0232 -0.5295 -0.2277
 9241SOL    HW128301   9.048   3.596   4.103 -0.4300 -1.1725  0.2520
 9241SOL    HW228302   8.959   3.712   4.064 -0.4456 -0.7283  1.5788
 9242SOL     OW28303   5.490   4.107   1.925 -0.2892 -0.1750 -0.0744
 9242SOL    HW128304   5.522   4.017   1.917 -0.2614 -0.1959  0.2373
 9242SOL    HW228305   5.565   4.162   1.898  0.1311 -0.2156  0.9637
 9243SOL     OW28306   1.855   6.492   8.896  0.1941 -0.1078  0.0264
 9243SOL    HW128307   1.935   6.476   8.846  0.7928 -0.7711  1.1512
 9243SOL    HW228308   1.828   6.406   8.927 -0.3928  0.2342  0.4959
 9244SOL     OW28309   8.756   3.381   1.447 -0.0846  0.9138 -0.1843
 9244SOL    HW128310   8.813   3.337   1.384 -1.6735  0.3850 -1.3401
 9244SOL    HW228311   8.797   3.466   1.462  1.2386  0.3646 -0.5918
 9245SOL     OW28312   8.334   5.571   6.638  0.1771  0.2056  0.0198
 9245SOL    HW128313   8.362   5.662   6.648 -0.4927  0.3638  0.4850
 9245SOL    HW228314   8.309   5.543   6.726 -0.4309 -0.1601 -0.2626
 9246SOL     OW28315   6.436   8.728   6.009 -0.2085 -0.1904  0.2635
 9246SOL    HW128316   6.455   8.679   6.089 -0.7800 -0.3896  0.2859
 9246SOL    HW228317   6.340   8.734   6.007 -0.2627 -1.0074 -0.8945
 9247SOL     OW28318   7.222   9.452   5.475  0.3139  0.1652 -0.2674
 9247SOL    HW128319   7.181   9.522   5.526  0.4540 -0.1048  0.2161
 9247SOL    HW228320   7.311   9.483   5.458 -0.0194  0.6837 -1.1871
 9248SOL     OW28321   2.665   1.058   7.010  0.5358  0.6932 -0.2115
 9248SOL    HW128322   2.596   1.025   6.951  0.1445  0.4256  0.3903
 9248SOL    HW228323   2.693   0.981   7.059 -0.1079  1.1715  0.9344
 9249SOL     OW28324   2.209   7.763   7.629  0.7694  0.1812  0.6118
 9249SOL    HW128325   2.191   7.707   7.705  0.6981  0.0109  0.4722
 9249SOL    HW228326   2.290   7.727   7.591 -0.9498 -1.9563 -1.3910
 9250SOL     OW28327   5.609   7.723   5.945 -0.0103 -0.2340 -0.0290
 9250SOL    HW128328   5.545   7.652   5.946  1.2978 -1.4709 -0.7750
 9250SOL    HW228329   5.587   7.774   5.867  0.5605 -1.3180 -0.9339
 9251SOL     OW28330   0.854   1.119   2.385  0.4491  0.0784 -0.7607
 9251SOL    HW128331   0.774   1.103   2.336  0.7551  0.8922 -1.5757
 9251SOL    HW228332   0.875   1.036   2.427 -1.8585  0.3531  1.0779
 9252SOL     OW28333   1.909   5.392   4.493  0.6706  0.4800  0.2229
 9252SOL    HW128334   1.955   5.460   4.444  1.5371 -0.2585 -0.0187
 9252SOL    HW228335   1.933   5.311   4.449  0.6782 -0.1060  1.2805
 9253SOL     OW28336   4.824   6.925   5.616 -0.2749  0.6893  0.3597
 9253SOL    HW128337   4.799   6.881   5.535  1.6745  0.8434 -0.3867
 9253SOL    HW228338   4.918   6.939   5.607  0.1670 -0.0319  3.0312
 9254SOL     OW28339   4.131   5.578   1.186  0.5567 -0.9999 -0.0383
 9254SOL    HW128340   4.223   5.605   1.192  0.1553  1.6915 -3.2078
 9254SOL    HW228341   4.130   5.509   1.120  0.3811 -1.7791  0.7612
 9255SOL     OW28342   9.658   5.565   1.209 -0.0707 -0.2632 -0.5884
 9255SOL    HW128343   9.677   5.507   1.135  1.6435  1.1248 -1.3139
 9255SOL    HW228344   9.622   5.507   1.276 -1.1019 -1.6752 -2.2677
 9256SOL     OW28345   0.048   2.348   7.436 -0.6156  0.0130  0.0364
 9256SOL    HW128346   0.019   2.429   7.478  0.4091  0.0784  0.6623
 9256SOL    HW228347   0.057   2.370   7.343 -0.2260  0.6564  0.2248
 9257SOL     OW28348   5.132   1.484   8.861 -0.2219  0.2534  0.2415
 9257SOL    HW128349   5.150   1.534   8.941 -1.0379 -0.9993  1.2291
 9257SOL    HW228350   5.058   1.429   8.882 -0.4259 -0.1590 -1.3820
 9258SOL     OW28351   1.128   9.870   8.379  0.3218 -0.0467  0.8648
 9258SOL    HW128352   1.199   9.855   8.442  0.2177 -0.4781  0.8878
 9258SOL    HW228353   1.094   9.957   8.401  0.2150 -0.2389  1.4831
 9259SOL     OW28354   1.888   8.683   6.122  0.3716  0.5253 -0.3384
 9259SOL    HW128355   1.902   8.614   6.188 -0.3701 -0.5417 -1.2486
 9259SOL    HW228356   1.838   8.750   6.168  0.2109 -0.0170  0.3030
 9260SOL     OW28357   5.819   6.145   9.892  0.1201 -0.4887  0.1611
 9260SOL    HW128358   5.840   6.237   9.908  1.1793 -1.0670  2.5215
 9260SOL    HW228359   5.728   6.146   9.860  0.5031  1.4223 -0.9900
 9261SOL     OW28360   8.530   4.522   0.499  0.6174 -0.3417  0.4596
 9261SOL    HW128361   8.569   4.605   0.474  0.4014 -0.9826 -2.3439
 9261SOL    HW228362   8.600   4.458   0.488 -0.3507 -1.1083 -1.9697
 9262SOL     OW28363   5.204   1.640   2.722  0.2078 -0.2687  0.3289
 9262SOL    HW128364   5.191   1.547   2.740 -1.4662 -0.3790 -1.1118
 9262SOL    HW228365   5.183   1.649   2.629 -0.7484  1.7318  0.6873
 9263SOL     OW28366   8.339   0.367   5.053  0.2580 -0.1546  0.6370
 9263SOL    HW128367   8.378   0.359   5.140  1.7688  4.3866  0.5999
 9263SOL    HW228368   8.408   0.340   4.993  0.8610  1.0180  0.7804
 9264SOL     OW28369   0.054   6.067   6.478 -0.5561  0.3700 -0.0169
 9264SOL    HW128370   0.069   6.026   6.392 -1.9537  2.1143 -1.1715
 9264SOL    HW228371  -0.007   6.138   6.460  0.8963  2.2762  2.0523
 9265SOL     OW28372   4.119   0.885   0.936  0.0206  0.0072  0.0836
 9265SOL    HW128373   4.127   0.791   0.953 -0.8023 -0.0855  0.0047
 9265SOL    HW228374   4.198   0.923   0.973  0.0333 -0.6331  0.7372
 9266SOL     OW28375   8.432   8.413   5.722 -0.3277  0.2804 -0.5396
 9266SOL    HW128376   8.420   8.326   5.759 -0.1837  0.4499 -0.0840
 9266SOL    HW228377   8.395   8.407   5.634 -0.2381 -0.2619 -0.5418
 9267SOL     OW28378   9.111   1.265   6.086  0.1077  0.6223  0.1979
 9267SOL    HW128379   9.169   1.304   6.020 -0.4370  0.4904 -0.3677
 9267SOL    HW228380   9.024   1.302   6.066 -0.7204 -1.8801 -1.2140
 9268SOL     OW28381   9.515   9.084   3.515  0.2055  0.5689  0.0811
 9268SOL    HW128382   9.525   9.052   3.604  1.1755 -3.1474 -1.1958
 9268SOL    HW228383   9.431   9.049   3.486  0.9438 -0.2779 -1.1412
 9269SOL     OW28384   1.993   4.706   2.140 -0.2545 -0.1360 -0.8831
 9269SOL    HW128385   1.913   4.730   2.094  0.2942  0.4829 -1.5403
 9269SOL    HW228386   2.046   4.662   2.073 -0.4886 -1.5447 -0.1693
 9270SOL     OW28387   7.920   7.328   4.578 -0.4363  0.2400  0.0820
 9270SOL    HW128388   7.859   7.399   4.557 -2.5007 -1.1218  1.0847
 9270SOL    HW228389   7.914   7.319   4.673  1.1341 -0.1649  0.1692
 9271SOL     OW28390   6.461   7.831   0.314  0.1489  0.0061  0.1895
 9271SOL    HW128391   6.500   7.765   0.371 -0.3984  1.0623  1.8821
 9271SOL    HW228392   6.375   7.848   0.352 -0.7492 -0.0818 -1.6827
 9272SOL     OW28393   7.956   5.014   4.058 -0.2175  0.3557 -0.4763
 9272SOL    HW128394   8.041   4.986   4.026 -0.3166  0.6558 -1.0014
 9272SOL    HW228395   7.960   4.999   4.153  1.3921  2.8724 -0.0837
 9273SOL     OW28396   6.945   4.348   7.050  0.1944 -0.1581  0.2706
 9273SOL    HW128397   7.028   4.324   7.091 -0.2298 -0.8483  0.7496
 9273SOL    HW228398   6.899   4.398   7.118  0.6426  1.1774 -0.3624
 9274SOL     OW28399   0.067   8.852   5.345 -0.2021  0.3293 -0.0045
 9274SOL    HW128400   0.030   8.939   5.358 -1.9574 -0.4622  0.6521
 9274SOL    HW228401  -0.007   8.793   5.356  0.5066 -1.1457 -2.5481
 9275SOL     OW28402   6.361   8.909   4.724 -0.5566  0.2433 -0.2110
 9275SOL    HW128403   6.315   8.862   4.655  0.0182  0.8851 -1.0568
 9275SOL    HW228404   6.305   8.901   4.801 -1.3722 -0.1914 -0.8421
 9276SOL     OW28405   4.897   0.567   7.073  0.5586 -0.9958  0.3928
 9276SOL    HW128406   4.969   0.537   7.128 -0.8817 -2.2400  1.6742
 9276SOL    HW228407   4.938   0.587   6.989  2.4566 -1.2423  1.2108
 9277SOL     OW28408   7.829   9.922   0.960  0.0460 -0.0448 -0.2673
 9277SOL    HW128409   7.749   9.967   0.933 -0.2895 -1.4519 -1.7295
 9277SOL    HW228410   7.874   9.986   1.015 -0.8175  1.7510 -1.5375
 9278SOL     OW28411   6.065   3.673   5.103  0.0193 -0.0102  0.2642
 9278SOL    HW128412   6.160   3.667   5.109  0.2379  1.3237 -1.1799
 9278SOL    HW228413   6.035   3.662   5.193  1.6294  0.6190  0.9255
 9279SOL     OW28414   7.730   1.064   6.732 -0.1110 -0.0131  0.1095
 9279SOL    HW128415   7.636   1.064   6.752 -0.5480 -2.0743 -1.5785
 9279SOL    HW228416   7.770   1.017   6.804 -0.9144 -2.3797 -0.8974
 9280SOL     OW28417   8.679   1.667   8.456 -0.3367 -0.1364  0.1904
 9280SOL    HW128418   8.589   1.698   8.462 -1.1529 -2.5987  2.7365
 9280SOL    HW228419   8.676   1.597   8.390 -0.8739 -1.7200  1.8179
 9281SOL     OW28420   8.982   9.281   9.782  0.1668 -0.0703  0.1085
 9281SOL    HW128421   8.983   9.277   9.687  1.1462 -0.1053  0.1124
 9281SOL    HW228422   8.976   9.375   9.802  0.9640  0.0083  0.0041
 9282SOL     OW28423   2.351   7.913   2.220  0.2197  0.2742  0.0015
 9282SOL    HW128424   2.360   7.857   2.142  0.0026 -1.3286  1.0719
 9282SOL    HW228425   2.270   7.883   2.261 -0.6439  2.3332 -0.0774
 9283SOL     OW28426   4.579   1.572   7.648 -0.0548 -0.3261  0.2773
 9283SOL    HW128427   4.537   1.547   7.566  0.6797 -1.4001  0.2151
 9283SOL    HW228428   4.526   1.646   7.680 -0.4786 -0.0339 -1.0329
 9284SOL     OW28429   6.220   7.436   4.537  0.1906 -0.3210 -0.2383
 9284SOL    HW128430   6.236   7.396   4.622 -1.0211 -0.5290 -0.0947
 9284SOL    HW228431   6.221   7.363   4.475  0.9422 -0.1853 -0.4027
 9285SOL     OW28432   6.630   9.887   4.594  0.1654 -0.1808 -0.0399
 9285SOL    HW128433   6.590   9.812   4.638 -2.4396  0.9041 -0.3435
 9285SOL    HW228434   6.677   9.934   4.663  0.1143 -1.0205  0.5754
 9286SOL     OW28435   7.914   4.266   3.620 -0.0759 -0.0874  0.2212
 9286SOL    HW128436   7.939   4.355   3.596 -0.3549 -0.6343 -2.4278
 9286SOL    HW228437   7.991   4.213   3.597 -0.0660 -0.5866  1.3638
 9287SOL     OW28438   0.644   6.642   4.534 -0.5006 -0.3000  0.6243
 9287SOL    HW128439   0.596   6.575   4.582 -1.4146  0.8340  1.3566
 9287SOL    HW228440   0.722   6.659   4.587  0.9657 -2.3576 -0.7173
 9288SOL     OW28441   7.580   0.998   1.745  0.1372  0.2450  0.2348
 9288SOL    HW128442   7.516   1.036   1.686  0.9396 -0.7420 -1.3577
 9288SOL    HW228443   7.656   1.056   1.740 -0.6125  1.4997  2.2363
 9289SOL     OW28444   4.176   5.595   2.896  0.0465 -0.0688  0.6450
 9289SOL    HW128445   4.245   5.584   2.961  0.8530  0.1456 -0.1496
 9289SOL    HW228446   4.222   5.626   2.817 -0.5432 -2.4968 -0.7557
 9290SOL     OW28447   6.325   0.150   9.092  0.0221  0.1065  0.7048
 9290SOL    HW128448   6.367   0.064   9.095 -1.0325 -0.4403  0.4662
 9290SOL    HW228449   6.382   0.207   9.144  1.6414 -0.3223 -0.5199
 9291SOL     OW28450   5.957   9.367   2.533 -0.0167 -0.2398 -0.0617
 9291SOL    HW128451   6.006   9.326   2.462 -0.1111 -1.1272  0.3600
 9291SOL    HW228452   5.937   9.294   2.592 -0.6301  0.3470  0.4668
 9292SOL     OW28453   0.595   9.326   8.834 -0.2499 -0.2338  0.0155
 9292SOL    HW128454   0.597   9.295   8.925 -0.4427 -1.1798 -0.2861
 9292SOL    HW228455   0.513   9.291   8.799 -0.6320  0.9105 -0.2601
 9293SOL     OW28456   6.387   0.819   1.868 -0.0870  0.0306 -0.2593
 9293SOL    HW128457   6.304   0.772   1.871 -0.2367  0.3290  0.5035
 9293SOL    HW228458   6.385   0.876   1.945  0.6937  0.2628 -0.4018
 9294SOL     OW28459   2.581   7.065   6.096  0.0843  0.4858 -0.7397
 9294SOL    HW128460   2.554   7.010   6.169 -1.0966  1.7044 -0.2088
 9294SOL    HW228461   2.566   7.011   6.019  0.1289 -0.3647 -0.1668
 9295SOL     OW28462   0.975   0.426   5.493 -0.4715  0.0377 -0.9236
 9295SOL    HW128463   0.966   0.349   5.437 -0.7649 -1.5950  1.2332
 9295SOL    HW228464   0.886   0.449   5.519 -0.2763  0.0040 -0.1847
 9296SOL     OW28465   9.474   3.076   6.182 -0.5904  0.0755  0.4416
 9296SOL    HW128466   9.541   3.083   6.114  0.3371 -1.4453  1.1348
 9296SOL    HW228467   9.523   3.084   6.264 -1.2578 -0.9693  0.9590
 9297SOL     OW28468   3.067   1.230   0.879  0.0410  0.0829 -0.1547
 9297SOL    HW128469   3.117   1.159   0.920 -1.9078 -2.3280 -1.6259
 9297SOL    HW228470   3.027   1.189   0.802 -2.5993  2.3599 -0.1362
 9298SOL     OW28471   8.235   2.239   4.877  0.3695  0.0691  0.3532
 9298SOL    HW128472   8.278   2.223   4.793  3.1446 -0.0656  1.6748
 9298SOL    HW228473   8.286   2.311   4.916 -0.6944 -0.0168  1.9937
 9299SOL     OW28474   2.961   6.608   9.502 -0.6369  0.0937  0.4442
 9299SOL    HW128475   2.888   6.582   9.558  0.0899 -0.3202  1.2150
 9299SOL    HW228476   3.005   6.527   9.480 -1.1275  0.1995 -1.0874
 9300SOL     OW28477   4.506   3.687   4.571 -0.5090  0.0065 -0.1856
 9300SOL    HW128478   4.582   3.672   4.514 -0.9333 -1.1108 -0.5018
 9300SOL    HW228479   4.537   3.748   4.638  0.2553  0.6543 -1.1074
 9301SOL     OW28480   3.926   1.897   4.447 -0.3965  0.2307 -0.3349
 9301SOL    HW128481   3.860   1.832   4.471  1.0200 -1.7830 -1.5726
 9301SOL    HW228482   3.984   1.851   4.386  1.1395  2.4501 -0.6711
 9302SOL     OW28483   5.376   4.476   5.518  0.0573  0.4268 -0.6106
 9302SOL    HW128484   5.354   4.511   5.604  0.4996 -0.1576 -0.2530
 9302SOL    HW228485   5.459   4.519   5.496  0.1068  0.3335 -0.6056
 9303SOL     OW28486   6.926   0.215   2.382  0.0888 -0.6254  0.1074
 9303SOL    HW128487   6.936   0.221   2.477  0.0738 -0.3387  0.0927
 9303SOL    HW228488   6.855   0.277   2.361 -0.2150 -1.0156 -0.0396
 9304SOL     OW28489   9.692   4.196   4.543 -0.4069  0.4236 -0.3402
 9304SOL    HW128490   9.698   4.188   4.639 -0.0252 -0.0751 -0.3997
 9304SOL    HW228491   9.606   4.159   4.522 -0.5263  0.6101 -0.1842
 9305SOL     OW28492   1.101   1.012   2.735 -0.2157 -0.6156 -0.6677
 9305SOL    HW128493   1.037   1.017   2.805 -0.2337  1.3029 -0.7640
 9305SOL    HW228494   1.134   1.102   2.726  1.1627 -1.1975 -1.8325
 9306SOL     OW28495   5.832   4.365   1.388 -0.5291  0.5069  0.2470
 9306SOL    HW128496   5.771   4.402   1.323 -2.1802 -1.7904  0.3630
 9306SOL    HW228497   5.798   4.277   1.406  2.1537 -0.4274  1.3003
 9307SOL     OW28498   5.665   3.285   5.307 -0.0156  0.0228  0.2518
 9307SOL    HW128499   5.759   3.275   5.293 -0.2692 -1.3807 -0.6521
 9307SOL    HW228500   5.650   3.380   5.309  1.3445  0.2566 -0.0687
 9308SOL     OW28501   9.689   3.304   9.545 -0.1756  0.5773 -0.4764
 9308SOL    HW128502   9.745   3.379   9.565  0.1352  0.1389  0.3300
 9308SOL    HW228503   9.700   3.291   9.451  2.6153 -0.6873 -0.0691
 9309SOL     OW28504   7.677   3.457   2.802  0.6390  0.6176  0.2012
 9309SOL    HW128505   7.755   3.408   2.776  0.2932 -0.5810  1.2664
 9309SOL    HW228506   7.678   3.453   2.898  0.0597  1.8670  0.2716
 9310SOL     OW28507   9.645   8.470   1.621  0.1826 -0.6447  0.0094
 9310SOL    HW128508   9.578   8.454   1.555  0.6348 -0.0315 -0.6187
 9310SOL    HW228509   9.692   8.548   1.589 -1.0112  1.0672  2.1805
 9311SOL     OW28510   7.023   9.022   4.065  0.5275 -0.0611  0.0642
 9311SOL    HW128511   7.062   9.108   4.077  1.5760 -0.5489  0.3174
 9311SOL    HW228512   7.070   8.984   3.991  0.9220 -0.8556  0.6922
 9312SOL     OW28513   9.444   6.605   9.945  0.4446  0.4589 -0.7293
 9312SOL    HW128514   9.384   6.602  10.020  0.4982  0.1551 -0.6966
 9312SOL    HW228515   9.442   6.516   9.910  1.4115  0.2608 -0.3034
 9313SOL     OW28516   1.476   5.161   9.935  0.1843 -0.2362 -0.5636
 9313SOL    HW128517   1.437   5.104  10.002  1.9030 -0.9423 -0.1059
 9313SOL    HW228518   1.424   5.241   9.938 -1.3556 -1.2142 -0.1594
 9314SOL     OW28519   4.241   1.029   2.778  0.1442 -0.4160  0.1071
 9314SOL    HW128520   4.285   1.088   2.717  1.3200  0.1584  1.4553
 9314SOL    HW228521   4.303   0.958   2.792 -0.5382 -1.0780 -0.1332
 9315SOL     OW28522   7.622   6.516   8.664 -0.1385 -0.1097 -0.0174
 9315SOL    HW128523   7.641   6.432   8.706  0.3692 -0.7404 -1.4550
 9315SOL    HW228524   7.595   6.573   8.736 -0.0298 -1.3621  1.0505
 9316SOL     OW28525   0.457   3.395   2.829 -0.1427  0.0661  0.1636
 9316SOL    HW128526   0.495   3.319   2.874  0.8159 -0.5110 -1.5447
 9316SOL    HW228527   0.399   3.358   2.763 -0.6319  0.8746  0.1200
 9317SOL     OW28528   2.368   5.841   8.127  0.3200  0.1204  0.3810
 9317SOL    HW128529   2.295   5.793   8.090  1.2596 -0.5096 -0.7242
 9317SOL    HW228530   2.370   5.815   8.219 -0.2381 -0.6163  0.1934
 9318SOL     OW28531   1.768   0.400   2.864 -0.1360  0.1921  0.1742
 9318SOL    HW128532   1.684   0.434   2.833 -0.1178  1.3769  1.3175
 9318SOL    HW228533   1.798   0.342   2.795 -0.5390  1.9780 -1.5941
 9319SOL     OW28534   8.084   9.120   4.595  0.3023 -0.0181 -0.4000
 9319SOL    HW128535   8.079   9.187   4.527  1.3326  0.3264 -0.1584
 9319SOL    HW228536   8.051   9.162   4.674 -0.7378 -0.3671 -0.6319
 9320SOL     OW28537   7.698   3.051   4.887  0.2449  0.1686  0.2702
 9320SOL    HW128538   7.638   3.125   4.898  1.2138  1.0750 -0.2798
 9320SOL    HW228539   7.780   3.092   4.858  1.1079 -1.0317  0.9368
 9321SOL     OW28540   4.358   8.206   3.900 -0.0417  0.2099 -0.0926
 9321SOL    HW128541   4.321   8.194   3.812  1.4225 -2.0703 -0.4773
 9321SOL    HW228542   4.298   8.158   3.957 -0.4000  0.7677  0.0004
 9322SOL     OW28543   4.219   6.079   8.896 -0.0641  1.0296 -0.2106
 9322SOL    HW128544   4.135   6.032   8.900  0.5737 -0.1736 -0.4090
 9322SOL    HW228545   4.257   6.065   8.983  1.1629 -0.8767 -0.9772
 9323SOL     OW28546   4.628   9.682   9.768 -0.1944  0.7268  0.0785
 9323SOL    HW128547   4.684   9.759   9.770  0.9642 -0.0794  0.0657
 9323SOL    HW228548   4.612   9.666   9.675  1.7578 -0.5161 -0.1185
 9324SOL     OW28549   6.674   1.058   8.543  0.1384 -0.3042  1.3330
 9324SOL    HW128550   6.692   1.087   8.632  0.8627 -1.4650  1.5760
 9324SOL    HW228551   6.589   1.014   8.548 -0.8601  1.4527  1.0043
 9325SOL     OW28552   2.251   4.161   7.196  0.2376 -0.0995  0.9910
 9325SOL    HW128553   2.188   4.100   7.157 -0.3644 -0.8866  3.0644
 9325SOL    HW228554   2.211   4.247   7.183  0.9598 -0.0932 -1.7070
 9326SOL     OW28555   9.903   0.791   9.364 -0.6926  0.2640 -0.3867
 9326SOL    HW128556   9.968   0.850   9.401 -0.6042  0.3313 -0.6447
 9326SOL    HW228557   9.843   0.849   9.317 -0.5393  0.1363 -0.7373
 9327SOL     OW28558   9.957   9.212   1.883 -0.0338 -0.2329 -0.1102
 9327SOL    HW128559   9.927   9.122   1.869 -0.5497  0.0907 -1.2063
 9327SOL    HW228560   9.927   9.259   1.805  1.9272  0.4646 -0.4973
 9328SOL     OW28561   4.656   1.792   8.102  0.0297  0.3978 -0.2095
 9328SOL    HW128562   4.710   1.715   8.081  0.3428  0.3144  0.8484
 9328SOL    HW228563   4.678   1.856   8.034  0.7459  0.0142 -0.3477
 9329SOL     OW28564   5.399   4.693   2.130  1.3872  0.1121  0.2832
 9329SOL    HW128565   5.364   4.656   2.210  0.0407  1.1463  0.1962
 9329SOL    HW228566   5.493   4.704   2.148  1.5470 -1.7561  0.8725
 9330SOL     OW28567   3.459   7.869   7.357 -0.3966 -0.1409  0.2733
 9330SOL    HW128568   3.528   7.936   7.351  1.1981 -1.8004 -1.5799
 9330SOL    HW228569   3.467   7.835   7.446  1.1226 -0.1948  0.1473
 9331SOL     OW28570   7.960   8.431   2.428  0.2807 -0.5001 -0.0606
 9331SOL    HW128571   7.968   8.338   2.448 -0.2660 -0.4850  0.2313
 9331SOL    HW228572   8.028   8.473   2.481  0.9302 -0.7905 -0.6490
 9332SOL     OW28573   4.813   2.166   6.217 -0.7967 -0.5384  0.3198
 9332SOL    HW128574   4.767   2.208   6.290  0.6083 -0.5188  1.2378
 9332SOL    HW228575   4.807   2.073   6.236 -0.2858 -0.5249  0.5603
 9333SOL     OW28576   7.374   8.569   8.616  0.3714 -0.3328  0.3965
 9333SOL    HW128577   7.345   8.601   8.701 -0.8476  0.3008 -0.2291
 9333SOL    HW228578   7.436   8.499   8.637  0.2854 -0.0260  1.7948
 9334SOL     OW28579   2.986   3.582   5.682  0.4772 -0.2740 -0.0258
 9334SOL    HW128580   2.956   3.493   5.662  1.1090 -0.6083  0.4846
 9334SOL    HW228581   3.081   3.574   5.688  0.6316  0.6437 -0.9697
 9335SOL     OW28582   5.095   2.708   6.479 -0.3072 -0.4857  0.6309
 9335SOL    HW128583   5.061   2.668   6.559 -1.0560 -0.4304  0.3468
 9335SOL    HW228584   5.070   2.800   6.486 -0.3124 -0.4658  0.3643
 9336SOL     OW28585   3.257   1.297   5.165 -0.1321  0.1563  0.3793
 9336SOL    HW128586   3.272   1.253   5.082  0.7174 -0.1858  0.7044
 9336SOL    HW228587   3.163   1.287   5.181 -0.0618 -0.9607  0.1244
 9337SOL     OW28588   7.655   2.552   1.045 -0.2649  0.6226 -1.0733
 9337SOL    HW128589   7.601   2.630   1.027 -2.1351 -0.6099 -1.0309
 9337SOL    HW228590   7.596   2.478   1.032  0.7038 -0.7179  1.5633
 9338SOL     OW28591   8.440   9.661   8.406  0.2655  0.0798 -0.4642
 9338SOL    HW128592   8.449   9.651   8.500 -0.6352  0.7712 -0.2870
 9338SOL    HW228593   8.502   9.731   8.383 -0.3928  0.7673 -0.1824
 9339SOL     OW28594   8.110   2.983   8.320 -0.6399 -0.0383 -0.3738
 9339SOL    HW128595   8.118   2.923   8.246  1.1338  0.6855 -0.8117
 9339SOL    HW228596   8.092   3.068   8.281 -0.8393  0.1353  0.0882
 9340SOL     OW28597   1.326   6.363   7.868  0.2781  0.3936 -0.4979
 9340SOL    HW128598   1.414   6.328   7.881  0.1143  0.1457 -0.0229
 9340SOL    HW228599   1.303   6.337   7.778  0.0762 -0.9346 -0.0858
 9341SOL     OW28600   7.154   9.294   3.716 -0.1685 -0.4362  0.1035
 9341SOL    HW128601   7.143   9.312   3.810  1.0212 -0.2401  0.2230
 9341SOL    HW228602   7.089   9.350   3.674 -0.3242 -0.0885  0.7810
 9342SOL     OW28603   2.524   7.329   6.111  1.2580 -0.2747 -0.5974
 9342SOL    HW128604   2.533   7.234   6.115 -1.2212 -0.5257  1.2934
 9342SOL    HW228605   2.434   7.343   6.082  1.5432  1.5138 -0.7303
 9343SOL     OW28606   2.090   8.897   6.025 -0.2014 -0.3804 -0.8363
 9343SOL    HW128607   2.157   8.843   5.983  0.4393 -0.6884  0.5318
 9343SOL    HW228608   2.031   8.834   6.066  0.2470 -0.0865  0.3093
 9344SOL     OW28609   9.745   7.414   5.416 -0.2906  0.1970  0.1606
 9344SOL    HW128610   9.744   7.494   5.364  0.2020  0.3235  0.3367
 9344SOL    HW228611   9.793   7.351   5.362  0.7875  0.5159  0.7117
 9345SOL     OW28612   1.454   8.920   1.220 -0.4639  0.1984 -0.1477
 9345SOL    HW128613   1.435   8.836   1.262 -0.3703  1.4521  2.5956
 9345SOL    HW228614   1.367   8.954   1.196 -0.4900 -0.7080 -1.4611
 9346SOL     OW28615   9.112   7.461   7.988  0.5708 -0.3212  0.4079
 9346SOL    HW128616   9.196   7.439   8.029  0.0332 -0.5567  1.4067
 9346SOL    HW228617   9.063   7.507   8.056  0.3419  0.9291 -0.5428
 9347SOL     OW28618   5.843   4.925   1.169 -0.3689  0.1958 -0.0245
 9347SOL    HW128619   5.880   4.854   1.221 -1.4423 -0.0911  0.3689
 9347SOL    HW228620   5.895   5.002   1.193 -0.0435 -0.1894  0.5266
 9348SOL     OW28621   8.546   8.011   6.906  0.3606 -0.6973  0.1842
 9348SOL    HW128622   8.618   8.034   6.848  0.1377  1.3860  0.6444
 9348SOL    HW228623   8.587   7.960   6.976  0.9441 -1.6099 -0.7898
 9349SOL     OW28624   4.168   4.321   7.644 -0.4855  0.0778 -0.1799
 9349SOL    HW128625   4.247   4.350   7.689 -0.0485 -1.4205  0.0612
 9349SOL    HW228626   4.120   4.270   7.709 -0.5003 -0.9865 -1.0015
 9350SOL     OW28627   8.232   7.362   1.135 -0.0206 -0.1386  1.1849
 9350SOL    HW128628   8.214   7.287   1.191 -0.6105 -1.0532 -0.1779
 9350SOL    HW228629   8.215   7.438   1.191 -0.9842 -1.0017  2.1149
 9351SOL     OW28630   4.405   7.971   2.247  0.3400  0.0844 -0.2269
 9351SOL    HW128631   4.319   7.930   2.240 -0.0025  0.3783  1.6073
 9351SOL    HW228632   4.463   7.901   2.279  0.5875  0.1055 -0.6246
 9352SOL     OW28633   9.903   0.141   4.241  0.0525 -0.4289  0.6846
 9352SOL    HW128634   9.834   0.172   4.182  0.7167  0.4079  0.3077
 9352SOL    HW228635   9.933   0.059   4.202 -0.8632 -0.9101  0.9727
 9353SOL     OW28636   3.346   1.494   5.821 -0.1788  0.1624  0.2318
 9353SOL    HW128637   3.287   1.562   5.788 -0.6836 -0.0138  0.7475
 9353SOL    HW228638   3.289   1.420   5.841  0.3905 -0.4858 -0.4898
 9354SOL     OW28639   3.111   2.907   4.446  0.0514  0.1158  0.6714
 9354SOL    HW128640   3.025   2.905   4.487 -0.1036 -1.4189  0.3220
 9354SOL    HW228641   3.173   2.915   4.519 -0.3455  0.4253  0.9782
 9355SOL     OW28642   7.519   3.147   3.051  0.0199  0.3974 -0.1106
 9355SOL    HW128643   7.494   3.110   3.136 -0.6099  1.7549  0.3346
 9355SOL    HW228644   7.464   3.226   3.043 -0.0476  0.2040 -1.8583
 9356SOL     OW28645   2.989   4.510   4.371  0.5660  0.3612 -0.4588
 9356SOL    HW128646   2.975   4.462   4.452 -0.9371  0.9306 -0.3499
 9356SOL    HW228647   3.045   4.583   4.396  0.5364  0.2460 -0.0405
 9357SOL     OW28648   3.025   2.617   2.934  0.1410  0.1648  0.1140
 9357SOL    HW128649   3.072   2.555   2.879  1.1455  0.2507  0.8513
 9357SOL    HW228650   3.076   2.622   3.015 -0.9187  0.5656  0.7936
 9358SOL     OW28651   6.830   6.207   7.598 -0.1612 -0.3508  0.0054
 9358SOL    HW128652   6.763   6.148   7.631  0.0533 -0.6271 -0.0538
 9358SOL    HW228653   6.879   6.155   7.534  1.2391 -0.7271  1.3196
 9359SOL     OW28654   0.173   3.548   4.369 -0.0007  0.0559  0.1467
 9359SOL    HW128655   0.122   3.626   4.387  1.0096  0.4246  1.6289
 9359SOL    HW228656   0.249   3.579   4.320  1.2085  0.3211  2.0789
 9360SOL     OW28657   8.047   5.010   3.750  0.4115  0.0690  0.1339
 9360SOL    HW128658   7.994   5.084   3.779  0.1834  0.6589 -1.6306
 9360SOL    HW228659   8.111   4.997   3.820 -2.1152 -0.7824  2.4196
 9361SOL     OW28660   0.842   5.159   3.094  0.2868 -0.2784 -0.1593
 9361SOL    HW128661   0.930   5.127   3.114  0.4221  0.4092  0.3867
 9361SOL    HW228662   0.840   5.165   2.998  0.9785  0.0860 -0.1595
 9362SOL     OW28663   7.466   9.320   0.882 -0.1870 -0.0985 -0.3825
 9362SOL    HW128664   7.437   9.230   0.875 -1.2501  0.2971 -1.2406
 9362SOL    HW228665   7.504   9.326   0.970  1.5568 -1.8198 -0.9614
 9363SOL     OW28666   2.856   1.021   7.414 -0.6501  0.0228 -0.0917
 9363SOL    HW128667   2.897   1.041   7.330  2.0855 -0.1875  1.0919
 9363SOL    HW228668   2.767   1.056   7.406 -0.2540  0.6414 -2.7896
 9364SOL     OW28669   1.658   8.740   8.783  0.4116  0.2898  0.3749
 9364SOL    HW128670   1.750   8.737   8.756  0.4929  0.7834  0.5677
 9364SOL    HW228671   1.609   8.749   8.702  0.6591  1.8652  0.3673
 9365SOL     OW28672   1.745   8.688   9.022  0.2745  0.1527 -0.0224
 9365SOL    HW128673   1.807   8.761   9.018 -0.7769  1.0513 -0.5924
 9365SOL    HW228674   1.699   8.692   8.938 -1.0486 -0.0306  0.6825
 9366SOL     OW28675   0.894   9.380   5.302  0.1174 -0.5659 -0.1231
 9366SOL    HW128676   0.944   9.459   5.285 -0.0586 -0.3399  0.3993
 9366SOL    HW228677   0.805   9.402   5.274  0.3196 -1.0157 -1.1926
 9367SOL     OW28678   6.333   5.480   0.110  0.0457 -0.4712 -0.1295
 9367SOL    HW128679   6.366   5.456   0.196 -0.6030 -0.6659  0.0757
 9367SOL    HW228680   6.271   5.551   0.126 -0.7490 -1.1038 -0.3229
 9368SOL     OW28681   5.999   8.303   3.515  0.1203 -0.1273 -0.1975
 9368SOL    HW128682   6.004   8.220   3.467  1.3248 -1.1934  1.6418
 9368SOL    HW228683   5.994   8.277   3.607  3.4419  1.7634  0.6963
 9369SOL     OW28684   2.226   9.724   6.938 -0.4464 -0.3522  0.1072
 9369SOL    HW128685   2.294   9.698   7.001  0.0376 -1.5642 -0.8652
 9369SOL    HW228686   2.235   9.661   6.867 -1.8449  0.1911 -0.5792
 9370SOL     OW28687   3.312   4.287   2.697  0.0961  0.5152 -0.3682
 9370SOL    HW128688   3.238   4.346   2.710  1.7011  2.9725 -1.6433
 9370SOL    HW228689   3.306   4.260   2.605  1.0989  1.2562 -0.6661
 9371SOL     OW28690   6.333   9.948   1.139 -0.2157 -0.0103 -0.2435
 9371SOL    HW128691   6.405  10.011   1.138  0.3660 -0.6354  0.8022
 9371SOL    HW228692   6.294   9.958   1.226  0.7443 -2.0179  0.4636
 9372SOL     OW28693   5.742   6.885   1.057 -0.4314 -0.8787  0.0052
 9372SOL    HW128694   5.730   6.968   1.011  1.2732 -1.5456 -1.7637
 9372SOL    HW228695   5.837   6.874   1.064 -0.6253 -2.3039  0.9584
 9373SOL     OW28696   2.563   0.878   9.789  0.0745  0.0252 -0.3200
 9373SOL    HW128697   2.633   0.934   9.822  1.4652 -0.6756 -1.9081
 9373SOL    HW228698   2.498   0.939   9.754  0.7139  0.6757 -0.3896
 9374SOL     OW28699   9.737   2.012   7.628 -0.4378  0.2000  0.0752
 9374SOL    HW128700   9.656   2.038   7.585  0.8491  3.0772 -0.8871
 9374SOL    HW228701   9.805   2.064   7.584  1.9549 -2.0848  0.8138
 9375SOL     OW28702   3.534   7.244   1.130  0.0686 -0.3158  0.6790
 9375SOL    HW128703   3.629   7.247   1.142  0.2064  0.9571 -0.4125
 9375SOL    HW228704   3.499   7.301   1.198  0.1120 -0.5256  0.8771
 9376SOL     OW28705   8.030   6.177   7.627 -0.0078 -0.1264  0.0502
 9376SOL    HW128706   7.999   6.167   7.537 -0.0660 -0.7155  0.1312
 9376SOL    HW228707   8.023   6.089   7.664 -0.0347  0.1247  0.6464
 9377SOL     OW28708   4.031   1.269   6.959 -0.6453 -0.1538  0.0363
 9377SOL    HW128709   3.979   1.260   6.879  0.1257  0.1718 -0.5095
 9377SOL    HW228710   4.012   1.189   7.009 -1.6425 -0.0464 -0.1649
 9378SOL     OW28711   1.856   8.146   4.155 -0.6750 -0.5295  0.1347
 9378SOL    HW128712   1.867   8.133   4.061 -0.7638 -0.4414  0.1124
 9378SOL    HW228713   1.852   8.057   4.191 -3.0746 -0.6393 -0.2223
 9379SOL     OW28714   8.666   8.313   9.173 -0.1651 -0.5137 -0.1104
 9379SOL    HW128715   8.677   8.329   9.079  1.1620  1.0477  0.2678
 9379SOL    HW228716   8.751   8.336   9.211  0.0992 -3.2734  1.2619
 9380SOL     OW28717   2.452   0.567   1.481  0.0696  0.1615  0.1960
 9380SOL    HW128718   2.421   0.654   1.507 -0.8273  0.5583 -1.9665
 9380SOL    HW228719   2.436   0.563   1.386  1.6642 -1.7274 -0.0646
 9381SOL     OW28720   2.096   6.198   2.291  0.6084  0.1966 -0.3906
 9381SOL    HW128721   2.160   6.264   2.315 -0.7026  1.5075 -0.3683
 9381SOL    HW228722   2.100   6.194   2.195  2.0803 -1.1714 -0.3092
 9382SOL     OW28723   9.170   9.939   6.691 -0.0365 -0.3428 -0.2808
 9382SOL    HW128724   9.251   9.903   6.728  1.3417  2.4837 -0.3472
 9382SOL    HW228725   9.142  10.005   6.754  0.1881  1.7956 -2.3174
 9383SOL     OW28726   9.255   3.602   4.892 -0.3879 -0.8471 -0.3042
 9383SOL    HW128727   9.254   3.685   4.844 -1.0110 -1.1344 -0.8011
 9383SOL    HW228728   9.178   3.606   4.949  0.0342 -0.7463  0.2670
 9384SOL     OW28729   5.663   2.528   6.598  0.2582 -0.4521  0.1930
 9384SOL    HW128730   5.696   2.457   6.654 -0.9709 -2.1990 -1.1563
 9384SOL    HW228731   5.582   2.556   6.639 -0.5626 -1.6247 -0.5719
 9385SOL     OW28732   2.747   8.943   4.007 -0.1159 -0.1262 -0.0395
 9385SOL    HW128733   2.753   8.848   4.006 -0.9055 -0.2049  1.1703
 9385SOL    HW228734   2.664   8.962   4.052 -0.0798  1.1268 -0.4494
 9386SOL     OW28735   4.927   5.539   7.524 -0.2668  0.1542  0.0080
 9386SOL    HW128736   4.938   5.463   7.581 -1.8529 -0.2340 -0.1569
 9386SOL    HW228737   4.850   5.584   7.559  1.7137  2.8114  1.2860
 9387SOL     OW28738   5.166   2.712   4.746 -0.4113 -0.2009 -0.0528
 9387SOL    HW128739   5.193   2.778   4.682 -0.1655 -0.0602  0.1887
 9387SOL    HW228740   5.156   2.762   4.828 -0.3189 -0.4465  0.1086
 9388SOL     OW28741   2.805   2.598   4.619 -0.3908  0.7220  0.2185
 9388SOL    HW128742   2.752   2.674   4.642  0.6626  0.8367  2.5163
 9388SOL    HW228743   2.858   2.581   4.697 -1.4890 -3.1296  0.3603
 9389SOL     OW28744   4.107   2.294   7.659  0.3769  0.0721 -0.4162
 9389SOL    HW128745   4.175   2.345   7.704  0.0342  0.3194 -0.1702
 9389SOL    HW228746   4.035   2.356   7.647 -1.0682 -0.9433  2.1383
 9390SOL     OW28747   5.590   4.632   3.171  0.4392 -0.0423  0.0781
 9390SOL    HW128748   5.652   4.653   3.240 -0.6542  0.4322  0.9469
 9390SOL    HW228749   5.504   4.649   3.209 -0.2284 -0.4024 -1.1829
 9391SOL     OW28750   6.636   1.657   6.856 -0.0805  0.5578 -0.2598
 9391SOL    HW128751   6.704   1.629   6.918  1.8096 -1.6211 -3.0146
 9391SOL    HW228752   6.680   1.723   6.802 -0.7192  0.3243 -1.0674
 9392SOL     OW28753   9.534   4.613   2.791  0.0763  0.0239 -0.5605
 9392SOL    HW128754   9.472   4.675   2.752  0.4131  0.4793 -0.3945
 9392SOL    HW228755   9.495   4.527   2.778 -0.2026  0.2377 -1.1833
 9393SOL     OW28756   3.258   0.990   1.680 -0.7982  0.1966 -0.1173
 9393SOL    HW128757   3.309   1.067   1.708  0.3872 -1.0005  1.1862
 9393SOL    HW228758   3.284   0.976   1.589  1.6994 -0.6780  0.6530
 9394SOL     OW28759   4.535   8.297   7.615  0.8056  0.1618 -0.1669
 9394SOL    HW128760   4.594   8.299   7.691 -0.0406  0.9424  0.4962
 9394SOL    HW228761   4.470   8.230   7.636 -0.7271  1.8835  0.8467
 9395SOL     OW28762   2.814   8.542   4.509 -0.0119 -0.1212  0.1098
 9395SOL    HW128763   2.893   8.492   4.485 -1.3221 -1.4210 -1.7978
 9395SOL    HW228764   2.780   8.496   4.586  0.6256 -0.0806  0.4218
 9396SOL     OW28765   0.788   8.894   1.674  0.6514 -0.6546  0.1336
 9396SOL    HW128766   0.853   8.910   1.743  0.4580 -1.1418  0.4369
 9396SOL    HW228767   0.705   8.893   1.721  0.4678 -0.4695 -0.1904
 9397SOL     OW28768   0.826   3.349   8.737  0.0238  0.5392 -0.4386
 9397SOL    HW128769   0.920   3.358   8.753  0.2120  0.1090 -1.2484
 9397SOL    HW228770   0.809   3.255   8.745 -0.1275  0.4768 -1.3036
 9398SOL     OW28771   6.480   4.653   1.943  0.3765  0.8374 -0.0705
 9398SOL    HW128772   6.569   4.657   1.909  0.4924 -0.9550 -0.0760
 9398SOL    HW228773   6.427   4.693   1.874  1.0727  0.9989 -0.5239
 9399SOL     OW28774   6.961   3.784   9.762 -0.4613 -0.5459  0.5974
 9399SOL    HW128775   7.001   3.837   9.831 -2.2516  0.5468  0.8694
 9399SOL    HW228776   6.867   3.789   9.779 -1.0297  0.2172 -2.1850
 9400SOL     OW28777   5.789   1.903   5.467  0.0185  0.3001  0.4582
 9400SOL    HW128778   5.856   1.963   5.434  0.4701 -1.8342 -2.9912
 9400SOL    HW228779   5.706   1.942   5.441  0.0795  1.0499  1.3208
 9401SOL     OW28780   1.209   3.145   2.669  0.2575  0.0120 -0.5924
 9401SOL    HW128781   1.267   3.099   2.608  0.8024 -2.1540  1.4111
 9401SOL    HW228782   1.172   3.076   2.723 -0.7995  1.7600  1.0335
 9402SOL     OW28783   7.239   9.828   5.772 -0.9742 -0.5311 -0.6552
 9402SOL    HW128784   7.321   9.786   5.749 -1.3853 -1.2754 -0.8035
 9402SOL    HW228785   7.260   9.883   5.848 -0.3792 -0.8256 -0.6031
 9403SOL     OW28786   5.676   7.291   7.886 -0.5444 -0.1362  0.2096
 9403SOL    HW128787   5.589   7.252   7.882 -0.1956 -0.9091 -0.1001
 9403SOL    HW228788   5.732   7.229   7.840  0.1835  0.3137  0.4716
 9404SOL     OW28789   7.619   1.967   0.115  0.3292  0.2325 -1.0157
 9404SOL    HW128790   7.536   1.919   0.119 -0.4432  1.3914 -2.4779
 9404SOL    HW228791   7.685   1.900   0.096 -0.3211 -0.6208 -0.3407
 9405SOL     OW28792   4.894   7.853   7.445  0.0728 -0.2215 -0.1458
 9405SOL    HW128793   4.933   7.915   7.383  0.7709 -1.3449 -0.8594
 9405SOL    HW228794   4.931   7.877   7.530  0.2412  0.4055 -0.3893
 9406SOL     OW28795   5.813   7.716   5.014 -0.0089  0.1558 -0.3919
 9406SOL    HW128796   5.882   7.749   4.956  1.6583 -1.3554  0.6349
 9406SOL    HW228797   5.800   7.625   4.989  0.1057 -0.2684  0.9890
 9407SOL     OW28798   3.406   5.386   5.096  0.1299 -0.2238  0.3935
 9407SOL    HW128799   3.423   5.338   5.177 -1.7951 -1.9297 -0.1091
 9407SOL    HW228800   3.480   5.363   5.039  0.8086 -0.0906  1.1977
 9408SOL     OW28801   4.017   9.851   0.091 -0.5105  0.1435 -0.0787
 9408SOL    HW128802   3.952   9.831   0.024 -0.4352 -0.5435  0.0377
 9408SOL    HW228803   4.083   9.782   0.081  0.3554  0.9998 -0.3831
 9409SOL     OW28804   5.298   0.207   4.851  0.0558  0.1883 -0.7393
 9409SOL    HW128805   5.385   0.179   4.880 -0.2555 -1.8000 -1.5719
 9409SOL    HW228806   5.267   0.264   4.921  0.5784 -1.9736  1.3971
 9410SOL     OW28807   1.135   8.807   6.860  0.2295 -0.7102 -0.2500
 9410SOL    HW128808   1.222   8.767   6.858  1.1326  1.1388 -0.6204
 9410SOL    HW228809   1.101   8.795   6.771  1.2261  0.7425 -0.8805
 9411SOL     OW28810   2.914   9.068   7.974 -0.2294 -0.0045 -0.5063
 9411SOL    HW128811   2.877   9.015   8.044  1.9013  0.1804  0.8591
 9411SOL    HW228812   2.971   9.007   7.926 -0.0206  0.3732 -0.7395
 9412SOL     OW28813   7.727   6.607   9.914  0.3981 -0.2935  0.1577
 9412SOL    HW128814   7.813   6.567   9.926  0.7321  0.3941  0.1148
 9412SOL    HW228815   7.739   6.669   9.841  0.8718  2.5176  2.4325
 9413SOL     OW28816   4.262   3.858   7.616  0.2024  0.2849  0.4776
 9413SOL    HW128817   4.283   3.814   7.699  0.1971  0.4974  0.5913
 9413SOL    HW228818   4.328   3.926   7.608  0.5575 -0.1065  0.0198
 9414SOL     OW28819   9.578   6.086   8.857  1.1086 -0.1166  0.1189
 9414SOL    HW128820   9.619   6.005   8.827  2.7534  0.2683  1.2122
 9414SOL    HW228821   9.591   6.147   8.784  0.6155 -0.5669 -0.3619
 9415SOL     OW28822   9.105   4.849   4.713 -0.4185  0.0899  0.4593
 9415SOL    HW128823   9.094   4.792   4.637 -0.7836  0.0615  0.5296
 9415SOL    HW228824   9.187   4.895   4.698 -0.1560 -0.4100  0.3710
 9416SOL     OW28825   4.142   1.303   8.263 -0.0060  0.4774  0.0742
 9416SOL    HW128826   4.095   1.307   8.346 -0.8259  0.5470 -0.3836
 9416SOL    HW228827   4.151   1.210   8.244  0.9581  0.4351  0.6576
 9417SOL     OW28828   2.777   3.895   5.134  0.6775 -0.0352  0.3652
 9417SOL    HW128829   2.724   3.819   5.159  0.4165 -0.3843 -1.1311
 9417SOL    HW228830   2.795   3.882   5.040  1.6538  1.1399  0.3591
 9418SOL     OW28831   4.342   6.384   5.849 -0.2485  0.2208 -0.0650
 9418SOL    HW128832   4.408   6.315   5.857 -0.2210  0.1099 -1.1070
 9418SOL    HW228833   4.378   6.458   5.899 -0.8267 -0.8796  2.0832
 9419SOL     OW28834   9.498   2.287   5.297  0.2586 -0.3236 -0.5018
 9419SOL    HW128835   9.506   2.365   5.241 -0.5321 -0.9597 -1.5344
 9419SOL    HW228836   9.563   2.301   5.366 -1.4628  2.3899  0.7557
 9420SOL     OW28837   0.511   2.894   7.761 -0.1851  0.2736  0.7111
 9420SOL    HW128838   0.567   2.897   7.683  1.0598 -0.1078  1.5688
 9420SOL    HW228839   0.488   2.802   7.771 -2.6223  0.6303 -0.7280
 9421SOL     OW28840   2.726   1.020   0.807 -0.1227  0.2551 -0.0617
 9421SOL    HW128841   2.821   1.018   0.791 -0.3285  1.3522 -1.5991
 9421SOL    HW228842   2.687   1.029   0.720 -1.4343  4.4107  0.7336
 9422SOL     OW28843   5.280   0.031   0.874 -0.0795  0.0431 -0.4776
 9422SOL    HW128844   5.192   0.016   0.908 -0.1926  1.0454 -0.3106
 9422SOL    HW228845   5.313   0.106   0.924  1.1891 -0.8207  0.0600
 9423SOL     OW28846   7.435   6.637   1.262 -0.0432  0.2130 -0.4299
 9423SOL    HW128847   7.434   6.733   1.265  1.2673  0.2420 -0.1859
 9423SOL    HW228848   7.414   6.616   1.172  1.2042  0.8114 -0.8949
 9424SOL     OW28849   0.481   8.860   1.671  0.4935  0.4298  0.3786
 9424SOL    HW128850   0.393   8.843   1.638 -0.2828  1.3366  1.8431
 9424SOL    HW228851   0.468   8.878   1.765  1.9681  2.4681  0.2659
 9425SOL     OW28852   7.052   9.513   2.572 -0.2404 -0.9681 -0.1181
 9425SOL    HW128853   7.103   9.567   2.512 -2.5245  0.5313 -0.8549
 9425SOL    HW228854   7.043   9.567   2.651 -0.4680 -1.3091  0.0945
 9426SOL     OW28855   0.474   5.298   0.222  0.5037 -0.3294  0.3808
 9426SOL    HW128856   0.480   5.247   0.303  0.5916  0.0214  0.5960
 9426SOL    HW228857   0.562   5.295   0.186  0.8312  0.7162  1.0394
 9427SOL     OW28858   9.528   6.794   0.262  0.3472  0.3707  0.1842
 9427SOL    HW128859   9.513   6.888   0.269 -1.1727  0.4275 -2.3339
 9427SOL    HW228860   9.623   6.785   0.255  0.5227  1.6893  0.5832
 9428SOL     OW28861   3.649   2.969   4.204  0.3369  0.0638 -0.4163
 9428SOL    HW128862   3.659   2.997   4.295  0.9022 -0.4970 -0.2997
 9428SOL    HW228863   3.611   2.882   4.210 -1.2726  0.7080 -0.7729
 9429SOL     OW28864   6.369   7.101   9.873  0.3370 -0.2225 -0.5635
 9429SOL    HW128865   6.403   7.011   9.878  1.0525  0.0986  0.4815
 9429SOL    HW228866   6.359   7.117   9.779  0.1541 -1.4072 -0.7634
 9430SOL     OW28867   8.658   8.006   3.900 -0.5838 -0.3547  0.5334
 9430SOL    HW128868   8.646   8.075   3.834 -1.7896  0.2714  1.3510
 9430SOL    HW228869   8.745   8.022   3.936 -0.6121  0.3933  0.2971
 9431SOL     OW28870   9.218   2.020   3.155 -0.3617 -0.4714  0.5752
 9431SOL    HW128871   9.201   2.114   3.153 -1.2965 -0.6411 -0.3496
 9431SOL    HW228872   9.244   1.998   3.066 -0.8575 -1.1975  0.5942
 9432SOL     OW28873   5.319   4.562   8.238  0.1954  0.0256 -0.5251
 9432SOL    HW128874   5.232   4.579   8.203  0.2280 -0.9192 -1.0949
 9432SOL    HW228875   5.367   4.522   8.165  1.2678  0.9879 -0.3776
 9433SOL     OW28876   1.363   6.770   2.468  0.2206  0.4931 -0.2128
 9433SOL    HW128877   1.306   6.842   2.442  1.2402  1.4983  0.2507
 9433SOL    HW228878   1.445   6.812   2.493  0.7551 -0.8096  0.3263
 9434SOL     OW28879   0.959   4.016   4.679  0.0132  0.4768 -0.2421
 9434SOL    HW128880   0.949   4.060   4.594  0.6039  0.2790 -0.4201
 9434SOL    HW228881   1.053   4.023   4.698  0.2659 -1.3867 -0.6391
 9435SOL     OW28882   2.505   5.302   6.661 -0.2178  0.3498  0.6659
 9435SOL    HW128883   2.527   5.359   6.587  0.7119  0.1659  0.7946
 9435SOL    HW228884   2.413   5.322   6.680 -0.2479  0.9336 -0.0597
 9436SOL     OW28885   1.324   2.302   3.236  0.2831 -0.8669 -0.7409
 9436SOL    HW128886   1.365   2.230   3.188  0.1195 -1.1417 -0.4709
 9436SOL    HW228887   1.366   2.301   3.322 -0.3058 -1.1708 -0.4491
 9437SOL     OW28888   2.517   8.575   4.460 -0.0550 -0.3809 -0.3649
 9437SOL    HW128889   2.613   8.573   4.456 -0.0523 -0.0479 -0.4985
 9437SOL    HW228890   2.497   8.548   4.550  0.1373 -1.0621 -0.5172
 9438SOL     OW28891   0.467   7.526   5.158 -1.0764  0.0653  0.9505
 9438SOL    HW128892   0.553   7.564   5.172 -0.6889  0.9027 -2.7597
 9438SOL    HW228893   0.457   7.462   5.229  1.9749  0.8608  2.2502
 9439SOL     OW28894   3.141   2.776   6.736  0.0561 -0.2118 -0.8973
 9439SOL    HW128895   3.178   2.734   6.814 -0.2640 -1.2656 -1.2981
 9439SOL    HW228896   3.199   2.749   6.665 -0.0754  0.1566 -1.1477
 9440SOL     OW28897   3.346   3.808   9.581 -0.4416 -0.0183  0.2981
 9440SOL    HW128898   3.275   3.871   9.591 -0.7057 -0.3760  0.7363
 9440SOL    HW228899   3.424   3.862   9.566 -0.3999  0.5106  2.1497
 9441SOL     OW28900   4.536   0.609   5.726  0.1486  0.2045  0.3408
 9441SOL    HW128901   4.505   0.542   5.664  0.1618 -1.0731  1.6626
 9441SOL    HW228902   4.624   0.580   5.750  0.7058  1.4689 -0.1021
 9442SOL     OW28903   8.359   3.827   1.935  0.2096  0.3426  0.5371
 9442SOL    HW128904   8.412   3.898   1.970 -0.2252  2.0845 -2.0575
 9442SOL    HW228905   8.423   3.758   1.915  1.1041  1.2129  0.2771
 9443SOL     OW28906   6.162   3.691   0.629  0.1755 -0.1849  0.2933
 9443SOL    HW128907   6.225   3.681   0.700 -0.6542 -2.3293  0.8225
 9443SOL    HW228908   6.216   3.698   0.550  1.2676 -4.3008  0.4467
 9444SOL     OW28909   6.097   3.089   8.921 -0.1322 -0.0805 -0.0681
 9444SOL    HW128910   6.131   3.146   8.991 -1.6509  0.1619  0.5094
 9444SOL    HW228911   6.132   3.003   8.941 -1.1387 -0.1753  1.4674
 9445SOL     OW28912   1.214   5.786   0.369 -0.5135 -0.0705 -0.3004
 9445SOL    HW128913   1.154   5.846   0.412 -1.6875 -0.9486 -0.6526
 9445SOL    HW228914   1.168   5.702   0.370  0.1211 -0.4660 -1.7785
 9446SOL     OW28915   6.594   9.744   5.872 -0.3287  0.1273  0.3247
 9446SOL    HW128916   6.591   9.671   5.811 -0.3344 -0.6596  1.2336
 9446SOL    HW228917   6.687   9.753   5.895 -0.3289  0.3962  0.2227
 9447SOL     OW28918   3.193   3.934   6.940  0.3131 -0.3591  1.0019
 9447SOL    HW128919   3.221   3.876   6.869 -0.7181  0.4451 -0.1162
 9447SOL    HW228920   3.100   3.917   6.949  0.0639  0.8661  0.8745
 9448SOL     OW28921   7.341   7.357   0.943 -0.2355 -0.2885  0.0046
 9448SOL    HW128922   7.412   7.421   0.937 -0.6101  0.0317 -1.3477
 9448SOL    HW228923   7.331   7.341   1.037 -0.5669  2.1270  0.4456
 9449SOL     OW28924   3.806   7.702   6.106 -0.2910 -0.3173  0.1477
 9449SOL    HW128925   3.834   7.724   6.017 -1.4629  2.1294  0.2958
 9449SOL    HW228926   3.839   7.773   6.160 -2.5129  0.1143  1.0721
 9450SOL     OW28927   1.271   8.036   1.376 -0.6591 -0.0705 -0.2205
 9450SOL    HW128928   1.226   7.998   1.301 -0.8971  0.4815 -0.3646
 9450SOL    HW228929   1.361   8.052   1.345 -0.7784  0.2302 -0.4184
 9451SOL     OW28930   0.856   7.281   0.086 -0.3614  0.1088 -0.1712
 9451SOL    HW128931   0.796   7.206   0.084  0.9020 -1.0618  1.9125
 9451SOL    HW228932   0.887   7.290  -0.004 -0.9184 -1.5839 -0.5673
 9452SOL     OW28933   6.873   9.797   8.785 -0.1183  0.2786  0.2875
 9452SOL    HW128934   6.780   9.774   8.792 -0.3330  0.1659 -2.0558
 9452SOL    HW228935   6.873   9.889   8.760  0.3346  0.0296 -0.6889
 9453SOL     OW28936   8.198   9.212   2.574  0.0040 -0.0964  0.3715
 9453SOL    HW128937   8.247   9.253   2.503  0.1526  0.5957  0.8666
 9453SOL    HW228938   8.178   9.124   2.542 -0.5456  0.4447 -0.8093
 9454SOL     OW28939   9.454   0.216   4.932  0.2148  0.3224 -0.4544
 9454SOL    HW128940   9.513   0.226   5.007 -2.0840 -0.9677  1.6309
 9454SOL    HW228941   9.417   0.303   4.919  1.5805  0.8568 -1.0036
 9455SOL     OW28942   8.588   6.915   0.835 -0.0295  0.1744  0.3258
 9455SOL    HW128943   8.654   6.984   0.834  0.9315 -0.6678 -2.1872
 9455SOL    HW228944   8.636   6.836   0.808 -2.2479 -0.2183 -2.9918
 9456SOL     OW28945   2.058   5.412   9.064 -0.5230 -0.2686 -0.2250
 9456SOL    HW128946   2.145   5.374   9.078 -0.7083 -0.6859 -0.1912
 9456SOL    HW228947   2.026   5.370   8.984 -1.6536 -1.8975  0.9989
 9457SOL     OW28948   7.728   0.193   2.682 -0.4258 -0.1105 -0.0609
 9457SOL    HW128949   7.688   0.113   2.719 -1.4765  0.0228 -0.8700
 9457SOL    HW228950   7.717   0.184   2.588 -0.8522  1.1494 -0.1484
 9458SOL     OW28951   5.537   5.854   7.033 -0.2397  0.0955  0.2976
 9458SOL    HW128952   5.457   5.859   7.086 -1.1860 -0.7741 -1.0102
 9458SOL    HW228953   5.574   5.942   7.039 -1.5765  0.6705  0.4996
 9459SOL     OW28954   9.796   9.832   5.502  0.4357  0.1136 -0.1008
 9459SOL    HW128955   9.850   9.900   5.462 -0.1809  0.8266  0.2706
 9459SOL    HW228956   9.710   9.842   5.462 -0.0400  0.4719  0.9679
 9460SOL     OW28957   4.122   4.397   9.578  0.2097 -0.2658 -0.6038
 9460SOL    HW128958   4.149   4.469   9.521  1.2727 -0.7833 -0.7867
 9460SOL    HW228959   4.040   4.427   9.618  1.8143  2.1147  1.2303
 9461SOL     OW28960   2.777   4.797   9.331 -0.6238 -0.4347 -1.0013
 9461SOL    HW128961   2.783   4.786   9.236 -1.2447  1.6259 -1.3162
 9461SOL    HW228962   2.812   4.884   9.348  2.4464 -1.8906  1.0894
 9462SOL     OW28963   8.807   2.096   5.165  0.0573 -0.6608 -0.5664
 9462SOL    HW128964   8.867   2.070   5.235 -0.8004  0.4841  0.6432
 9462SOL    HW228965   8.729   2.043   5.181 -0.3244 -0.0359 -0.3323
 9463SOL     OW28966   0.930   2.735   0.405 -0.1371  0.1425  0.4370
 9463SOL    HW128967   0.839   2.764   0.410  0.5233  2.2980  0.9525
 9463SOL    HW228968   0.946   2.692   0.490 -0.9401 -1.2261 -0.0711
 9464SOL     OW28969   0.237   0.188   3.669 -0.1920  0.6948 -0.4252
 9464SOL    HW128970   0.225   0.094   3.679 -1.6017  0.9330  0.5266
 9464SOL    HW228971   0.296   0.213   3.740  0.9712  0.4064 -1.2725
 9465SOL     OW28972   3.983   9.637   5.484  0.0216  0.0993 -0.1287
 9465SOL    HW128973   4.069   9.604   5.509  0.0166 -0.8421 -1.2522
 9465SOL    HW228974   3.971   9.606   5.394 -1.2190  0.7621 -0.2115
 9466SOL     OW28975   6.989   2.400   6.439 -0.2451  0.2578 -0.0779
 9466SOL    HW128976   7.023   2.313   6.458  1.3911  0.5240 -1.5623
 9466SOL    HW228977   6.896   2.396   6.464  0.3417 -1.1545  2.0615
 9467SOL     OW28978   8.288   4.706   2.891 -0.1550  0.5408 -0.0213
 9467SOL    HW128979   8.361   4.655   2.926  1.0160  1.4236 -1.0713
 9467SOL    HW228980   8.213   4.681   2.944  0.9133 -0.4013  1.0909
 9468SOL     OW28981   8.597   0.266   6.245  0.4265  0.2915  0.0216
 9468SOL    HW128982   8.618   0.180   6.210 -0.1142 -0.4316  1.4154
 9468SOL    HW228983   8.504   0.262   6.264  0.3482  1.2712 -0.1125
 9469SOL     OW28984   9.136   4.467   7.925  0.1878  0.1940  0.2646
 9469SOL    HW128985   9.073   4.475   7.997 -0.7720 -1.9848 -0.2659
 9469SOL    HW228986   9.204   4.408   7.959  1.1551  1.2647  0.2658
 9470SOL     OW28987   6.661   6.384   7.212  0.1664 -0.1876  0.1402
 9470SOL    HW128988   6.722   6.384   7.138 -0.4312 -0.0786 -0.3618
 9470SOL    HW228989   6.660   6.293   7.241  0.4809 -0.2127  0.0868
 9471SOL     OW28990   0.211   1.380   1.765  0.1421 -0.0428 -0.0101
 9471SOL    HW128991   0.253   1.334   1.838 -0.1772 -0.7368 -0.2556
 9471SOL    HW228992   0.254   1.346   1.687 -0.0083  0.1744 -0.1872
 9472SOL     OW28993   7.806   8.752   4.451  0.2428 -0.4049 -0.3421
 9472SOL    HW128994   7.751   8.683   4.414  1.0678 -0.0326 -2.4006
 9472SOL    HW228995   7.745   8.808   4.498 -1.0443 -0.5003 -1.8007
 9473SOL     OW28996   9.741   7.726   1.791 -0.3797 -0.2909  0.0614
 9473SOL    HW128997   9.668   7.698   1.736  0.1572  0.2780 -0.9662
 9473SOL    HW228998   9.779   7.645   1.823  0.4998 -0.7712 -2.0174
 9474SOL     OW28999   2.565   6.277   5.012 -0.0175  0.1408 -0.2624
 9474SOL    HW129000   2.506   6.342   5.050 -0.9205  0.5470 -2.2267
 9474SOL    HW229001   2.636   6.269   5.075 -0.7082  1.8255  0.7943
 9475SOL     OW29002   4.547   7.200   4.969 -0.5407 -0.5111  0.0666
 9475SOL    HW129003   4.511   7.218   4.882 -1.1805  3.0459  0.8998
 9475SOL    HW229004   4.471   7.175   5.021 -1.0095  1.7273  0.5578
 9476SOL     OW29005   5.999   8.770   8.173 -0.2308 -0.4249 -0.0834
 9476SOL    HW129006   6.008   8.848   8.119 -0.6187 -0.2284  0.1339
 9476SOL    HW229007   6.082   8.763   8.219  0.2082 -0.7502 -0.9100
 9477SOL     OW29008   4.433   3.530   0.114 -0.0927  0.1165 -0.0433
 9477SOL    HW129009   4.487   3.484   0.050  1.5930  0.8445  0.7935
 9477SOL    HW229010   4.431   3.621   0.083 -1.3162 -0.0020 -0.3517
 9478SOL     OW29011   1.857   5.114   6.138 -0.1611  0.3767  0.8496
 9478SOL    HW129012   1.835   5.077   6.224 -1.8283 -0.8010 -0.0358
 9478SOL    HW229013   1.776   5.107   6.087  1.1789 -0.3009 -1.2962
 9479SOL     OW29014   7.691   2.075   5.698  0.3615 -0.0066  0.1214
 9479SOL    HW129015   7.686   1.988   5.658  0.2256 -0.8812  1.9155
 9479SOL    HW229016   7.638   2.068   5.777  0.0842  1.8339  0.1406
 9480SOL     OW29017   6.146   9.029   5.699  0.1487  0.1931 -0.5042
 9480SOL    HW129018   6.129   9.080   5.620 -0.4914 -0.8668 -1.0819
 9480SOL    HW229019   6.102   8.946   5.683  2.6234 -1.2403 -0.3694
 9481SOL     OW29020   0.272   8.245   3.163  0.0871 -0.1008  0.2565
 9481SOL    HW129021   0.232   8.263   3.078  1.1200  3.3978  0.3454
 9481SOL    HW229022   0.198   8.238   3.223 -0.5847  0.4496 -0.4824
 9482SOL     OW29023   7.191   5.266   1.480 -0.2738  0.2190  0.1726
 9482SOL    HW129024   7.168   5.183   1.438 -0.4966  1.0069 -1.3397
 9482SOL    HW229025   7.286   5.261   1.492 -0.3484 -0.4401  0.5475
 9483SOL     OW29026   0.829   2.532   4.498 -0.5131  0.9409 -0.6066
 9483SOL    HW129027   0.781   2.576   4.568 -0.4994 -0.6958  0.4595
 9483SOL    HW229028   0.767   2.531   4.425 -1.6425  0.0555  0.3264
 9484SOL     OW29029   3.555   2.391   1.366  0.5871 -0.4671  0.5843
 9484SOL    HW129030   3.475   2.373   1.416 -1.2993  1.6395 -1.4214
 9484SOL    HW229031   3.547   2.483   1.341  2.7562 -0.7016 -1.2705
 9485SOL     OW29032   7.889   7.605   6.004 -0.7493  0.6941 -0.2367
 9485SOL    HW129033   7.966   7.643   6.046  1.1246 -1.5449 -1.3730
 9485SOL    HW229034   7.886   7.646   5.918 -2.2642  2.4539  0.6111
 9486SOL     OW29035   7.144   4.994   7.218 -0.6187  0.3396  0.1038
 9486SOL    HW129036   7.134   4.919   7.276 -0.3781  1.6190  1.8878
 9486SOL    HW229037   7.218   4.972   7.161  0.3941 -0.1921  1.5818
 9487SOL     OW29038   8.426   7.054   2.638  0.2110  0.1473  0.0359
 9487SOL    HW129039   8.475   7.019   2.564  1.6016  2.3985 -0.1938
 9487SOL    HW229040   8.334   7.035   2.618  0.7850 -1.9790 -0.7251
 9488SOL     OW29041   8.579   4.217   7.074  0.1151  0.6064 -0.2964
 9488SOL    HW129042   8.601   4.125   7.089 -2.0165  0.1074 -0.0386
 9488SOL    HW229043   8.587   4.258   7.160 -1.8980 -0.0203  0.2255
 9489SOL     OW29044   0.513   5.373   9.255  0.1872 -0.2248 -0.1369
 9489SOL    HW129045   0.591   5.425   9.275 -0.5712  0.7613  0.3386
 9489SOL    HW229046   0.440   5.434   9.266 -0.6323 -1.0380 -0.9245
 9490SOL     OW29047   3.770   4.371   7.492 -0.2501 -0.4751  0.4462
 9490SOL    HW129048   3.794   4.408   7.578  0.8172  0.6566 -0.3053
 9490SOL    HW229049   3.800   4.437   7.429  0.5278 -2.0688 -0.8975
 9491SOL     OW29050   6.982   9.764   9.905  0.3503 -0.4138 -0.2962
 9491SOL    HW129051   6.968   9.858   9.893 -0.0513 -0.6708 -1.9693
 9491SOL    HW229052   6.907   9.735   9.957  0.6634  0.2377  0.5464
 9492SOL     OW29053   8.758   5.306   0.188 -0.0691 -0.3619  0.5912
 9492SOL    HW129054   8.728   5.243   0.123 -0.9987  1.0496 -0.4120
 9492SOL    HW229055   8.722   5.390   0.158 -0.9913  0.2628  3.2252
 9493SOL     OW29056   2.793   5.523   0.941 -0.2877 -0.2528  0.4689
 9493SOL    HW129057   2.713   5.522   0.993 -1.1679 -0.9384 -0.8373
 9493SOL    HW229058   2.788   5.444   0.887  0.1446  0.8486 -1.2701
 9494SOL     OW29059   8.541   0.616   2.503 -0.3079 -0.1870 -0.1499
 9494SOL    HW129060   8.503   0.646   2.586 -0.6654 -0.2068 -0.3014
 9494SOL    HW229061   8.471   0.632   2.439  0.4630  1.1390 -0.6913
 9495SOL     OW29062   2.890   5.062   8.694  0.5038  0.0484 -0.5626
 9495SOL    HW129063   2.934   5.142   8.724  2.4892 -0.1248 -2.6610
 9495SOL    HW229064   2.935   4.991   8.740  0.2497  0.0236 -0.3504
 9496SOL     OW29065   6.587   8.194   8.561 -0.0378 -0.1391 -0.2172
 9496SOL    HW129066   6.648   8.190   8.635 -2.9399 -1.6800  2.2677
 9496SOL    HW229067   6.617   8.125   8.501  1.2164 -0.1831  0.4350
 9497SOL     OW29068   2.887   3.487   1.084 -0.0204 -0.0711  0.0855
 9497SOL    HW129069   2.917   3.400   1.056  0.3197  0.0470  0.0709
 9497SOL    HW229070   2.853   3.472   1.172  1.9330  0.1231  0.9382
 9498SOL     OW29071   3.736   6.883   0.271  0.2722 -0.1747  0.1074
 9498SOL    HW129072   3.680   6.838   0.334  1.0595 -1.3164  0.0081
 9498SOL    HW229073   3.807   6.822   0.254  2.2331  1.6839  1.1449
 9499SOL     OW29074   2.225   5.314   6.655  0.2651 -0.6566 -0.2813
 9499SOL    HW129075   2.187   5.399   6.633  0.8281 -0.3587 -0.1167
 9499SOL    HW229076   2.226   5.266   6.572  1.1546 -0.0177 -0.6563
 9500SOL     OW29077   9.482   7.882   5.934  0.0571 -0.1931  0.1732
 9500SOL    HW129078   9.466   7.842   6.020 -1.7222  0.4178  0.1721
 9500SOL    HW229079   9.412   7.947   5.925  1.6789  1.5289 -0.6778
 9501SOL     OW29080   9.849   1.671   3.888  0.0144  0.3272  0.0405
 9501SOL    HW129081   9.793   1.747   3.873  0.6801  1.0866  1.2018
 9501SOL    HW229082   9.930   1.708   3.925  0.0843 -0.9846  1.3037
 9502SOL     OW29083   9.353   2.040   6.492  0.8270 -0.1267 -0.2632
 9502SOL    HW129084   9.274   1.988   6.500  1.0897 -0.8277 -1.9134
 9502SOL    HW229085   9.412   1.988   6.438  2.4128  0.4065  0.8513
 9503SOL     OW29086   9.729   5.138   9.632 -0.6549  0.1737 -0.2478
 9503SOL    HW129087   9.728   5.082   9.709 -1.0916  1.1417  0.4791
 9503SOL    HW229088   9.804   5.196   9.646  1.7686 -2.1725 -2.4882
 9504SOL     OW29089   4.835   9.237   1.287 -0.6760  0.3575  0.1211
 9504SOL    HW129090   4.921   9.219   1.324  0.0455 -0.4262 -1.8032
 9504SOL    HW229091   4.777   9.172   1.326  0.4054 -1.5491 -1.2988
 9505SOL     OW29092   4.542   1.508   1.155  0.2101 -0.2171 -0.4008
 9505SOL    HW129093   4.533   1.424   1.110  3.3059 -0.6573 -0.4330
 9505SOL    HW229094   4.619   1.548   1.115 -0.4316  2.0661  0.5068
 9506SOL     OW29095   5.721   2.615   0.177  0.7424 -0.4135  0.2896
 9506SOL    HW129096   5.724   2.623   0.082 -0.4946 -3.8405 -0.2006
 9506SOL    HW229097   5.807   2.645   0.206  0.5454  2.3983 -1.6486
 9507SOL     OW29098   8.810   4.738   7.573 -0.0547  0.5421  0.0663
 9507SOL    HW129099   8.836   4.647   7.579 -0.5163  0.3466 -0.6843
 9507SOL    HW229100   8.864   4.783   7.638  0.8861 -0.1036 -0.2415
 9508SOL     OW29101   6.941   6.826   6.683  0.3523 -0.3723 -0.0357
 9508SOL    HW129102   6.898   6.824   6.598  0.9512 -0.4089 -0.3474
 9508SOL    HW229103   6.929   6.738   6.719 -1.7583  0.2392  0.8869
 9509SOL     OW29104   6.741   8.921   3.043  0.3711  0.6854 -0.5515
 9509SOL    HW129105   6.664   8.901   2.990 -0.5947  2.2928  0.1709
 9509SOL    HW229106   6.804   8.959   2.981  1.0682 -1.5857 -1.3487
 9510SOL     OW29107   9.024   2.327   6.556 -0.5416 -0.2449  0.4493
 9510SOL    HW129108   9.053   2.406   6.510  0.1631  1.0282  2.8624
 9510SOL    HW229109   9.094   2.263   6.541 -1.5118 -0.7946 -2.2219
 9511SOL     OW29110   2.682   9.370   8.460 -0.1594 -0.1946 -0.3087
 9511SOL    HW129111   2.760   9.370   8.405  0.0556  0.6780 -0.0254
 9511SOL    HW229112   2.698   9.439   8.525 -1.2667  0.1935 -0.4123
 9512SOL     OW29113   3.336   8.402   4.510  0.7080  0.0538 -0.1898
 9512SOL    HW129114   3.398   8.397   4.583  0.6551  0.7030 -0.0979
 9512SOL    HW229115   3.329   8.495   4.490  0.6299 -0.1067 -0.9514
 9513SOL     OW29116   7.018   0.447   9.061 -0.2267  0.4843  0.1906
 9513SOL    HW129117   6.935   0.419   9.022  0.4769  0.4885 -1.4242
 9513SOL    HW229118   7.049   0.516   9.002  0.6842  0.8287  1.0543
 9514SOL     OW29119   1.102   0.135   5.786 -0.3299  0.3726  0.3282
 9514SOL    HW129120   1.021   0.085   5.798 -0.6843  1.0051  0.6140
 9514SOL    HW229121   1.171   0.076   5.816 -0.5058 -0.7818 -1.4001
 9515SOL     OW29122   6.850   8.174   0.121  0.1844  0.1911  0.3748
 9515SOL    HW129123   6.852   8.232   0.198 -0.4275 -0.7410  1.1200
 9515SOL    HW229124   6.820   8.090   0.156 -0.6030 -0.1195 -0.9781
 9516SOL     OW29125   3.799   5.082   9.896  0.0559 -0.0981  0.3813
 9516SOL    HW129126   3.832   5.086   9.807 -0.3254 -2.2595  0.1025
 9516SOL    HW229127   3.869   5.121   9.949  1.6780 -1.6522 -0.5342
 9517SOL     OW29128   7.094   6.987   5.398 -0.2579 -0.0928  0.1926
 9517SOL    HW129129   7.166   6.946   5.447 -1.0574 -1.7944  0.0377
 9517SOL    HW229130   7.028   7.008   5.464 -0.5995 -0.7534  0.0710
 9518SOL     OW29131   1.181   2.805   8.076 -0.1811 -0.0817 -0.5380
 9518SOL    HW129132   1.095   2.765   8.085 -0.3594  0.1986 -0.9512
 9518SOL    HW229133   1.177   2.853   7.993  0.1262  0.5359 -0.2049
 9519SOL     OW29134   4.518   8.502   2.869 -0.2283 -0.2502 -0.1496
 9519SOL    HW129135   4.431   8.542   2.865 -0.3849 -0.6699 -2.8676
 9519SOL    HW229136   4.508   8.418   2.823  0.9796 -1.7214  2.0600
 9520SOL     OW29137   2.172   3.009   6.205  0.5330 -0.3565  0.3708
 9520SOL    HW129138   2.179   3.102   6.225 -0.1241 -0.4710  1.1854
 9520SOL    HW229139   2.082   2.986   6.229  1.0966 -1.4970  1.5296
 9521SOL     OW29140   0.459   7.396   4.918 -0.4814 -0.3962 -0.0801
 9521SOL    HW129141   0.493   7.467   4.864  0.0989  0.0503  0.8507
 9521SOL    HW229142   0.438   7.437   5.002 -0.7280 -1.2052  0.2662
 9522SOL     OW29143   9.840   9.944   1.197  0.1448 -0.6042 -0.5430
 9522SOL    HW129144   9.869   9.923   1.108 -0.5116 -0.4786 -0.7925
 9522SOL    HW229145   9.752   9.978   1.185  0.7814  1.3067 -0.0343
 9523SOL     OW29146   4.843   5.471   9.434 -0.4335  0.5980  0.3543
 9523SOL    HW129147   4.862   5.407   9.502 -1.8265 -0.2955 -0.0614
 9523SOL    HW229148   4.769   5.521   9.468  1.3834  2.9174  1.2333
 9524SOL     OW29149   0.268   9.867   8.005  0.0615  0.4429  0.0798
 9524SOL    HW129150   0.189   9.897   7.962 -0.0059 -0.5692 -0.5361
 9524SOL    HW229151   0.288   9.783   7.963  0.5100 -0.1289  1.3750
 9525SOL     OW29152   2.193   1.384   5.441 -0.0935  0.3097  0.2136
 9525SOL    HW129153   2.166   1.469   5.478 -1.1544  0.4545 -0.8148
 9525SOL    HW229154   2.211   1.329   5.517 -0.4104  1.1537  0.9106
 9526SOL     OW29155   9.279   6.391   8.441  0.5114  0.2998 -0.4304
 9526SOL    HW129156   9.250   6.424   8.356  0.9901  3.9752  0.6202
 9526SOL    HW229157   9.201   6.390   8.495  0.5886  0.2286 -0.3192
 9527SOL     OW29158   1.012   8.766   4.432  0.2839 -0.7416  0.0206
 9527SOL    HW129159   0.934   8.811   4.401  0.4796  2.0415  3.0033
 9527SOL    HW229160   0.980   8.680   4.461 -1.0853 -0.7036 -1.2418
 9528SOL     OW29161   2.042   2.766   4.077  0.3306 -0.7456  0.1563
 9528SOL    HW129162   1.997   2.687   4.108 -0.4537  0.5678  2.5804
 9528SOL    HW229163   1.971   2.821   4.043  0.2091  0.7060  2.5945
 9529SOL     OW29164   1.281   4.620   5.281  0.2542 -0.4501 -0.2293
 9529SOL    HW129165   1.286   4.531   5.315  0.6454 -0.4416 -0.2614
 9529SOL    HW229166   1.370   4.641   5.253  0.3346  0.2257  0.4895
 9530SOL     OW29167   9.709   8.135   6.689  0.4676 -0.0084 -0.1346
 9530SOL    HW129168   9.741   8.045   6.682 -1.5872 -0.8143  0.1328
 9530SOL    HW229169   9.646   8.144   6.618  1.7164  1.7452 -1.0865
 9531SOL     OW29170   4.601   1.131   3.173  0.0308 -0.0704 -0.2661
 9531SOL    HW129171   4.506   1.131   3.161 -0.2744  0.5511  1.7831
 9531SOL    HW229172   4.616   1.076   3.250  1.3105  0.1854 -0.3013
 9532SOL     OW29173   1.729   6.898   5.454  0.5168  0.5402  0.3122
 9532SOL    HW129174   1.718   6.939   5.540 -0.3559 -1.3661  1.1591
 9532SOL    HW229175   1.652   6.844   5.442  0.7231  0.5771 -1.6164
 9533SOL     OW29176   9.093   6.355   2.609 -0.2231 -0.6279 -0.9315
 9533SOL    HW129177   9.040   6.435   2.613  0.2188 -0.3651  0.0200
 9533SOL    HW229178   9.029   6.284   2.612 -0.6007 -0.3133 -1.4168
 9534SOL     OW29179   6.495   6.478   1.179  0.0439 -0.5281  0.2861
 9534SOL    HW129180   6.426   6.526   1.132  0.5732 -0.2388 -0.2133
 9534SOL    HW229181   6.569   6.477   1.118  1.1122  0.7500  1.4980
 9535SOL     OW29182   4.042   7.622   4.292 -0.7093  0.1021  0.8775
 9535SOL    HW129183   4.010   7.712   4.288 -1.2340 -0.1255 -0.8529
 9535SOL    HW229184   3.963   7.569   4.301 -0.4980 -0.2502  0.6692
 9536SOL     OW29185   0.759   4.828   5.411 -0.0863  0.2314 -0.0469
 9536SOL    HW129186   0.727   4.802   5.497  2.0319  1.3885  1.1848
 9536SOL    HW229187   0.772   4.923   5.419 -2.8491  0.9913 -2.7298
 9537SOL     OW29188   0.822   9.049   6.652  0.4223  0.1541 -0.1158
 9537SOL    HW129189   0.856   9.128   6.608  1.1822 -0.1333 -0.0578
 9537SOL    HW229190   0.873   8.977   6.615  1.1100 -0.0961  1.2586
 9538SOL     OW29191   9.197   0.591   0.838 -0.2816 -0.6079  0.9717
 9538SOL    HW129192   9.254   0.611   0.912 -0.1922 -1.5391  1.1741
 9538SOL    HW229193   9.125   0.653   0.845  1.3859  1.5895 -0.1208
 9539SOL     OW29194   8.619   9.493   6.501 -0.1992  0.5618  0.8608
 9539SOL    HW129195   8.560   9.562   6.470  0.8523  1.4938  0.8867
 9539SOL    HW229196   8.659   9.458   6.422  0.3086  0.9459  0.9433
 9540SOL     OW29197   2.249   9.113   3.277 -0.6149  0.4220  0.5779
 9540SOL    HW129198   2.234   9.047   3.210 -2.2391  2.6187 -1.3841
 9540SOL    HW229199   2.179   9.098   3.341  0.0823 -0.7885  1.0903
 9541SOL     OW29200   8.857   5.323   0.807 -0.6561  0.1410 -0.0951
 9541SOL    HW129201   8.767   5.356   0.799 -0.5749  0.4243  0.1447
 9541SOL    HW229202   8.859   5.278   0.891 -0.5237  0.2971 -0.0138
 9542SOL     OW29203   2.275   4.255   7.935  0.2329 -0.4833 -0.0735
 9542SOL    HW129204   2.209   4.191   7.959  0.3173 -0.1484  1.1062
 9542SOL    HW229205   2.267   4.324   8.001  1.0990  0.0284 -0.4838
 9543SOL     OW29206   5.780   3.903   7.694  0.2836  0.3311  0.6926
 9543SOL    HW129207   5.784   3.981   7.640  0.1993  1.0064  1.6445
 9543SOL    HW229208   5.694   3.865   7.675  0.2331  0.5854  0.3995
 9544SOL     OW29209   9.918   4.780   3.387  0.5100 -0.2082  0.0550
 9544SOL    HW129210   9.845   4.812   3.441  2.2852 -0.2102  2.6316
 9544SOL    HW229211   9.877   4.753   3.305 -2.2902  0.3382  1.1579
 9545SOL     OW29212   9.101   6.746   5.756 -0.6998 -0.3660  0.3075
 9545SOL    HW129213   9.094   6.741   5.660  0.2847  0.0767  0.2022
 9545SOL    HW229214   9.037   6.812   5.781  0.8658  1.4943 -0.3354
 9546SOL     OW29215   0.249   9.261   1.009  0.9345  0.0347  0.6964
 9546SOL    HW129216   0.338   9.276   0.978  1.0431  0.0305  1.0052
 9546SOL    HW229217   0.260   9.223   1.096  0.6713 -1.9203 -0.0636
 9547SOL     OW29218   5.105   4.761   1.857  0.1404 -0.1294 -0.0671
 9547SOL    HW129219   5.061   4.817   1.922 -1.1233  0.5167 -1.4385
 9547SOL    HW229220   5.045   4.688   1.843  0.7130 -0.6164 -0.0468
 9548SOL     OW29221   8.524   1.801   1.358  0.0029  0.0719  0.3848
 9548SOL    HW129222   8.506   1.850   1.438  0.7109 -0.3291  0.8047
 9548SOL    HW229223   8.590   1.736   1.384 -0.0145 -0.2919 -0.4419
 9549SOL     OW29224   4.793   7.167   3.521 -0.3854 -0.2557  0.3787
 9549SOL    HW129225   4.816   7.255   3.493 -0.6141 -0.1949  0.3737
 9549SOL    HW229226   4.788   7.115   3.441 -2.1946  0.1904  0.1580
 9550SOL     OW29227   4.279   6.132   8.022  0.1884  0.7668 -0.1058
 9550SOL    HW129228   4.191   6.093   8.020  0.4318  0.2218 -0.7038
 9550SOL    HW229229   4.277   6.198   7.953  0.6782 -0.2439 -1.1226
 9551SOL     OW29230   5.951   9.816   2.725  0.2959  0.1617  0.0723
 9551SOL    HW129231   5.926   9.761   2.651  1.1647 -0.1145 -0.0267
 9551SOL    HW229232   6.046   9.823   2.719  0.5578 -0.9941  1.9427
 9552SOL     OW29233   8.532   0.734   4.481 -0.1057 -0.2872 -0.6605
 9552SOL    HW129234   8.612   0.723   4.431 -0.3330  0.0723 -1.1095
 9552SOL    HW229235   8.468   0.767   4.418 -0.4222  0.0859 -0.1584
 9553SOL     OW29236   7.682   8.251   0.055  0.7453  0.6377 -0.6636
 9553SOL    HW129237   7.605   8.195   0.065  0.7734  0.5635 -0.8470
 9553SOL    HW229238   7.703   8.280   0.144  2.0061 -1.3491 -0.2705
 9554SOL     OW29239   8.544   1.555   0.202 -0.1126 -0.2683  0.3606
 9554SOL    HW129240   8.635   1.558   0.230 -0.2365  0.1152  0.7328
 9554SOL    HW229241   8.520   1.462   0.211  0.0459 -0.2599  0.8963
 9555SOL     OW29242   8.057   0.327   6.843  0.3123  0.3361 -0.4076
 9555SOL    HW129243   8.145   0.361   6.856 -0.1445  1.8620 -1.1178
 9555SOL    HW229244   8.030   0.364   6.759 -0.5368 -1.1441 -0.8142
 9556SOL     OW29245   3.170   8.832   8.627 -0.5723 -0.1758 -0.2356
 9556SOL    HW129246   3.200   8.802   8.541  0.0162 -0.2980  0.0126
 9556SOL    HW229247   3.157   8.927   8.616  1.5984  0.2059  0.1220
 9557SOL     OW29248   4.488   8.733   4.581  0.9365  0.7149  0.4284
 9557SOL    HW129249   4.509   8.653   4.533  2.2774  0.4833  1.3157
 9557SOL    HW229250   4.457   8.794   4.515  0.0767 -0.4690 -0.2935
 9558SOL     OW29251   1.566   8.177   3.310  0.0068 -0.1670  0.2475
 9558SOL    HW129252   1.653   8.149   3.280 -0.1917 -1.9146  1.1693
 9558SOL    HW229253   1.514   8.097   3.311 -1.5257  0.7836  0.1096
 9559SOL     OW29254   9.759   5.026   4.499 -0.3398 -0.2133 -0.1384
 9559SOL    HW129255   9.794   4.967   4.431 -2.3430 -0.1097 -1.3214
 9559SOL    HW229256   9.832   5.084   4.519  1.1411 -1.9280 -0.2443
 9560SOL     OW29257   2.266   1.509   4.311  0.3238 -0.0882 -0.5416
 9560SOL    HW129258   2.233   1.436   4.259  0.1796  0.4212 -1.1908
 9560SOL    HW229259   2.362   1.503   4.303  0.4041 -1.2708  0.9289
 9561SOL     OW29260   4.277   1.106   3.804  0.9577  0.1060 -0.0730
 9561SOL    HW129261   4.186   1.078   3.795  0.3836  1.5488  0.8140
 9561SOL    HW229262   4.280   1.193   3.763  1.3558  1.0474  1.8049
 9562SOL     OW29263   6.966   8.144   1.151  0.3885 -0.0478  0.8237
 9562SOL    HW129264   6.950   8.125   1.244 -1.7526  0.6203  0.6543
 9562SOL    HW229265   7.061   8.147   1.143  0.6325 -0.5384  2.9055
 9563SOL     OW29266   5.744   4.489   9.517  0.3271 -0.0186 -0.4653
 9563SOL    HW129267   5.731   4.551   9.446  1.2603  0.4285 -0.2586
 9563SOL    HW229268   5.839   4.475   9.521  0.6086  1.8412  2.2187
 9564SOL     OW29269   7.284   6.666   0.044 -0.0662 -0.2689  0.1633
 9564SOL    HW129270   7.248   6.749   0.074 -1.4572 -0.4104 -1.0283
 9564SOL    HW229271   7.255   6.602   0.109  1.2931  0.1798  1.2712
 9565SOL     OW29272   2.627   8.101   4.312  0.3080 -0.1916  0.2578
 9565SOL    HW129273   2.569   8.176   4.300  0.2135 -0.2788  0.1545
 9565SOL    HW229274   2.612   8.073   4.402 -0.7104 -0.9487 -0.1293
 9566SOL     OW29275   8.488   4.390   5.379 -0.2938 -0.2451  0.1765
 9566SOL    HW129276   8.458   4.364   5.292 -0.0948  0.4503 -0.1076
 9566SOL    HW229277   8.496   4.486   5.374  1.1872 -0.3404  0.4962
 9567SOL     OW29278   7.697   0.410   3.298 -0.6392  0.0702  0.0473
 9567SOL    HW129279   7.653   0.331   3.330 -1.9290  1.0020  0.6708
 9567SOL    HW229280   7.626   0.468   3.272  0.1163  2.0961  2.1797
 9568SOL     OW29281   0.220   7.413   8.544 -0.1129 -0.1371  0.3779
 9568SOL    HW129282   0.280   7.487   8.554 -1.0284  0.6478  0.1604
 9568SOL    HW229283   0.202   7.385   8.634  0.3845 -0.2326  0.4534
 9569SOL     OW29284   6.206   8.449   2.402 -0.1240 -0.3503  0.7926
 9569SOL    HW129285   6.163   8.534   2.408 -0.7593 -0.7067  1.3555
 9569SOL    HW229286   6.160   8.394   2.465 -1.7339 -1.9784 -1.6594
 9570SOL     OW29287   3.163   8.932   5.161  0.4339 -0.2193  1.0712
 9570SOL    HW129288   3.231   8.943   5.095  1.0649  0.3741  1.8133
 9570SOL    HW229289   3.209   8.898   5.238 -0.2490 -0.6241  1.3122
 9571SOL     OW29290   3.366   6.399   5.729 -0.8215  0.2459  0.2549
 9571SOL    HW129291   3.302   6.436   5.789  0.6859  2.1430  0.7902
 9571SOL    HW229292   3.313   6.358   5.660 -2.5846  0.6585  1.3007
 9572SOL     OW29293   1.483   7.642   7.136  0.1059 -0.1158  0.4033
 9572SOL    HW129294   1.502   7.577   7.204  0.6650 -0.1216  0.2488
 9572SOL    HW229295   1.403   7.685   7.166 -1.0725 -1.8101 -0.1869
 9573SOL     OW29296   3.987   9.054   0.697 -0.0093 -0.1219  0.1330
 9573SOL    HW129297   3.962   8.974   0.742  0.4124 -0.3536 -0.0435
 9573SOL    HW229298   3.981   9.033   0.604  1.6815 -0.4664  0.0712
 9574SOL     OW29299   7.332   8.112   8.708 -0.0543  0.1368  0.5941
 9574SOL    HW129300   7.251   8.143   8.667 -1.2773 -0.2012  2.6441
 9574SOL    HW229301   7.304   8.070   8.789  2.1890  0.0271  1.3828
 9575SOL     OW29302   2.516   2.254   2.511  0.4539  0.5347  0.3150
 9575SOL    HW129303   2.579   2.198   2.464 -0.1653 -0.5051  0.6757
 9575SOL    HW229304   2.431   2.227   2.477  0.1528  1.4648  0.3094
 9576SOL     OW29305   4.771   8.958   0.107  0.2705 -0.1642 -0.1549
 9576SOL    HW129306   4.854   8.961   0.155  1.5146  0.3047 -2.1801
 9576SOL    HW229307   4.732   9.044   0.121  0.9250  0.1922 -0.4451
 9577SOL     OW29308   0.861   2.746   9.562  0.1871 -0.0717 -0.6129
 9577SOL    HW129309   0.807   2.768   9.638 -0.9051 -1.8705 -0.8033
 9577SOL    HW229310   0.918   2.822   9.550 -0.8753  1.0208  0.8742
 9578SOL     OW29311   8.882   1.845   6.187  0.0265 -0.2963 -0.2239
 9578SOL    HW129312   8.804   1.805   6.148 -1.6097  1.2880  1.2593
 9578SOL    HW229313   8.864   1.846   6.281  1.0359  1.7270 -0.0078
 9579SOL     OW29314   7.906   0.928   7.947 -0.1814  0.0015  0.4619
 9579SOL    HW129315   7.900   1.009   7.897  1.0352  0.7250  1.4493
 9579SOL    HW229316   7.921   0.956   8.037  2.1493 -1.3188  0.5465
 9580SOL     OW29317   9.005   1.178   5.561 -0.2744 -0.2219  0.5173
 9580SOL    HW129318   8.999   1.273   5.573 -0.1882  0.0476 -1.2130
 9580SOL    HW229319   8.963   1.141   5.638 -2.1902  1.2700  0.2734
 9581SOL     OW29320   5.700   5.851   0.927  0.2917 -0.1103 -0.0796
 9581SOL    HW129321   5.716   5.757   0.935  1.7070 -0.1196 -2.3024
 9581SOL    HW229322   5.782   5.892   0.952 -0.4239  0.6064  1.2252
 9582SOL     OW29323   4.246   6.165   9.768 -0.3034 -0.2767 -0.2005
 9582SOL    HW129324   4.339   6.172   9.747 -0.0719  0.6099  1.0421
 9582SOL    HW229325   4.220   6.253   9.795 -2.0056 -0.0107 -2.3493
 9583SOL     OW29326   8.094   9.538   1.258  0.3549 -0.6400  0.1975
 9583SOL    HW129327   8.026   9.596   1.225  0.5707  1.0502  2.4506
 9583SOL    HW229328   8.165   9.544   1.194 -0.4789 -0.1475 -0.7049
 9584SOL     OW29329   6.387   9.206   8.331  0.8914 -0.1174 -0.1358
 9584SOL    HW129330   6.467   9.205   8.384  1.7438  1.0500 -1.3603
 9584SOL    HW229331   6.363   9.298   8.326 -0.7563 -0.4788  0.4887
 9585SOL     OW29332   7.323   1.232   2.674 -0.1760 -0.5982 -0.0689
 9585SOL    HW129333   7.323   1.286   2.753 -2.5476  1.7148 -1.4582
 9585SOL    HW229334   7.367   1.285   2.608  1.7886 -2.4941 -0.3881
 9586SOL     OW29335   9.076   8.737   6.072  0.1173  0.4177  0.1673
 9586SOL    HW129336   9.119   8.775   6.148  0.8937  0.7613 -0.4377
 9586SOL    HW229337   8.987   8.772   6.074 -0.2927 -0.6109  1.6485
 9587SOL     OW29338   3.889   3.517   3.595 -0.1605 -0.2166  0.2147
 9587SOL    HW129339   3.803   3.484   3.571 -0.3844 -0.7508  1.6482
 9587SOL    HW229340   3.879   3.613   3.591 -0.2530 -0.2668 -1.4343
 9588SOL     OW29341   4.246   7.797   4.515  0.7613  0.3370  0.0153
 9588SOL    HW129342   4.205   7.880   4.489  0.6313  0.2468 -0.0719
 9588SOL    HW229343   4.177   7.751   4.563 -0.1927 -0.9868 -2.4411
 9589SOL     OW29344   8.146   0.755   0.655  0.4467  0.1406  0.1901
 9589SOL    HW129345   8.226   0.725   0.612 -0.3263 -3.5500  0.9977
 9589SOL    HW229346   8.143   0.707   0.737 -1.1329  2.5112  1.6435
 9590SOL     OW29347   2.430   1.391   3.472  0.4528 -0.1953 -0.4799
 9590SOL    HW129348   2.338   1.414   3.466  0.2237 -0.9112  0.1560
 9590SOL    HW229349   2.443   1.326   3.403  0.1052 -1.2392  0.4140
 9591SOL     OW29350   6.218   2.495   1.440  0.5610 -0.4099 -0.0158
 9591SOL    HW129351   6.277   2.442   1.495  2.0621  0.2253 -0.9592
 9591SOL    HW229352   6.267   2.576   1.424 -1.2845  0.8776  0.5668
 9592SOL     OW29353   8.683   2.801   3.543 -0.8062  0.2056  0.8659
 9592SOL    HW129354   8.673   2.865   3.473  0.2516  1.0329  1.4437
 9592SOL    HW229355   8.600   2.754   3.545 -0.6500 -0.2968 -1.3800
 9593SOL     OW29356   7.170   5.035   2.393 -0.0582 -0.3380 -0.4108
 9593SOL    HW129357   7.091   4.990   2.362  0.6374 -0.6675 -1.8139
 9593SOL    HW229358   7.235   4.965   2.403  0.1408 -0.0335  0.4544
 9594SOL     OW29359   8.316   4.686   4.145 -0.1944  0.0836 -0.4562
 9594SOL    HW129360   8.352   4.599   4.167  1.9727  1.7079  3.3804
 9594SOL    HW229361   8.392   4.734   4.111 -1.6307  0.3300 -3.7053
 9595SOL     OW29362   9.809   5.801   0.308  0.2370  0.0631 -0.0938
 9595SOL    HW129363   9.878   5.736   0.297 -0.3662 -0.6997  0.5492
 9595SOL    HW229364   9.782   5.793   0.399  0.0254  1.1042 -0.0465
 9596SOL     OW29365   4.461   1.344   3.457  0.1742 -0.2744 -0.0271
 9596SOL    HW129366   4.406   1.269   3.476 -0.6094 -0.0941 -1.4450
 9596SOL    HW229367   4.419   1.386   3.381  1.4775  0.6726 -0.2579
 9597SOL     OW29368   6.081   7.892   5.864 -0.7799  0.2583  0.2261
 9597SOL    HW129369   6.025   7.970   5.865 -0.8253  0.2799 -1.3198
 9597SOL    HW229370   6.168   7.925   5.843 -0.1627  0.1958  2.3921
 9598SOL     OW29371   4.096   1.447   5.747  0.1846 -0.0386  0.7496
 9598SOL    HW129372   4.051   1.531   5.754 -1.2851 -0.8560  1.6791
 9598SOL    HW229373   4.044   1.388   5.802  1.6358 -1.3674  0.7549
 9599SOL     OW29374   0.289   4.557   0.032  0.3082 -0.4473  0.4902
 9599SOL    HW129375   0.309   4.527   0.120 -1.5486  0.0893  1.1529
 9599SOL    HW229376   0.198   4.587   0.037  0.2639 -0.0786 -1.5244
 9600SOL     OW29377   7.689   2.588   3.225  0.1131  0.4872  0.0646
 9600SOL    HW129378   7.741   2.543   3.158 -0.5968 -0.2182 -0.0360
 9600SOL    HW229379   7.748   2.653   3.263  1.0179 -0.2035 -0.1378
 9601SOL     OW29380   1.065   5.796   4.855 -0.3424  0.0783  0.0988
 9601SOL    HW129381   1.157   5.775   4.841 -0.6441 -1.6487  0.4973
 9601SOL    HW229382   1.047   5.868   4.794  0.4346 -1.8069 -2.5188
 9602SOL     OW29383   5.882   9.122   0.505 -0.0581  0.0220 -0.3548
 9602SOL    HW129384   5.957   9.094   0.558 -1.1114 -0.2633  1.0399
 9602SOL    HW229385   5.806   9.083   0.548 -1.0265  0.3397 -1.7141
 9603SOL     OW29386   6.148   2.669   4.585 -0.3833  0.5363  0.1809
 9603SOL    HW129387   6.225   2.634   4.629 -1.4760  0.2613  1.9919
 9603SOL    HW229388   6.075   2.620   4.622 -1.5277  1.4548 -0.7658
 9604SOL     OW29389   8.029   0.116   8.290  0.4897  0.1855 -0.3215
 9604SOL    HW129390   7.998   0.142   8.203 -0.9428 -0.4210 -0.0223
 9604SOL    HW229391   8.088   0.042   8.273 -0.9880 -0.9480 -0.7121
 9605SOL     OW29392   8.955   5.212   6.986  0.3069  0.0208 -0.0161
 9605SOL    HW129393   9.001   5.228   7.068  0.9376 -0.1370 -0.3290
 9605SOL    HW229394   9.017   5.160   6.934 -0.0873  0.1119 -0.5847
 9606SOL     OW29395   4.039   9.955   1.958  0.7097  0.2651  0.3191
 9606SOL    HW129396   4.108   9.896   1.988  0.0278 -1.2717 -1.0392
 9606SOL    HW229397   3.994   9.981   2.038  1.0202 -1.0678  0.9573
 9607SOL     OW29398   6.287   8.068   0.994  0.2105 -0.2842 -0.2956
 9607SOL    HW129399   6.213   8.014   1.021 -0.3154  1.1968  1.3757
 9607SOL    HW229400   6.364   8.013   1.009 -0.4921 -1.8085 -1.9731
 9608SOL     OW29401   1.966   9.262   3.645 -0.7547  1.0496 -0.2994
 9608SOL    HW129402   1.934   9.225   3.727 -1.5419  1.6913 -0.3095
 9608SOL    HW229403   2.058   9.236   3.641 -1.1447 -0.4682 -0.0580
 9609SOL     OW29404   1.309   0.189   3.548  0.2887  0.5857  0.3718
 9609SOL    HW129405   1.325   0.099   3.519  0.4089 -0.3786  3.1604
 9609SOL    HW229406   1.215   0.192   3.567  0.0690  1.4220 -0.6994
 9610SOL     OW29407   5.814   1.254   7.416  0.3021  0.0626  0.4220
 9610SOL    HW129408   5.758   1.260   7.493 -0.8426  0.4156 -0.4056
 9610SOL    HW229409   5.872   1.180   7.433  0.0949  0.1589  1.6207
 9611SOL     OW29410   7.088   8.506   0.288  0.2636  0.0888  0.0364
 9611SOL    HW129411   7.120   8.449   0.358  0.5670  2.2355  1.7698
 9611SOL    HW229412   7.156   8.502   0.221  1.4964  0.2761  1.2267
 9612SOL     OW29413   1.745   3.855   9.490 -0.0398 -0.4960  0.2315
 9612SOL    HW129414   1.767   3.762   9.500  0.3346 -0.4196  0.1390
 9612SOL    HW229415   1.677   3.856   9.422 -0.6978 -0.7776  0.8774
 9613SOL     OW29416   3.963   5.552   4.643 -0.1610  0.5242 -0.0779
 9613SOL    HW129417   3.904   5.477   4.645 -1.1658  1.2722 -0.8300
 9613SOL    HW229418   4.040   5.521   4.595 -0.1386 -0.3056  0.4786
 9614SOL     OW29419   6.946   5.459   3.375 -0.0007  0.2471  0.2667
 9614SOL    HW129420   7.041   5.456   3.359 -0.2258  0.8397 -1.3827
 9614SOL    HW229421   6.916   5.369   3.362  0.2777  0.1271  0.4434
 9615SOL     OW29422   2.653   6.268   1.891 -0.2846  0.7284 -0.2052
 9615SOL    HW129423   2.724   6.224   1.844  0.8567  1.0372  1.1422
 9615SOL    HW229424   2.698   6.334   1.944 -1.3023 -0.5993  2.4729
 9616SOL     OW29425   4.004   5.438   6.825 -0.4826  0.9136 -0.0677
 9616SOL    HW129426   3.953   5.358   6.816 -2.6316  2.2846 -1.1874
 9616SOL    HW229427   4.060   5.441   6.748  0.6399 -0.1416  0.6810
 9617SOL     OW29428   6.270   7.569   3.035 -0.4549  0.0359  0.1102
 9617SOL    HW129429   6.322   7.497   3.072  1.9371  0.9851 -1.1713
 9617SOL    HW229430   6.295   7.646   3.087 -1.6644  0.2913  0.3463
 9618SOL     OW29431   6.940   8.831   4.939  0.8267  0.2097  0.2492
 9618SOL    HW129432   6.983   8.842   5.024 -1.2846  0.6222  1.3365
 9618SOL    HW229433   6.938   8.919   4.902  1.3631  0.1027 -0.0399
 9619SOL     OW29434   5.489   8.712   4.336  0.1576  0.2967  0.2280
 9619SOL    HW129435   5.409   8.721   4.285  0.4642 -1.8566 -0.7495
 9619SOL    HW229436   5.500   8.797   4.379 -1.7386  1.1832 -0.9088
 9620SOL     OW29437   8.333   2.451   4.413 -0.0609  0.0703  0.2587
 9620SOL    HW129438   8.417   2.422   4.450 -0.8610 -0.9288  1.3501
 9620SOL    HW229439   8.267   2.401   4.461 -1.2579  0.2546 -1.1446
 9621SOL     OW29440   7.908   5.234   6.634 -0.5701 -0.0712 -0.6533
 9621SOL    HW129441   7.966   5.302   6.668 -0.8605  0.8427 -1.9117
 9621SOL    HW229442   7.964   5.177   6.582 -0.5795  0.0685 -0.8168
 9622SOL     OW29443   9.851   6.862   0.468 -0.0955  0.0754  0.4141
 9622SOL    HW129444   9.881   6.912   0.544 -0.4467 -2.3422  2.2506
 9622SOL    HW229445   9.761   6.836   0.490  0.1130 -1.4558 -0.3797
 9623SOL     OW29446   4.404   1.302   4.623 -0.1788 -0.0538 -0.4327
 9623SOL    HW129447   4.454   1.379   4.594  1.0291 -1.3467 -1.9771
 9623SOL    HW229448   4.439   1.282   4.710  1.5293 -0.4864 -1.1793
 9624SOL     OW29449   4.380   9.215   2.373  0.3166 -0.2609 -0.0269
 9624SOL    HW129450   4.473   9.227   2.357  0.4111 -0.7497  0.1420
 9624SOL    HW229451   4.372   9.219   2.469 -0.1070  1.6960 -0.1113
 9625SOL     OW29452   5.318   7.121   2.522  1.0128  0.0434 -0.4680
 9625SOL    HW129453   5.300   7.075   2.604  0.5091  1.4821  0.2660
 9625SOL    HW229454   5.381   7.065   2.476 -1.9700 -3.0668 -1.1743
 9626SOL     OW29455   6.396   8.698   3.162  0.1694  0.4156  0.4284
 9626SOL    HW129456   6.378   8.621   3.108  1.2250  0.3586  0.1365
 9626SOL    HW229457   6.319   8.706   3.219 -0.9050  0.4050 -0.9808
 9627SOL     OW29458   8.939   0.899   5.117 -0.1296 -0.5082 -0.0541
 9627SOL    HW129459   8.865   0.958   5.104 -1.7129 -2.2566  0.6285
 9627SOL    HW229460   9.001   0.949   5.170 -1.0052  0.8423 -0.2659
 9628SOL     OW29461   5.264   2.525   2.476 -0.3216 -0.0677 -0.0275
 9628SOL    HW129462   5.258   2.604   2.422  0.2408  0.6741  0.9660
 9628SOL    HW229463   5.195   2.468   2.443 -1.5734  1.3532  0.0557
 9629SOL     OW29464   5.987   0.430   2.002  0.7634 -0.0803  0.5841
 9629SOL    HW129465   5.925   0.385   1.946  0.7641 -0.2596  0.7263
 9629SOL    HW229466   5.990   0.377   2.082 -1.8219  1.9102  2.1859
 9630SOL     OW29467   7.850   7.035   8.727 -0.1692 -0.2494  0.5280
 9630SOL    HW129468   7.923   6.991   8.683  0.4855  1.5902 -0.3398
 9630SOL    HW229469   7.847   7.122   8.687 -2.1348  0.1167  1.3551
 9631SOL     OW29470   4.740   2.621   5.357  0.3337  0.1002 -0.4691
 9631SOL    HW129471   4.682   2.692   5.331 -0.1405 -0.2436 -0.3715
 9631SOL    HW229472   4.681   2.553   5.388  0.8546  0.2031  0.7724
 9632SOL     OW29473   4.854   6.502   1.670  0.8095  1.0537 -0.3724
 9632SOL    HW129474   4.840   6.552   1.750 -0.6487  1.0242 -0.5936
 9632SOL    HW229475   4.818   6.415   1.689  0.4937  1.0316 -1.0318
 9633SOL     OW29476   9.134   7.371   4.079 -0.2233 -0.8255 -0.5306
 9633SOL    HW129477   9.050   7.369   4.125  0.4284 -0.8368  0.6938
 9633SOL    HW229478   9.198   7.347   4.146  1.0475  1.4648 -0.8366
 9634SOL     OW29479   1.633   1.440   6.444  0.1648  0.0086 -0.4498
 9634SOL    HW129480   1.653   1.385   6.519  0.3475 -0.7558 -1.0539
 9634SOL    HW229481   1.639   1.382   6.369 -1.6972  0.3570 -0.9116
 9635SOL     OW29482   5.027   0.270   4.742  0.0424 -0.0114  0.7229
 9635SOL    HW129483   4.982   0.255   4.826 -0.4750 -2.9663  0.0050
 9635SOL    HW229484   5.120   0.269   4.765 -0.0730  2.4279  1.6543
 9636SOL     OW29485   6.992   2.897   8.323  0.0407 -0.4656  0.0391
 9636SOL    HW129486   7.003   2.966   8.388 -0.7369 -0.4989  0.2218
 9636SOL    HW229487   7.025   2.818   8.365 -0.3961 -0.4744  0.3748
 9637SOL     OW29488   8.046   5.586   4.071  0.3043 -0.0498 -0.5889
 9637SOL    HW129489   8.004   5.652   4.016  0.2818 -0.6902 -1.3557
 9637SOL    HW229490   8.134   5.578   4.035  0.5300  0.0600 -0.0616
 9638SOL     OW29491   4.531   0.123   9.011 -0.3697  0.2820 -0.1252
 9638SOL    HW129492   4.481   0.202   9.027 -0.5022  0.1687  0.0256
 9638SOL    HW229493   4.528   0.111   8.917 -3.2220 -1.3941  0.0584
 9639SOL     OW29494   9.162   0.914   0.572  0.1220  0.1333 -0.2561
 9639SOL    HW129495   9.169   0.941   0.481  0.9447 -0.4975 -0.3928
 9639SOL    HW229496   9.245   0.942   0.612 -0.5255  1.0562  0.4856
 9640SOL     OW29497   1.984   4.151   6.358 -0.4043  0.1757 -0.3732
 9640SOL    HW129498   1.910   4.125   6.304  0.7218  0.2071 -1.9978
 9640SOL    HW229499   2.046   4.191   6.297  0.8806  0.3428  0.9679
 9641SOL     OW29500   5.687   8.140   2.160  0.1165 -0.1083 -0.5656
 9641SOL    HW129501   5.596   8.161   2.180  0.1711 -0.3293 -0.0817
 9641SOL    HW229502   5.728   8.128   2.245  0.1972 -1.7073 -0.7969
 9642SOL     OW29503   1.129   1.301   3.683 -0.1307 -0.7073 -0.2956
 9642SOL    HW129504   1.213   1.273   3.647  0.7739 -0.0458  1.1919
 9642SOL    HW229505   1.065   1.244   3.642  0.8486 -0.2867 -2.5933
 9643SOL     OW29506   7.339   8.611   8.346  0.0098 -0.4829  0.2029
 9643SOL    HW129507   7.376   8.697   8.325  0.6177 -0.6857  0.4127
 9643SOL    HW229508   7.360   8.598   8.439 -0.6127 -0.5971  0.3313
 9644SOL     OW29509   5.929   2.566   5.464 -0.0308  0.0529  0.7239
 9644SOL    HW129510   5.846   2.604   5.437 -0.6338 -2.0732 -0.5650
 9644SOL    HW229511   5.977   2.551   5.383  0.8442 -0.4808  1.3204
 9645SOL     OW29512   1.773   6.093   7.048 -0.2629 -0.0052 -0.3296
 9645SOL    HW129513   1.679   6.110   7.053 -0.1944  1.2021 -1.9840
 9645SOL    HW229514   1.780   6.012   6.997 -0.4166  0.2665 -0.7940
 9646SOL     OW29515   7.070   6.789   0.290  0.6428  0.7976 -0.5446
 9646SOL    HW129516   7.106   6.704   0.317  0.5422  1.2732  1.2469
 9646SOL    HW229517   7.030   6.773   0.205  1.7828 -0.6311 -0.8512
 9647SOL     OW29518   4.747   8.949   4.558 -0.1169 -0.1526  0.6643
 9647SOL    HW129519   4.788   8.911   4.480  0.6500  2.6540 -0.4497
 9647SOL    HW229520   4.655   8.927   4.551  0.0031 -0.2627 -0.8850
 9648SOL     OW29521   3.020   8.462   3.036 -0.3828  0.5066 -0.4721
 9648SOL    HW129522   3.103   8.495   3.071  0.9064 -1.6389 -1.2688
 9648SOL    HW229523   2.972   8.433   3.114  0.0958  0.7324 -0.0830
 9649SOL     OW29524   8.271   2.511   8.694 -0.2422 -0.0528  0.0178
 9649SOL    HW129525   8.239   2.428   8.659  0.9363 -0.5341  0.0456
 9649SOL    HW229526   8.244   2.576   8.629 -1.7023 -0.3525  0.2931
 9650SOL     OW29527   4.016   7.355   0.997 -0.4160 -0.4331  0.3686
 9650SOL    HW129528   4.079   7.287   0.972 -0.6726 -0.3049 -0.7060
 9650SOL    HW229529   4.042   7.431   0.945  0.6364  0.7247  2.4723
 9651SOL     OW29530   5.245   9.176   8.404  0.0466  0.6039 -0.6225
 9651SOL    HW129531   5.174   9.119   8.432  1.7182 -1.6744 -0.7003
 9651SOL    HW229532   5.224   9.261   8.441 -0.7990 -0.8682  2.6107
 9652SOL     OW29533   8.716   5.126   1.067  0.0756 -0.4993  0.1732
 9652SOL    HW129534   8.670   5.082   0.996  1.4662 -0.3484 -0.8640
 9652SOL    HW229535   8.785   5.065   1.093  0.2436 -0.1124  0.6633
 9653SOL     OW29536   2.851   9.579   2.715  0.2096  0.0540  0.2666
 9653SOL    HW129537   2.926   9.638   2.705  0.7246 -0.4198  1.1557
 9653SOL    HW229538   2.856   9.551   2.807 -1.5850  0.7029  0.5977
 9654SOL     OW29539   1.496   5.595   0.391 -0.0432 -0.4486  0.1066
 9654SOL    HW129540   1.463   5.543   0.318  0.8445 -0.3452 -0.3942
 9654SOL    HW229541   1.443   5.569   0.466  0.6488 -2.4052 -0.0309
 9655SOL     OW29542   8.769   0.364   7.547  0.8003 -0.1420  0.8635
 9655SOL    HW129543   8.686   0.359   7.501  1.0338  2.5190 -0.0310
 9655SOL    HW229544   8.832   0.322   7.488  0.4903  0.0296  0.4104
 9656SOL     OW29545   2.732   3.718   5.383  0.0316  0.6610  0.0555
 9656SOL    HW129546   2.736   3.787   5.449 -1.4051  0.3985  0.4610
 9656SOL    HW229547   2.800   3.656   5.408  1.1865  1.7891 -0.1782
 9657SOL     OW29548   6.953   9.168   3.047 -0.4137  0.8734  0.6749
 9657SOL    HW129549   6.888   9.235   3.067 -1.5971 -0.0056 -0.0727
 9657SOL    HW229550   7.004   9.206   2.975 -1.6780  0.6322 -0.3822
 9658SOL     OW29551   0.926   0.969   0.636 -0.0506 -0.2787  0.2431
 9658SOL    HW129552   1.020   0.965   0.653  0.1850  0.8764 -0.6396
 9658SOL    HW229553   0.888   0.905   0.696  1.2449 -0.3874  0.9935
 9659SOL     OW29554   3.584   8.546   5.911  0.4054 -0.0810  0.7536
 9659SOL    HW129555   3.659   8.578   5.962  0.6898  0.7163 -0.1382
 9659SOL    HW229556   3.534   8.624   5.891 -0.5474 -0.5812  1.1271
 9660SOL     OW29557   0.700   5.491   7.543 -0.1997  0.1235  0.0778
 9660SOL    HW129558   0.650   5.537   7.475  1.0328  0.3179 -0.7291
 9660SOL    HW229559   0.638   5.428   7.580 -1.1937  0.7239 -0.5170
 9661SOL     OW29560   8.741   2.953   2.863  0.2775  0.8123  0.0781
 9661SOL    HW129561   8.798   2.997   2.925 -0.2303  1.3619  0.1730
 9661SOL    HW229562   8.798   2.928   2.791  1.5277 -2.6111  2.0268
 9662SOL     OW29563   7.115   8.312   1.623 -0.2508 -0.5841  0.5659
 9662SOL    HW129564   7.111   8.370   1.547 -0.1843 -0.0195  0.9822
 9662SOL    HW229565   7.207   8.287   1.630 -0.3494 -1.0887  0.1371
 9663SOL     OW29566   4.028   0.332   9.538  0.1738  0.6562 -0.1869
 9663SOL    HW129567   4.022   0.392   9.613  0.7027  1.1109 -0.4955
 9663SOL    HW229568   3.939   0.299   9.526  0.0273  0.7909  0.4663
 9664SOL     OW29569   5.504   8.384   4.835  0.7556 -0.2347 -0.1073
 9664SOL    HW129570   5.502   8.326   4.911  1.4382  0.3829  0.4118
 9664SOL    HW229571   5.415   8.385   4.802  0.6754 -1.3392  0.0470
 9665SOL     OW29572   6.649   4.976   4.186 -0.3804 -0.5253  0.6853
 9665SOL    HW129573   6.639   4.895   4.236 -1.7138 -0.2648  0.8628
 9665SOL    HW229574   6.743   4.997   4.193 -0.4032 -0.8838  2.4451
 9666SOL     OW29575   7.112   9.731   8.687 -0.2992  0.3944 -0.1049
 9666SOL    HW129576   7.121   9.785   8.608  0.1340 -1.6122 -1.4946
 9666SOL    HW229577   7.027   9.756   8.723  0.5171  3.0907  0.2195
 9667SOL     OW29578   2.471   8.141   7.968 -0.0723 -0.0271  0.1566
 9667SOL    HW129579   2.509   8.117   7.884  1.6824  1.9464  0.3172
 9667SOL    HW229580   2.402   8.203   7.945  0.7730  0.9376  0.1776
 9668SOL     OW29581   1.125   7.712   0.482 -0.6507 -0.7147  0.2356
 9668SOL    HW129582   1.208   7.670   0.460  1.3013  2.2314  1.2816
 9668SOL    HW229583   1.101   7.760   0.403  0.6744  1.2771  0.9361
 9669SOL     OW29584   5.948   4.670   6.927  0.1552  0.1017  0.8371
 9669SOL    HW129585   5.999   4.599   6.889  0.4074 -0.7798  2.7422
 9669SOL    HW229586   6.001   4.748   6.911  0.9487 -0.4595  0.6727
 9670SOL     OW29587   7.073   0.520   3.285  0.3281  0.6185  0.3638
 9670SOL    HW129588   6.984   0.533   3.318  0.7786  0.2581  1.7842
 9670SOL    HW229589   7.126   0.584   3.331  1.1416 -0.5619  1.1277
 9671SOL     OW29590   0.378   6.405   5.885  0.2079  0.2516 -0.0235
 9671SOL    HW129591   0.365   6.499   5.898 -0.4779  0.1385  0.1251
 9671SOL    HW229592   0.445   6.380   5.948  1.1199  0.8327 -0.7440
 9672SOL     OW29593   8.342   4.095   1.235 -0.1973 -0.3208 -0.4110
 9672SOL    HW129594   8.316   4.004   1.228  1.6720 -0.8155 -1.8906
 9672SOL    HW229595   8.370   4.106   1.326 -1.7439 -0.8003  0.1480
 9673SOL     OW29596   5.769   4.704   9.346 -0.4833 -0.1899  0.3871
 9673SOL    HW129597   5.708   4.778   9.343  0.4455  0.5842  0.4135
 9673SOL    HW229598   5.756   4.659   9.262 -1.3207 -0.2256  0.5260
 9674SOL     OW29599   2.373   2.887   7.060 -0.0330  0.3905 -0.6714
 9674SOL    HW129600   2.291   2.853   7.096 -0.0261  1.1923  0.1431
 9674SOL    HW229601   2.433   2.813   7.061  0.0048  0.4051  1.1299
 9675SOL     OW29602   6.484   9.025   6.438 -0.2732  0.7541  0.2564
 9675SOL    HW129603   6.513   9.004   6.349 -0.5125  2.3286 -0.2178
 9675SOL    HW229604   6.545   8.977   6.494 -1.6285 -2.2850 -0.6896
 9676SOL     OW29605   4.815   0.817   4.306 -0.4110 -0.0359 -0.0110
 9676SOL    HW129606   4.740   0.841   4.251 -0.4746 -1.0544 -0.3965
 9676SOL    HW229607   4.786   0.835   4.395 -1.5235 -1.3575 -0.0624
 9677SOL     OW29608   8.402   7.644   0.704  0.0113  0.0158 -0.2400
 9677SOL    HW129609   8.380   7.579   0.771  1.4384 -1.7114 -1.3270
 9677SOL    HW229610   8.351   7.721   0.727 -1.4481 -1.3463  1.3716
 9678SOL     OW29611   4.327   1.609   9.493 -0.3632  0.5110 -0.6007
 9678SOL    HW129612   4.368   1.696   9.490  0.3885  0.1727 -0.2797
 9678SOL    HW229613   4.395   1.550   9.462 -0.5698 -0.0805  0.0640
 9679SOL     OW29614   2.253   3.922   6.861  0.3472 -0.2105  0.3183
 9679SOL    HW129615   2.242   3.943   6.768  1.0853  0.2088  0.3181
 9679SOL    HW229616   2.174   3.955   6.903  1.2092  2.1033  0.2407
 9680SOL     OW29617   7.986   8.124   7.709 -0.2527 -0.0655  0.0811
 9680SOL    HW129618   7.952   8.202   7.664  1.2079  0.0963 -0.8339
 9680SOL    HW229619   7.910   8.067   7.719 -0.9099  0.5012 -1.3617
 9681SOL     OW29620   0.784   1.222   9.571 -0.2187 -0.3499 -0.1240
 9681SOL    HW129621   0.738   1.281   9.630  1.0541  0.3938  0.1747
 9681SOL    HW229622   0.773   1.135   9.610 -1.6773 -0.2575 -0.2872
 9682SOL     OW29623   5.565   5.156   4.761  0.6965 -0.1881 -0.1695
 9682SOL    HW129624   5.522   5.071   4.757  0.0141  0.1931 -1.4239
 9682SOL    HW229625   5.496   5.218   4.782  1.3263 -0.0091  1.5031
 9683SOL     OW29626   7.821   0.530   9.381  0.3270  0.1671 -0.1672
 9683SOL    HW129627   7.728   0.511   9.369  0.4326 -0.9347  0.6062
 9683SOL    HW229628   7.826   0.625   9.378 -1.1724  0.4049  1.9859
 9684SOL     OW29629   2.788   9.591   9.180 -0.4830 -0.8376 -0.3110
 9684SOL    HW129630   2.731   9.603   9.104  1.2227  0.2415 -1.4890
 9684SOL    HW229631   2.846   9.668   9.179  0.6913 -1.6468  1.0929
 9685SOL     OW29632   2.593   1.738   8.771  0.5272  0.1853  0.0609
 9685SOL    HW129633   2.502   1.755   8.747  0.3726  1.5830  1.4749
 9685SOL    HW229634   2.639   1.819   8.751  1.5969 -0.6505 -1.0668
 9686SOL     OW29635   7.182   7.580   6.950 -0.4418 -0.0285 -0.1533
 9686SOL    HW129636   7.118   7.649   6.932 -0.2027  1.3410  3.3810
 9686SOL    HW229637   7.133   7.498   6.939 -1.0275  0.6033 -3.3419
 9687SOL     OW29638   6.645   2.700   7.231  0.3152 -0.2571 -0.0850
 9687SOL    HW129639   6.603   2.775   7.273 -0.1714 -1.6769  2.1163
 9687SOL    HW229640   6.580   2.670   7.167  0.1769  0.6901 -0.4051
 9688SOL     OW29641   7.800   4.383   5.947  0.0678 -0.1339  0.4913
 9688SOL    HW129642   7.869   4.421   6.002  0.9590 -1.3839  0.3040
 9688SOL    HW229643   7.826   4.406   5.858  1.2799 -2.0636  0.2777
 9689SOL     OW29644   6.311   8.909   2.444  0.3664 -0.0601 -0.4798
 9689SOL    HW129645   6.384   8.947   2.394  0.5272 -0.2625 -0.4000
 9689SOL    HW229646   6.304   8.820   2.411  0.8233 -0.3629  0.2384
 9690SOL     OW29647   8.642   3.984   1.800  0.0087  0.2107 -0.1900
 9690SOL    HW129648   8.641   3.900   1.755 -3.8832 -0.3822  0.6263
 9690SOL    HW229649   8.624   3.962   1.892 -0.5577  1.8911  0.1422
 9691SOL     OW29650   5.881   2.826   1.708 -0.0788  0.3444  0.5564
 9691SOL    HW129651   5.865   2.739   1.744  3.8316 -0.9931 -0.4182
 9691SOL    HW229652   5.911   2.810   1.619  0.4115  2.7392  0.2267
 9692SOL     OW29653   8.271   7.097   5.814 -0.2036 -0.0614  0.3127
 9692SOL    HW129654   8.211   7.044   5.866  1.5147 -3.5466 -0.9130
 9692SOL    HW229655   8.333   7.133   5.877 -1.2426  0.2959  1.1548
 9693SOL     OW29656   1.480   2.290   4.877  0.5988 -0.0208 -0.2902
 9693SOL    HW129657   1.479   2.370   4.824  0.4003  2.0493  2.5511
 9693SOL    HW229658   1.415   2.307   4.946  1.6262 -1.9887  1.2637
 9694SOL     OW29659   2.788   6.948   1.428 -0.1452 -0.5542 -0.6516
 9694SOL    HW129660   2.868   6.916   1.386  0.1440 -1.5600  0.5986
 9694SOL    HW229661   2.782   7.040   1.403  1.1954 -0.5664 -1.0570
 9695SOL     OW29662   6.740   8.630   7.709 -0.3080 -0.0816  0.0436
 9695SOL    HW129663   6.762   8.696   7.643  0.0075  0.3283  0.5520
 9695SOL    HW229664   6.722   8.681   7.788  4.8864 -0.6558  1.9930
 9696SOL     OW29665   2.569   2.819   8.596 -0.3321 -0.2642 -0.1167
 9696SOL    HW129666   2.592   2.731   8.624 -0.0873 -0.4069 -0.7437
 9696SOL    HW229667   2.641   2.874   8.629 -0.0517 -0.4282 -0.4432
 9697SOL     OW29668   3.091   2.887   3.629  0.4703 -0.4932 -0.4331
 9697SOL    HW129669   3.053   2.809   3.670  0.5177 -0.7583 -0.8864
 9697SOL    HW229670   3.051   2.960   3.675  0.6049 -0.7879  0.1584
 9698SOL     OW29671   2.541   8.627   6.521 -0.2222 -0.3567  0.0619
 9698SOL    HW129672   2.543   8.534   6.541  2.1145 -0.1056  1.2944
 9698SOL    HW229673   2.601   8.638   6.447  0.7540  0.3296  0.9252
 9699SOL     OW29674   4.096   0.541   5.145  0.3505  0.0972  0.3409
 9699SOL    HW129675   4.069   0.468   5.089 -1.0205 -0.5041  1.7030
 9699SOL    HW229676   4.151   0.500   5.212  0.1990  0.4429  0.6776
 9700SOL     OW29677   0.626   5.747   4.020  0.0345 -0.2800 -0.1712
 9700SOL    HW129678   0.721   5.747   4.009  0.2118 -0.3032  1.1261
 9700SOL    HW229679   0.612   5.699   4.102 -0.9025  1.6568  0.8779
 9701SOL     OW29680   3.858   8.130   3.860  0.4439  0.9921  0.7876
 9701SOL    HW129681   3.839   8.110   3.768 -2.4830 -0.9836  1.6665
 9701SOL    HW229682   3.927   8.068   3.884 -2.0318 -1.9676  0.9743
 9702SOL     OW29683   7.474   4.361   2.759  0.2361 -0.2875 -0.4417
 9702SOL    HW129684   7.464   4.445   2.803  2.1431 -0.6668  0.8614
 9702SOL    HW229685   7.517   4.305   2.824  2.3130 -1.1919 -2.4624
 9703SOL     OW29686   8.070   2.754   3.549 -0.1710  0.5001  0.2998
 9703SOL    HW129687   7.998   2.730   3.607 -0.2931 -2.1713 -0.8083
 9703SOL    HW229688   8.029   2.800   3.477 -0.7063 -0.3935  0.0201
 9704SOL     OW29689   3.910   6.074   8.106 -0.2956 -0.0479  0.0632
 9704SOL    HW129690   3.816   6.070   8.125 -0.4827  0.2804 -0.7187
 9704SOL    HW229691   3.953   6.057   8.189 -1.0488  1.1300  0.7134
 9705SOL     OW29692   5.007   2.942   1.764 -0.3213 -0.1340 -0.1497
 9705SOL    HW129693   5.051   2.996   1.699 -2.7706  0.2187 -1.6184
 9705SOL    HW229694   4.929   2.908   1.720 -1.7643 -0.3975  2.3926
 9706SOL     OW29695   8.300   1.772   2.687 -0.3779  0.1420 -0.1604
 9706SOL    HW129696   8.270   1.829   2.758 -0.0701 -0.0423  0.1181
 9706SOL    HW229697   8.279   1.684   2.716 -1.3420  0.1284 -0.8249
 9707SOL     OW29698   3.287   6.724   3.475  0.1597  0.0687 -0.5174
 9707SOL    HW129699   3.376   6.737   3.442  0.2808 -2.6873 -1.5925
 9707SOL    HW229700   3.237   6.798   3.440  2.0932  2.0471  0.6871
 9708SOL     OW29701   0.119   5.463   2.065 -0.0679 -0.1043  0.0889
 9708SOL    HW129702   0.157   5.466   1.977  2.0943 -0.2717  0.9754
 9708SOL    HW229703   0.145   5.378   2.100 -0.4534  0.1773  1.0873
 9709SOL     OW29704   6.134   5.251   8.489  0.2611 -0.5523 -0.7952
 9709SOL    HW129705   6.137   5.228   8.396  0.2070  2.3395 -1.6064
 9709SOL    HW229706   6.044   5.280   8.504  0.0695 -1.6604  0.3999
 9710SOL     OW29707   8.461   5.861   9.144 -0.2505  0.3125  0.1603
 9710SOL    HW129708   8.465   5.814   9.060  0.0232  0.7412 -0.0690
 9710SOL    HW229709   8.404   5.936   9.126 -1.1589 -0.2345  0.6809
 9711SOL     OW29710   7.671   6.218   8.477 -0.2514  0.1159  0.7809
 9711SOL    HW129711   7.611   6.212   8.403  0.2222 -0.8492  0.4498
 9711SOL    HW229712   7.758   6.217   8.438  0.0008 -0.2751  1.3379
 9712SOL     OW29713   9.568   2.590   2.385  0.1017 -0.5336 -0.4439
 9712SOL    HW129714   9.506   2.529   2.347  1.2998 -2.1037 -0.0099
 9712SOL    HW229715   9.516   2.667   2.409 -1.7582 -1.9681  0.3431
 9713SOL     OW29716   4.389   5.447   7.696  0.0215 -0.1615 -0.8569
 9713SOL    HW129717   4.420   5.481   7.612 -0.6289 -0.3814 -1.1991
 9713SOL    HW229718   4.321   5.509   7.723 -1.5017 -1.3983 -1.7162
 9714SOL     OW29719   7.247   0.361   2.062 -0.3659  0.6987  0.5627
 9714SOL    HW129720   7.316   0.428   2.069 -0.0376  0.3515  0.6977
 9714SOL    HW229721   7.286   0.294   2.005  0.0645 -0.3076  1.9901
 9715SOL     OW29722   8.219   2.024   8.134 -0.3312  0.0267  0.3310
 9715SOL    HW129723   8.233   2.075   8.213 -1.6488 -0.9129  1.2209
 9715SOL    HW229724   8.174   2.084   8.074  1.1856  0.9146  0.0422
 9716SOL     OW29725   2.452   6.597   9.730 -0.1466 -0.3640 -0.2237
 9716SOL    HW129726   2.472   6.528   9.794 -0.5579 -0.3898 -0.1203
 9716SOL    HW229727   2.492   6.675   9.767 -1.9186  0.0313  1.0204
 9717SOL     OW29728   2.599   7.020   7.481  0.1304  0.2179 -0.4034
 9717SOL    HW129729   2.556   6.965   7.547  0.9747 -0.6384 -0.5449
 9717SOL    HW229730   2.527   7.065   7.437 -0.4772  0.3881  0.7365
 9718SOL     OW29731   8.488   2.172   2.121 -0.0207  0.2775  0.3527
 9718SOL    HW129732   8.465   2.244   2.181 -3.3545 -0.8999  0.7476
 9718SOL    HW229733   8.417   2.109   2.133  0.5280 -1.1788 -3.0364
 9719SOL     OW29734   2.653   9.248   7.936 -0.1699  0.6138 -0.0880
 9719SOL    HW129735   2.657   9.334   7.977  0.8014 -0.2148  1.6481
 9719SOL    HW229736   2.742   9.213   7.943 -0.6143 -0.6689 -0.4494
 9720SOL     OW29737   4.219   2.945   8.692  0.3412  0.2773  0.2366
 9720SOL    HW129738   4.181   2.937   8.779 -0.7363 -2.6116 -0.4236
 9720SOL    HW229739   4.159   3.003   8.644  0.1707  0.7056  0.9580
 9721SOL     OW29740   7.387   5.862   8.476 -0.4604 -0.4251 -0.5137
 9721SOL    HW129741   7.368   5.888   8.386 -1.4545  0.5096 -0.0491
 9721SOL    HW229742   7.401   5.944   8.522  0.0465 -0.9004  0.1928
 9722SOL     OW29743   8.566   4.785   4.078 -0.2590  0.4692  0.0760
 9722SOL    HW129744   8.643   4.843   4.080 -0.2571  0.4512  0.7985
 9722SOL    HW229745   8.585   4.723   4.007 -0.6140  1.8138 -1.2474
 9723SOL     OW29746   5.841   4.146   9.460  0.6170 -0.1835 -0.0917
 9723SOL    HW129747   5.821   4.081   9.527 -0.1976  2.0720  2.0023
 9723SOL    HW229748   5.766   4.142   9.400  1.0538 -1.8050 -0.5569
 9724SOL     OW29749   1.200   5.833   5.877  0.0322  0.2750  0.1258
 9724SOL    HW129750   1.182   5.745   5.844 -0.8254  0.9469 -1.2548
 9724SOL    HW229751   1.139   5.845   5.950  1.1634 -0.7895  1.3113
 9725SOL     OW29752   3.796   0.140   1.449  0.3470  0.1200  0.1690
 9725SOL    HW129753   3.826   0.084   1.377  2.7176  0.2552  0.9462
 9725SOL    HW229754   3.791   0.228   1.411  0.9363  0.0831 -0.0017
 9726SOL     OW29755   4.656   2.713   9.433  0.7144  0.1979 -0.2344
 9726SOL    HW129756   4.721   2.776   9.402  1.2987  0.6134  1.6755
 9726SOL    HW229757   4.586   2.767   9.469  0.9908 -0.2245  0.9647
 9727SOL     OW29758   1.308   5.655   4.710 -0.4050 -0.4359  0.6336
 9727SOL    HW129759   1.356   5.575   4.731 -0.5245 -0.6584  0.0763
 9727SOL    HW229760   1.285   5.645   4.618 -0.8240  0.0358  0.6867
 9728SOL     OW29761   4.415   5.015   9.183 -0.9070  0.6818 -0.4312
 9728SOL    HW129762   4.359   5.085   9.217 -2.5328 -0.2623 -1.0143
 9728SOL    HW229763   4.365   4.980   9.109  0.6322 -0.0101 -1.1741
 9729SOL     OW29764   3.262   1.930   4.505  0.1166  0.4633  0.4712
 9729SOL    HW129765   3.230   1.971   4.424 -1.1342  0.5561  0.9737
 9729SOL    HW229766   3.292   2.004   4.559 -2.6831  0.9052  1.6130
 9730SOL     OW29767   4.613   5.737   2.901  0.2679  0.2483 -0.1390
 9730SOL    HW129768   4.661   5.655   2.914  0.2649  0.2016 -0.4139
 9730SOL    HW229769   4.630   5.760   2.809  0.4582  0.6755  0.0003
 9731SOL     OW29770   6.839   6.711   2.230 -0.0509  0.1661  0.1209
 9731SOL    HW129771   6.848   6.770   2.306  0.4063 -0.1855  0.3467
 9731SOL    HW229772   6.865   6.765   2.155  1.3906 -0.0326  0.4518
 9732SOL     OW29773   1.498   1.068   7.557  0.7313  0.3437 -0.1214
 9732SOL    HW129774   1.428   1.008   7.583  0.4294  0.5639 -0.4221
 9732SOL    HW229775   1.577   1.029   7.594  0.2491  0.9596  1.6483
 9733SOL     OW29776   8.629   0.530   6.157  0.4788  0.0086  0.1306
 9733SOL    HW129777   8.609   0.441   6.187 -0.4962  0.4254  0.7494
 9733SOL    HW229778   8.545   0.575   6.156  0.9804  0.9672 -0.0491
 9734SOL     OW29779   5.108   5.533   0.366 -0.3925 -0.2536 -0.0134
 9734SOL    HW129780   5.161   5.487   0.301 -0.3138 -0.2888  0.0749
 9734SOL    HW229781   5.031   5.563   0.318  0.6017  1.4626 -0.5808
 9735SOL     OW29782   8.267   1.801   2.368  0.0269 -0.2813 -0.1805
 9735SOL    HW129783   8.224   1.826   2.450 -1.3148  0.7619 -1.1461
 9735SOL    HW229784   8.212   1.731   2.333  1.3001 -1.6091  0.3744
 9736SOL     OW29785   4.780   1.921   9.332 -0.0453  0.4189  0.5557
 9736SOL    HW129786   4.801   1.880   9.416  1.3853  0.5425  0.2902
 9736SOL    HW229787   4.691   1.893   9.313  1.0011 -3.0693  0.1120
 9737SOL     OW29788   0.460   7.693   0.795 -0.2330  0.0177  0.5186
 9737SOL    HW129789   0.449   7.619   0.855 -0.2609 -0.1496  0.3070
 9737SOL    HW229790   0.481   7.653   0.711 -1.4290  0.1989  0.1181
 9738SOL     OW29791   2.633   3.768   8.097  0.1230  0.7333  0.1977
 9738SOL    HW129792   2.557   3.816   8.067  0.9506  1.9543 -0.0309
 9738SOL    HW229793   2.654   3.808   8.182  0.2216  0.0905  0.4772
 9739SOL     OW29794   3.516   1.512   1.731  0.0064  0.0406 -0.4393
 9739SOL    HW129795   3.550   1.597   1.759  0.0924 -0.8186  2.3389
 9739SOL    HW229796   3.593   1.456   1.723 -0.3022 -0.6246  1.0393
 9740SOL     OW29797   6.147   8.674   8.847  0.1393  0.7091  0.4861
 9740SOL    HW129798   6.110   8.649   8.931 -0.5982 -1.0094 -0.3020
 9740SOL    HW229799   6.120   8.604   8.787 -0.1018  2.3081 -1.3791
 9741SOL     OW29800   1.575   1.806   3.056 -0.1997  0.2373  0.5687
 9741SOL    HW129801   1.511   1.814   3.126 -1.0965 -0.1905 -0.1914
 9741SOL    HW229802   1.580   1.894   3.018 -1.1733  0.0308 -0.0777
 9742SOL     OW29803   9.156   1.422   6.738  0.3513  0.1857  0.4707
 9742SOL    HW129804   9.180   1.353   6.677 -0.8935 -0.2356  0.4134
 9742SOL    HW229805   9.163   1.380   6.824 -0.1575  0.0438  0.4507
 9743SOL     OW29806   7.869   0.180   0.077  0.4833  0.0012 -0.9246
 9743SOL    HW129807   7.949   0.181   0.025  1.5485  0.3106  0.6728
 9743SOL    HW229808   7.819   0.107   0.042  1.7366 -0.5875 -1.5429
 9744SOL     OW29809   3.062   1.063   4.908 -0.3875  0.5573  0.4648
 9744SOL    HW129810   2.977   1.081   4.869 -0.9512 -0.3529  1.1977
 9744SOL    HW229811   3.124   1.119   4.861 -1.1505  0.1124 -1.1316
 9745SOL     OW29812   9.817   3.974   3.040  0.3814  0.6285 -0.9701
 9745SOL    HW129813   9.896   4.023   3.063  2.0724 -1.7280 -1.2732
 9745SOL    HW229814   9.820   3.896   3.097 -3.6248  1.9567  1.5019
 9746SOL     OW29815   9.302   5.623   7.857  0.1399 -0.1990 -0.5383
 9746SOL    HW129816   9.306   5.543   7.804 -2.8433 -1.3294  0.7315
 9746SOL    HW229817   9.356   5.603   7.934 -1.1654 -1.3737  0.1265
 9747SOL     OW29818   6.808   3.824   7.208  0.1170 -0.4156 -0.1618
 9747SOL    HW129819   6.820   3.917   7.189 -4.6156  0.2490 -1.1085
 9747SOL    HW229820   6.793   3.784   7.123 -0.7196 -1.4898  0.4673
 9748SOL     OW29821   1.743   2.548   0.439 -0.5037  0.1142  0.4925
 9748SOL    HW129822   1.737   2.559   0.344  0.4605  1.6574  0.5784
 9748SOL    HW229823   1.796   2.469   0.450  1.5393  1.2904 -0.3189
 9749SOL     OW29824   1.670   8.028   2.925  0.0846  0.2959  0.2864
 9749SOL    HW129825   1.690   7.996   3.013  1.4888 -1.5114 -0.6375
 9749SOL    HW229826   1.735   8.096   2.909  0.5805 -0.1880  0.2198
 9750SOL     OW29827   5.711   1.939   0.265 -0.8047 -0.6920  0.3261
 9750SOL    HW129828   5.794   1.978   0.290  0.0326 -1.8540 -0.5452
 9750SOL    HW229829   5.649   1.971   0.331  0.3514  0.0687  1.0856
 9751SOL     OW29830   5.614   5.708   3.638  0.0019  0.8702 -0.0849
 9751SOL    HW129831   5.592   5.621   3.671 -0.9240  1.1567  0.1026
 9751SOL    HW229832   5.632   5.695   3.545  3.0707 -0.0139  0.5381
 9752SOL     OW29833   0.964   9.031   7.643 -0.0057 -0.3604 -0.1488
 9752SOL    HW129834   1.036   9.074   7.597 -1.3146  1.4250 -0.6510
 9752SOL    HW229835   0.980   9.050   7.736 -0.2701  0.7982 -0.3251
 9753SOL     OW29836   5.769   4.482   6.201  0.1702 -0.8631 -0.3408
 9753SOL    HW129837   5.831   4.415   6.229  0.1785 -0.5841  0.3170
 9753SOL    HW229838   5.819   4.563   6.204  0.1080 -0.7979 -0.9619
 9754SOL     OW29839   5.341   5.717   5.739 -0.3732  0.0606  0.6656
 9754SOL    HW129840   5.410   5.759   5.790 -0.3435 -1.0443  1.5629
 9754SOL    HW229841   5.329   5.631   5.780 -1.1043 -0.4301 -0.5234
 9755SOL     OW29842   9.164   2.234  -0.010  0.3863 -0.4749 -0.6724
 9755SOL    HW129843   9.081   2.281  -0.012 -0.5088 -1.9000  0.7273
 9755SOL    HW229844   9.205   2.261   0.072  0.9605 -0.3620 -0.9903
 9756SOL     OW29845   0.499   3.855   3.933 -0.4724  0.5516  0.4380
 9756SOL    HW129846   0.573   3.908   3.902 -0.3778  0.6149  0.7638
 9756SOL    HW229847   0.422   3.909   3.915 -0.2436  1.6830  2.5102
 9757SOL     OW29848   9.394   4.005   1.338  0.5188  0.3968 -0.5630
 9757SOL    HW129849   9.317   4.034   1.288 -0.9403  0.8824  1.7994
 9757SOL    HW229850   9.386   3.910   1.342 -0.4000  0.5020  0.3025
 9758SOL     OW29851   4.550   6.183   5.881 -0.3110 -0.3385  0.0536
 9758SOL    HW129852   4.633   6.140   5.862 -0.0361 -0.3318  1.1979
 9758SOL    HW229853   4.495   6.114   5.918 -0.9461 -0.4223 -1.0006
 9759SOL     OW29854   3.250   9.629   6.566  0.2529 -0.2854  0.0122
 9759SOL    HW129855   3.267   9.665   6.480  0.4247 -3.2451 -1.3196
 9759SOL    HW229856   3.335   9.628   6.610  0.0983  1.5787  0.4453
 9760SOL     OW29857   2.030   5.968   1.637  0.0085  0.0866 -0.2897
 9760SOL    HW129858   2.030   5.901   1.706 -0.8583 -1.3934 -1.6600
 9760SOL    HW229859   2.072   5.925   1.563 -2.9942  0.0014 -2.0998
 9761SOL     OW29860   2.749   8.882   7.769  0.2501 -0.5287  0.0571
 9761SOL    HW129861   2.746   8.845   7.858 -0.5564  2.1350  1.2527
 9761SOL    HW229862   2.841   8.880   7.745  0.9233  1.1670  2.1571
 9762SOL     OW29863   8.296   9.684   0.806  0.3993 -0.4832  0.1782
 9762SOL    HW129864   8.257   9.674   0.719 -1.6164 -0.4950  1.0525
 9762SOL    HW229865   8.366   9.749   0.794 -1.0556  0.9106 -1.0862
 9763SOL     OW29866   2.278   0.552   1.981  0.1613  0.1572  0.7079
 9763SOL    HW129867   2.273   0.618   1.912 -0.5158 -1.1895 -0.5609
 9763SOL    HW229868   2.202   0.571   2.037 -1.0235 -0.5328 -0.6015
 9764SOL     OW29869   1.671   3.352   8.203  0.5011  0.1159  0.6899
 9764SOL    HW129870   1.587   3.367   8.161  0.1629 -1.8985  0.5517
 9764SOL    HW229871   1.660   3.384   8.293  0.9029  3.4896 -0.3072
 9765SOL     OW29872   5.318   6.362   3.709  0.1647 -0.1938 -0.1951
 9765SOL    HW129873   5.289   6.340   3.620 -2.0111 -0.3608  0.4964
 9765SOL    HW229874   5.274   6.445   3.729 -1.0393 -1.1455  1.4100
 9766SOL     OW29875   7.027   9.239   6.833 -0.0937 -0.1348  0.1651
 9766SOL    HW129876   7.034   9.300   6.907  1.9566 -1.4785  1.1771
 9766SOL    HW229877   7.067   9.158   6.865 -2.6271 -2.0590 -1.1369
 9767SOL     OW29878   3.016   6.943   4.138 -0.2705 -0.0417 -0.1039
 9767SOL    HW129879   2.990   7.035   4.124 -0.0638 -0.1149 -1.0335
 9767SOL    HW229880   2.934   6.898   4.157 -0.1333  0.7248  2.7933
 9768SOL     OW29881   1.065   5.398   1.140 -0.2262  0.6734  0.3626
 9768SOL    HW129882   0.972   5.404   1.157 -0.2547  1.5308 -0.0364
 9768SOL    HW229883   1.087   5.306   1.155 -1.0748  0.5257  0.7212
 9769SOL     OW29884   1.657   7.649   9.629 -0.1372 -0.4026 -0.3436
 9769SOL    HW129885   1.600   7.717   9.594 -0.8682 -0.5318  0.5593
 9769SOL    HW229886   1.743   7.668   9.591 -0.5405  0.4441 -0.8637
 9770SOL     OW29887   4.619   2.052   1.938 -0.5519  0.4046 -0.1362
 9770SOL    HW129888   4.550   2.061   1.872 -1.8930  1.1134  1.2868
 9770SOL    HW229889   4.605   2.127   1.997 -0.0375 -0.7350  1.4942
 9771SOL     OW29890   2.726   1.898   3.939  0.5217 -0.0430  0.1788
 9771SOL    HW129891   2.675   1.818   3.927  1.3119 -0.2570 -2.1578
 9771SOL    HW229892   2.661   1.965   3.963 -0.1985 -1.2229  1.7231
 9772SOL     OW29893   8.122   4.814   5.706 -0.2801 -0.0123  0.0472
 9772SOL    HW129894   8.057   4.874   5.670 -0.9091 -0.3849  0.5403
 9772SOL    HW229895   8.089   4.727   5.685  0.3223 -0.1998 -0.1431
 9773SOL     OW29896   6.940   6.382   7.788 -0.1640  0.0168 -0.6167
 9773SOL    HW129897   6.908   6.319   7.723  0.5066 -2.3460  1.2143
 9773SOL    HW229898   7.018   6.421   7.748  1.5583 -3.0149 -0.4877
 9774SOL     OW29899   9.343   1.872   2.464 -0.5222 -0.4038  0.0524
 9774SOL    HW129900   9.407   1.936   2.494  0.8306 -1.4433 -0.4838
 9774SOL    HW229901   9.279   1.924   2.414  0.2212  0.5991  0.1055
 9775SOL     OW29902   0.739   4.909   3.536 -0.1575 -0.0495  0.5078
 9775SOL    HW129903   0.658   4.913   3.588 -0.7600  1.5596 -0.4840
 9775SOL    HW229904   0.717   4.953   3.454  0.7510 -2.5295 -1.2051
 9776SOL     OW29905   8.183   7.649   7.362 -0.1791 -0.2671  0.2003
 9776SOL    HW129906   8.188   7.623   7.454  0.2630 -2.0975 -0.2889
 9776SOL    HW229907   8.269   7.685   7.343 -0.3939  0.4710  0.5855
 9777SOL     OW29908   8.675   4.956   5.267 -0.3486 -0.0529 -0.2904
 9777SOL    HW129909   8.629   5.031   5.305  1.0064  0.8527 -0.3504
 9777SOL    HW229910   8.632   4.942   5.183 -0.8746  0.4080 -0.1047
 9778SOL     OW29911   6.879   2.508   8.363 -0.7986 -0.1677 -0.3489
 9778SOL    HW129912   6.851   2.464   8.443  0.0225 -0.8062 -0.4087
 9778SOL    HW229913   6.962   2.550   8.385  0.2999 -1.7223 -1.2833
 9779SOL     OW29914   1.499   7.111   3.232 -0.2777 -0.4132 -0.3265
 9779SOL    HW129915   1.409   7.099   3.262 -1.1106  1.0666 -2.0127
 9779SOL    HW229916   1.520   7.202   3.255  0.3381 -0.3715 -1.0259
 9780SOL     OW29917   2.788   9.071   1.467  0.3750  0.2867  0.1311
 9780SOL    HW129918   2.872   9.027   1.457  2.0643  3.3435 -0.3600
 9780SOL    HW229919   2.730   9.028   1.404  1.2547 -2.3756  0.9884
 9781SOL     OW29920   4.831   8.321   8.132  0.0844  0.0094  0.0813
 9781SOL    HW129921   4.908   8.273   8.163  0.2990 -1.2164 -2.1295
 9781SOL    HW229922   4.867   8.402   8.094  0.3305 -0.5900 -1.0042
 9782SOL     OW29923   4.390   7.328   0.217 -0.1513 -0.0938 -0.0724
 9782SOL    HW129924   4.402   7.297   0.307 -0.6220  0.3765  0.1528
 9782SOL    HW229925   4.364   7.419   0.225  0.4046  0.1343 -0.7121
 9783SOL     OW29926   3.346   6.241   6.921 -0.0895 -0.6854 -0.1316
 9783SOL    HW129927   3.339   6.313   6.859  0.3574 -1.2640 -0.8645
 9783SOL    HW229928   3.353   6.283   7.006 -1.4351  0.1146 -0.3880
 9784SOL     OW29929   5.439   8.457   9.310 -0.0328 -0.0836 -0.3433
 9784SOL    HW129930   5.505   8.391   9.290 -0.0665 -0.2119 -0.0279
 9784SOL    HW229931   5.367   8.408   9.349 -0.0627  0.1371 -0.1204
 9785SOL     OW29932   5.727   2.016   4.521  0.3165 -0.4688  0.2817
 9785SOL    HW129933   5.645   1.975   4.493 -0.3346  0.2387  1.0804
 9785SOL    HW229934   5.795   1.961   4.485 -0.5175 -1.0831 -0.3927
 9786SOL     OW29935   8.721   8.624   9.126  0.3523 -0.2085 -0.0669
 9786SOL    HW129936   8.816   8.615   9.132  0.4219  0.2942 -0.3564
 9786SOL    HW229937   8.689   8.534   9.128  0.7917 -0.3633  0.6156
 9787SOL     OW29938   9.175   6.492   9.367 -0.0714 -0.4730  0.8870
 9787SOL    HW129939   9.250   6.438   9.345 -0.5471 -1.0338  0.5961
 9787SOL    HW229940   9.099   6.438   9.345 -0.5611  0.0489  1.2440
 9788SOL     OW29941   9.843   1.219   2.604  0.3166 -0.1578  0.3137
 9788SOL    HW129942   9.804   1.165   2.535  0.3892  0.4870 -0.2321
 9788SOL    HW229943   9.934   1.191   2.607 -0.0399 -1.3155  1.2529
 9789SOL     OW29944   0.198   6.357   6.967 -0.2894 -0.2321  0.0447
 9789SOL    HW129945   0.153   6.380   7.048  2.1576 -3.1125  2.5085
 9789SOL    HW229946   0.132   6.313   6.914 -1.7768  1.0678  0.7710
 9790SOL     OW29947   7.260   7.273   3.301 -0.4184 -0.5279 -0.0244
 9790SOL    HW129948   7.298   7.286   3.214 -0.9921  0.7591 -0.1108
 9790SOL    HW229949   7.318   7.210   3.343  0.1696 -0.7722 -1.1517
 9791SOL     OW29950   3.713   2.591   5.857  0.3261  0.0476 -0.2883
 9791SOL    HW129951   3.808   2.583   5.858  0.4406  0.5735  2.6069
 9791SOL    HW229952   3.687   2.582   5.949 -2.3968  0.2976 -0.9359
 9792SOL     OW29953   0.705   6.118   9.769 -0.3548 -0.1699  0.3041
 9792SOL    HW129954   0.642   6.182   9.803  0.0492 -0.2612  1.2479
 9792SOL    HW229955   0.707   6.049   9.835  1.1652  0.1107  0.5951
 9793SOL     OW29956   7.558   4.635   2.060 -0.0496 -0.2738 -0.1287
 9793SOL    HW129957   7.555   4.586   1.978 -1.9585 -0.9863  0.3227
 9793SOL    HW229958   7.576   4.570   2.127 -1.1979 -0.1787  0.3048
 9794SOL     OW29959   7.323   9.285   9.770  0.5960 -0.3999  0.6131
 9794SOL    HW129960   7.416   9.267   9.751  0.3981 -1.6191  0.6846
 9794SOL    HW229961   7.277   9.207   9.739 -0.6462  0.9140 -1.0687
 9795SOL     OW29962   7.488   0.014   1.440 -0.2329  0.5122 -0.2620
 9795SOL    HW129963   7.561   0.077   1.435  1.6687 -1.4765  0.7438
 9795SOL    HW229964   7.489  -0.029   1.354 -0.5178  0.7940 -0.4064
 9796SOL     OW29965   0.207   5.161   5.650 -0.5468  0.0170  0.1175
 9796SOL    HW129966   0.214   5.256   5.641 -1.4034 -0.0888 -2.6052
 9796SOL    HW229967   0.122   5.139   5.611  0.4833 -2.0273 -1.1669
 9797SOL     OW29968   5.284   3.435   7.919  0.3838  0.7207 -0.3263
 9797SOL    HW129969   5.277   3.504   7.985 -1.1541  1.4323 -1.1900
 9797SOL    HW229970   5.214   3.454   7.857  0.9073 -0.7473 -1.4137
 9798SOL     OW29971   3.836   5.408   0.753 -0.4197  0.6015  0.1630
 9798SOL    HW129972   3.914   5.423   0.701 -0.3697 -0.1900  0.0052
 9798SOL    HW229973   3.853   5.327   0.801 -1.3797  0.0686 -0.3511
 9799SOL     OW29974   9.734   9.442   3.842 -0.3932 -0.5840  0.0246
 9799SOL    HW129975   9.755   9.380   3.912  0.7301 -0.4969 -0.2186
 9799SOL    HW229976   9.679   9.392   3.782 -0.8704 -0.8378  0.6549
 9800SOL     OW29977   2.444   3.962   8.016  0.2222 -0.5921  0.5224
 9800SOL    HW129978   2.531   3.988   7.984 -0.4201  0.0949 -0.7553
 9800SOL    HW229979   2.432   4.012   8.096  1.1010 -0.8856  0.8519
 9801SOL     OW29980   3.437   0.005   8.631  0.8854 -0.2061  0.6203
 9801SOL    HW129981   3.532   0.008   8.641  1.0457  0.9926 -0.8225
 9801SOL    HW229982   3.407   0.085   8.673  0.3910 -1.0588  1.9363
 9802SOL     OW29983   1.978   5.729   6.393  0.2693 -0.9721  0.1773
 9802SOL    HW129984   1.937   5.744   6.308  1.3677  0.2845 -0.1547
 9802SOL    HW229985   2.012   5.639   6.387 -0.7493 -1.3524 -0.2222
 9803SOL     OW29986   1.548   6.366   6.023  0.4432 -0.0483  0.7097
 9803SOL    HW129987   1.545   6.358   6.118 -1.3578 -2.2220  0.5667
 9803SOL    HW229988   1.566   6.277   5.992  0.0945  0.4425 -0.9838
 9804SOL     OW29989   7.169   5.901   4.195 -0.1008 -0.4234  0.2423
 9804SOL    HW129990   7.235   5.896   4.126 -1.0870 -0.4161 -0.7373
 9804SOL    HW229991   7.112   5.825   4.180  0.1267 -0.8709  1.5512
 9805SOL     OW29992   4.629   7.799   0.181  0.1102 -0.3250 -0.0339
 9805SOL    HW129993   4.556   7.737   0.171  1.0138 -1.3767 -0.2951
 9805SOL    HW229994   4.624   7.826   0.273  1.2505 -2.8362  0.8543
 9806SOL     OW29995   1.807   4.152   5.294  0.0620 -1.3362 -0.3628
 9806SOL    HW129996   1.725   4.140   5.343 -0.4999 -1.0109 -1.2129
 9806SOL    HW229997   1.866   4.087   5.332  0.5585  0.6606  2.6867
 9807SOL     OW29998   8.420   5.721   2.081 -1.0420  0.9414  0.1235
 9807SOL    HW129999   8.342   5.680   2.044 -1.0432  0.6621  0.4342
 9807SOL    HW230000   8.403   5.726   2.175 -1.1749  1.9480  0.0517
 9808SOL     OW30001   2.618   6.942   8.974  0.2662  0.8128 -0.1171
 9808SOL    HW130002   2.694   6.920   9.027 -0.8979  0.2758  1.3987
 9808SOL    HW230003   2.564   6.998   9.030 -1.7269 -1.0030 -0.0849
 9809SOL     OW30004   4.303   7.203   5.955  0.6910  0.4156 -0.0743
 9809SOL    HW130005   4.291   7.296   5.975  1.3193  0.4278  0.2514
 9809SOL    HW230006   4.384   7.200   5.904  1.1725 -0.0524  0.7074
 9810SOL     OW30007   6.692   3.025   3.736 -0.0288  0.3786 -0.4423
 9810SOL    HW130008   6.723   3.116   3.731 -0.5032  0.7852  2.2293
 9810SOL    HW230009   6.702   3.002   3.828 -1.7940 -1.6091 -0.6684
 9811SOL     OW30010   6.556   5.249   9.049  0.4830  0.4875 -0.5902
 9811SOL    HW130011   6.624   5.191   9.014 -0.8188 -1.3154 -0.2643
 9811SOL    HW230012   6.589   5.275   9.135 -0.6280 -3.2368  1.1721
 9812SOL     OW30013   3.622   9.977   6.093 -0.4408 -0.5590  0.4147
 9812SOL    HW130014   3.553   9.913   6.073 -0.3293 -0.1656 -1.4353
 9812SOL    HW230015   3.585  10.032   6.162 -2.2212 -0.0184 -0.8933
 9813SOL     OW30016   7.699   7.168   6.822  0.2810 -0.2922 -0.3158
 9813SOL    HW130017   7.673   7.241   6.766  1.5293 -0.8847 -1.7215
 9813SOL    HW230018   7.782   7.194   6.860 -0.1936 -0.2119  0.7094
 9814SOL     OW30019   8.890   1.126   0.355  0.1109  0.1463  0.3829
 9814SOL    HW130020   8.876   1.044   0.308  2.2202  0.2057 -0.4514
 9814SOL    HW230021   8.910   1.099   0.445 -0.7189 -0.1411  0.4928
 9815SOL     OW30022   5.042   2.078   2.113  0.3274 -0.4449 -0.4029
 9815SOL    HW130023   4.986   2.040   2.046 -1.8325 -2.2199  2.1694
 9815SOL    HW230024   4.984   2.137   2.162  1.5016 -0.0411  0.5623
 9816SOL     OW30025   4.255   7.195   1.038 -0.2320  0.1373  0.1330
 9816SOL    HW130026   4.273   7.214   1.130  1.0074 -1.0385  0.1728
 9816SOL    HW230027   4.308   7.258   0.989 -1.6267  1.3929  0.1946
 9817SOL     OW30028   5.704   9.748   0.277  0.5575 -0.2456  0.4653
 9817SOL    HW130029   5.712   9.658   0.246  1.3437 -0.5956  1.6085
 9817SOL    HW230030   5.761   9.799   0.220 -0.5278 -0.3093 -0.7214
 9818SOL     OW30031   1.375   8.923   4.623  0.2024  0.5880 -0.2332
 9818SOL    HW130032   1.384   9.018   4.633  0.3182  0.5484  0.0349
 9818SOL    HW230033   1.280   8.908   4.617  0.1555  0.6661  0.2676
 9819SOL     OW30034   9.816   8.745   2.383  0.0829  0.2722  0.2151
 9819SOL    HW130035   9.904   8.733   2.345 -0.7598 -0.7459 -1.5251
 9819SOL    HW230036   9.810   8.839   2.400  1.9308  0.2119  1.5201
 9820SOL     OW30037   3.008   3.451   2.830 -0.0487  0.8217 -0.0730
 9820SOL    HW130038   2.942   3.507   2.789 -1.5594 -0.7578  0.0933
 9820SOL    HW230039   3.025   3.493   2.914 -2.3799  0.2664  0.7729
 9821SOL     OW30040   8.515   0.712   2.018  0.1542 -0.0820  0.3312
 9821SOL    HW130041   8.575   0.764   2.071  0.6310  0.1459 -0.4201
 9821SOL    HW230042   8.457   0.776   1.977  0.2113 -0.2031  0.0573
 9822SOL     OW30043   0.345   8.858   8.643  0.2276 -0.5924 -0.2770
 9822SOL    HW130044   0.435   8.830   8.657  0.2495 -0.5520 -0.3339
 9822SOL    HW230045   0.292   8.780   8.659  0.2889 -0.6694 -0.4473
 9823SOL     OW30046   5.274   9.882   1.775 -0.0908  0.7832 -0.0305
 9823SOL    HW130047   5.309   9.895   1.863  1.0489  2.2913 -0.6697
 9823SOL    HW230048   5.344   9.911   1.717 -1.9249  2.8098 -1.3944
 9824SOL     OW30049   4.478   6.976   9.604  0.2538  0.3956  0.1457
 9824SOL    HW130050   4.468   6.890   9.645  0.3304 -0.1882 -1.0324
 9824SOL    HW230051   4.390   7.014   9.606  0.2485  0.3719  0.7998
 9825SOL     OW30052   7.806   2.022   7.397 -0.1594  0.2717  0.7873
 9825SOL    HW130053   7.795   2.099   7.342  0.5274 -1.2025 -1.5414
 9825SOL    HW230054   7.724   2.016   7.447 -0.8968  1.5616 -0.2217
 9826SOL     OW30055   4.792   6.466   6.422  0.0878 -0.2415  0.1676
 9826SOL    HW130056   4.762   6.392   6.475  0.0460 -0.0702  0.3866
 9826SOL    HW230057   4.734   6.466   6.346 -0.3407 -0.0383  0.4885
 9827SOL     OW30058   1.940   0.022   3.673 -0.0363  0.3706 -0.8454
 9827SOL    HW130059   1.922  -0.060   3.626  2.2959 -2.8029  3.1087
 9827SOL    HW230060   1.984   0.077   3.608 -2.2774 -1.1061 -3.9003
 9828SOL     OW30061   0.143   1.321   9.790  0.3670 -0.4540 -0.1993
 9828SOL    HW130062   0.214   1.257   9.801 -0.9748 -1.8894  0.7533
 9828SOL    HW230063   0.103   1.326   9.877 -1.4923 -0.7082 -0.9941
 9829SOL     OW30064   0.547   3.188   0.458  0.5554  0.0688  0.4455
 9829SOL    HW130065   0.557   3.283   0.457 -1.8619  0.3713  0.7377
 9829SOL    HW230066   0.478   3.171   0.523  0.4593 -1.8384 -0.0831
 9830SOL     OW30067   6.938   5.448   4.596  0.3400  0.2707 -0.3861
 9830SOL    HW130068   6.964   5.492   4.677  1.8208 -0.6024 -0.3563
 9830SOL    HW230069   6.981   5.499   4.527 -1.5209  1.4710 -0.7431
 9831SOL     OW30070   1.711   2.703   8.057  0.6559 -0.1272 -0.0202
 9831SOL    HW130071   1.682   2.642   7.990  0.8339 -0.8806  0.5724
 9831SOL    HW230072   1.807   2.698   8.054  0.6647 -0.1993  0.3129
 9832SOL     OW30073   6.697   6.432   4.456  0.2520  0.4894 -0.2042
 9832SOL    HW130074   6.685   6.407   4.364 -2.5638  0.6103  0.0455
 9832SOL    HW230075   6.683   6.527   4.457  0.2596  0.4876  0.3349
 9833SOL     OW30076   3.086   5.309   3.836  0.1629  0.1031 -0.0773
 9833SOL    HW130077   3.140   5.388   3.828  0.4762 -0.1569 -0.5406
 9833SOL    HW230078   3.047   5.316   3.924  1.5293 -0.0614  0.5735
 9834SOL     OW30079   7.945   8.117   4.086  0.0236  0.1669  0.3078
 9834SOL    HW130080   7.981   8.200   4.117  0.3681  0.5046 -0.9315
 9834SOL    HW230081   7.993   8.050   4.134  2.3542  0.5940 -1.2612
 9835SOL     OW30082   9.595   2.951   0.811 -0.6064  0.1881  0.7285
 9835SOL    HW130083   9.687   2.968   0.831 -0.3690  1.8851 -1.4334
 9835SOL    HW230084   9.588   2.855   0.806  1.0657  0.0398  0.7976
 9836SOL     OW30085   1.524   4.327   9.198 -0.3526  0.2221  0.2516
 9836SOL    HW130086   1.461   4.375   9.252 -0.5931  0.6443 -0.3883
 9836SOL    HW230087   1.575   4.275   9.261 -1.2803 -0.0637  0.7805
 9837SOL     OW30088   7.500   2.643   5.183 -0.0896 -0.0790  0.5716
 9837SOL    HW130089   7.420   2.665   5.230 -1.4066 -1.0939 -1.0851
 9837SOL    HW230090   7.515   2.717   5.124 -0.7162 -0.5675 -0.2212
 9838SOL     OW30091   3.559   6.827   8.054 -0.4084 -0.0028  0.3314
 9838SOL    HW130092   3.468   6.817   8.083 -0.1008 -1.4080  0.8999
 9838SOL    HW230093   3.595   6.894   8.113 -0.7710 -0.2558  0.8565
 9839SOL     OW30094   9.773   1.761   1.811  0.0084  0.4288 -0.2519
 9839SOL    HW130095   9.840   1.766   1.879 -0.0745  1.3925 -0.2316
 9839SOL    HW230096   9.726   1.680   1.830  1.5128 -0.5787 -0.6073
 9840SOL     OW30097   2.948   0.285   2.079 -0.3073 -0.0708  0.1839
 9840SOL    HW130098   2.980   0.312   1.993  0.1473 -0.7627  0.1280
 9840SOL    HW230099   3.016   0.226   2.112 -1.1455 -0.9243  0.4130
 9841SOL     OW30100   8.092   4.678   3.063 -0.6339  0.8569  0.0010
 9841SOL    HW130101   8.121   4.676   3.154 -1.6190 -0.5694  0.3121
 9841SOL    HW230102   8.065   4.769   3.049 -0.9525  0.9822  1.2937
 9842SOL     OW30103   3.721   5.324   7.005 -0.1495  0.1429  0.2876
 9842SOL    HW130104   3.628   5.299   7.007 -0.5977  1.4838 -1.2008
 9842SOL    HW230105   3.751   5.294   6.919  1.1325 -1.2282  1.1618
 9843SOL     OW30106   2.751   7.452   5.684  0.3938  0.5477  0.2699
 9843SOL    HW130107   2.820   7.411   5.632  0.5093  1.1080 -0.0286
 9843SOL    HW230108   2.789   7.461   5.772 -0.1786 -1.3747  0.7569
 9844SOL     OW30109   5.394   3.106   7.166 -0.3619 -0.1815  0.4950
 9844SOL    HW130110   5.420   3.190   7.203  1.6114 -0.7342  0.4765
 9844SOL    HW230111   5.301   3.097   7.189 -0.2685  1.3899  1.6313
 9845SOL     OW30112   0.608   9.799   4.018 -0.2999  0.6334 -1.2520
 9845SOL    HW130113   0.577   9.711   4.038 -2.0133  0.5932 -3.6284
 9845SOL    HW230114   0.646   9.831   4.101 -1.9453 -1.3603  0.3871
 9846SOL     OW30115   8.882   7.367   9.643  0.6952  0.0362  0.2220
 9846SOL    HW130116   8.901   7.410   9.727 -1.8732  0.6677  0.5557
 9846SOL    HW230117   8.787   7.361   9.640  0.7271 -0.2824 -2.5274
 9847SOL     OW30118   2.805   1.359   3.946 -0.6086 -0.1223  0.0308
 9847SOL    HW130119   2.730   1.334   4.001 -2.1649  0.7542 -1.5751
 9847SOL    HW230120   2.784   1.323   3.860  0.4174  0.8541 -0.6470
 9848SOL     OW30121   2.949   5.503   7.966 -0.0341 -0.1415 -0.0273
 9848SOL    HW130122   2.854   5.491   7.961 -0.3359  1.6772  0.4409
 9848SOL    HW230123   2.981   5.425   8.012 -1.2944 -0.7856 -0.2096
 9849SOL     OW30124   0.130   6.591   6.216 -0.1161 -0.5477  0.4913
 9849SOL    HW130125   0.060   6.640   6.258 -0.3966 -0.8597  0.3882
 9849SOL    HW230126   0.087   6.516   6.175  0.3809 -1.2584  1.2177
 9850SOL     OW30127   3.378   0.450   0.769 -0.4170 -0.4012  0.1991
 9850SOL    HW130128   3.444   0.459   0.837 -0.5392  0.8830  0.1692
 9850SOL    HW230129   3.424   0.410   0.695  0.0774 -0.4179  0.5152
 9851SOL     OW30130   1.585   2.777   6.337 -0.3202 -0.1681 -0.2880
 9851SOL    HW130131   1.602   2.721   6.261  0.0957  0.0279 -0.3409
 9851SOL    HW230132   1.573   2.864   6.300  0.9908  0.1358 -0.0458
 9852SOL     OW30133   2.310   8.265   2.506  0.1599 -0.2713  0.5552
 9852SOL    HW130134   2.406   8.258   2.504  0.1020 -2.2312  1.6182
 9852SOL    HW230135   2.287   8.257   2.598 -1.0503 -0.6329  0.2436
 9853SOL     OW30136   0.374   9.037   0.797 -0.0640  0.2376  0.3549
 9853SOL    HW130137   0.356   8.953   0.755  0.2313  0.3891 -0.0852
 9853SOL    HW230138   0.337   9.029   0.885  1.5104 -1.0061  0.9532
 9854SOL     OW30139   3.000   2.036   1.054  0.7192  0.1142 -0.0206
 9854SOL    HW130140   2.940   2.091   1.104  1.8881  0.9611  0.5028
 9854SOL    HW230141   2.955   2.020   0.971 -1.2347 -1.2832  1.2418
 9855SOL     OW30142   8.589   1.964   1.947 -0.0580 -0.1894  0.0518
 9855SOL    HW130143   8.560   2.043   1.992  0.2715 -0.8373  1.4509
 9855SOL    HW230144   8.609   1.994   1.858 -1.9537  0.8659 -0.0755
 9856SOL     OW30145   1.975   3.988   5.925 -0.2572  0.0646 -0.4494
 9856SOL    HW130146   2.046   4.043   5.894 -0.0849  0.1479  0.0821
 9856SOL    HW230147   1.939   3.948   5.846  0.6151 -0.2597 -0.6906
 9857SOL     OW30148   4.386   6.632   8.608 -0.0428  0.0744 -0.0880
 9857SOL    HW130149   4.468   6.682   8.601 -0.1042  0.2677  0.5114
 9857SOL    HW230150   4.394   6.585   8.691 -1.1822  1.2920  0.7497
 9858SOL     OW30151   1.207   4.244   5.610  0.1065 -0.1667 -1.2659
 9858SOL    HW130152   1.269   4.282   5.547 -1.4562 -0.9383 -3.4165
 9858SOL    HW230153   1.121   4.265   5.574 -0.9820  1.2548  1.8403
 9859SOL     OW30154   5.313   1.468   5.115  0.5102 -0.1543 -0.6147
 9859SOL    HW130155   5.247   1.505   5.057 -1.3055 -1.8153  0.3012
 9859SOL    HW230156   5.349   1.394   5.066  1.4312  0.4646 -0.9191
 9860SOL     OW30157   1.664   1.410   7.199 -0.4192 -0.6681  0.1814
 9860SOL    HW130158   1.704   1.489   7.236  1.4051 -0.8313 -1.2804
 9860SOL    HW230159   1.585   1.396   7.252  0.6744  0.5231  2.2745
 9861SOL     OW30160   7.988   0.191   2.781  0.2689 -0.5587 -0.3570
 9861SOL    HW130161   7.893   0.201   2.771  0.2658 -1.2086 -0.9908
 9861SOL    HW230162   8.016   0.146   2.702  0.9948 -1.1033  0.2039
 9862SOL     OW30163   8.216   0.446   3.261  0.0957  0.1274  0.0309
 9862SOL    HW130164   8.266   0.526   3.243  0.1298  0.0873 -0.0533
 9862SOL    HW230165   8.196   0.411   3.174  1.1163 -0.6046  0.0753
 9863SOL     OW30166   7.090   3.744   8.698  0.6481  0.1323  0.2204
 9863SOL    HW130167   7.037   3.822   8.681 -0.6919 -0.7731  0.1284
 9863SOL    HW230168   7.114   3.712   8.611 -1.3033 -1.2066  0.1343
 9864SOL     OW30169   7.018   8.047   3.082  0.1922 -0.6568 -0.0796
 9864SOL    HW130170   6.956   8.068   3.013 -1.1976 -2.2215  0.6437
 9864SOL    HW230171   7.094   8.012   3.036  0.5358  1.1209 -0.9637
 9865SOL     OW30172   6.376   9.762   2.076  0.4159 -0.0728 -0.0405
 9865SOL    HW130173   6.421   9.775   1.993 -0.6014 -0.1891 -0.6202
 9865SOL    HW230174   6.372   9.667   2.087  1.3807 -0.0563  0.6224
 9866SOL     OW30175   7.542   2.713   4.493 -0.4337 -0.1064 -0.4062
 9866SOL    HW130176   7.446   2.709   4.495 -0.3810 -1.4396  0.9477
 9866SOL    HW230177   7.561   2.805   4.477 -1.9418  0.3481  0.2061
 9867SOL     OW30178   3.903   8.796   0.513  0.3757 -0.0771  0.3658
 9867SOL    HW130179   3.979   8.764   0.561  0.4940  0.3006  0.4314
 9867SOL    HW230180   3.866   8.717   0.473  0.2189 -0.4041  1.1411
 9868SOL     OW30181   8.550   5.075   6.050  0.5961 -0.4629  0.2659
 9868SOL    HW130182   8.627   5.050   5.998 -1.7262 -0.4975 -3.5452
 9868SOL    HW230183   8.525   5.160   6.014 -0.4992  0.1167  2.2810
 9869SOL     OW30184   6.395   3.789   4.448 -0.0295  0.2637 -0.5554
 9869SOL    HW130185   6.378   3.731   4.523  0.3103 -0.6482 -1.1628
 9869SOL    HW230186   6.310   3.800   4.406 -0.3018  1.1167  0.1851
 9870SOL     OW30187   3.810   0.711   8.221  0.2539 -0.5393 -0.0566
 9870SOL    HW130188   3.768   0.710   8.307 -1.5414  1.5211 -0.8094
 9870SOL    HW230189   3.795   0.799   8.188  1.3540 -1.1138 -2.2793
 9871SOL     OW30190   8.500   7.660   7.316  0.0505  0.3887 -0.6058
 9871SOL    HW130191   8.477   7.570   7.339  0.0022  0.9172  1.5993
 9871SOL    HW230192   8.596   7.661   7.314  0.1296  0.6491  1.2297
 9872SOL     OW30193   7.014   5.698   9.420  0.3235 -0.6448  0.1795
 9872SOL    HW130194   7.100   5.655   9.415  1.7421  1.6360  2.5910
 9872SOL    HW230195   7.001   5.735   9.333  2.3122 -0.1828  0.0309
 9873SOL     OW30196   1.704   0.524   9.889  0.1586  0.7147  0.1184
 9873SOL    HW130197   1.705   0.527   9.985  2.2137  0.8457  0.1358
 9873SOL    HW230198   1.736   0.610   9.862  1.4742  0.0251 -0.6191
 9874SOL     OW30199   7.787   7.391   6.338 -0.1681 -0.4234  0.2251
 9874SOL    HW130200   7.869   7.435   6.317 -0.0987  0.1106  1.4755
 9874SOL    HW230201   7.721   7.461   6.337 -0.0236 -0.1805  2.4300
 9875SOL     OW30202   5.784   1.219   8.695  0.1455  0.1297  0.0658
 9875SOL    HW130203   5.861   1.187   8.647 -0.7029  0.0577 -1.3101
 9875SOL    HW230204   5.742   1.139   8.728 -0.1153  0.0502 -0.4400
 9876SOL     OW30205   5.002   2.709   9.332 -0.2021  0.1944 -0.0326
 9876SOL    HW130206   4.985   2.750   9.248 -1.1992 -0.7819 -0.3263
 9876SOL    HW230207   5.094   2.729   9.351 -0.1431  0.9287 -1.0537
 9877SOL     OW30208   3.102   7.196   7.600 -0.2816 -0.0694  0.5562
 9877SOL    HW130209   3.070   7.119   7.552 -0.3597  0.7885 -0.8013
 9877SOL    HW230210   3.197   7.181   7.607 -0.5249 -1.1762  1.9736
 9878SOL     OW30211   2.795   0.389   8.273  0.0052 -0.0728  0.3826
 9878SOL    HW130212   2.842   0.314   8.238 -0.3634 -0.1239 -0.0141
 9878SOL    HW230213   2.768   0.438   8.195  1.0362  0.9714  0.6499
 9879SOL     OW30214   2.554   3.949   4.264  0.1419 -0.6402 -0.3470
 9879SOL    HW130215   2.551   3.940   4.359  0.2426 -1.4067 -0.4117
 9879SOL    HW230216   2.647   3.953   4.243  0.1604 -1.8138 -0.5259
 9880SOL     OW30217   1.990   6.523   4.239  0.5237 -0.0493  0.2109
 9880SOL    HW130218   2.068   6.531   4.185  2.1216 -0.5992  2.2779
 9880SOL    HW230219   1.983   6.429   4.257 -1.5127 -0.2063 -1.0975
 9881SOL     OW30220   7.628   1.165   9.872  0.4428 -0.6746 -0.2680
 9881SOL    HW130221   7.599   1.189   9.960  1.2623 -0.5505 -0.0283
 9881SOL    HW230222   7.574   1.089   9.850 -1.3721  0.6435 -0.5856
 9882SOL     OW30223   4.420   0.176   2.527 -0.5715 -0.2577 -0.2016
 9882SOL    HW130224   4.418   0.082   2.506  0.7710 -0.3212 -0.1638
 9882SOL    HW230225   4.428   0.219   2.443  0.0149 -0.2533 -0.1494
 9883SOL     OW30226   4.667   6.947   8.229 -0.1187 -0.7723  0.4465
 9883SOL    HW130227   4.648   7.041   8.223 -0.5007 -0.7983  1.0933
 9883SOL    HW230228   4.625   6.909   8.152  0.3832 -0.3615 -0.0326
 9884SOL     OW30229   1.913   8.855   2.283 -0.4596 -0.1960 -0.1612
 9884SOL    HW130230   1.845   8.902   2.330 -1.0610 -0.8339 -0.3591
 9884SOL    HW230231   1.930   8.909   2.206 -1.0158 -0.2057 -0.2993
 9885SOL     OW30232   9.761   4.093   2.740 -0.0986  0.3508 -0.0682
 9885SOL    HW130233   9.796   4.046   2.815 -0.8754  3.2566  2.2738
 9885SOL    HW230234   9.674   4.055   2.727  0.1695 -0.3936  0.2571
 9886SOL     OW30235   1.239   3.984   4.734  0.2273  0.7450 -0.4050
 9886SOL    HW130236   1.321   3.987   4.685  0.0029  0.9392 -0.7663
 9886SOL    HW230237   1.236   3.895   4.769 -0.5978 -0.0820 -2.4379
 9887SOL     OW30238   1.968   2.888   1.921 -0.3747 -0.0089  0.2163
 9887SOL    HW130239   1.978   2.951   1.850 -0.7392 -0.0470  0.1276
 9887SOL    HW230240   1.923   2.814   1.881  0.8932 -0.7250  0.0942
 9888SOL     OW30241   7.709   1.360   3.764 -0.0952 -0.4410 -0.4322
 9888SOL    HW130242   7.722   1.267   3.782 -2.9319 -1.3649 -2.3834
 9888SOL    HW230243   7.675   1.362   3.674  0.1940  2.5218 -0.5590
 9889SOL     OW30244   3.452   8.808   4.776 -0.1733  0.5049  0.6659
 9889SOL    HW130245   3.492   8.849   4.853  0.9972 -0.3930  0.5559
 9889SOL    HW230246   3.520   8.812   4.709 -0.5050 -0.4320  0.2640
 9890SOL     OW30247   6.327   7.197   8.118 -0.0919  0.3078  0.6836
 9890SOL    HW130248   6.364   7.178   8.204 -0.2991 -2.2294  0.2933
 9890SOL    HW230249   6.395   7.168   8.057 -0.5069  0.7823 -0.0125
 9891SOL     OW30250   1.434   1.741   6.599 -0.3448  0.3677 -0.4566
 9891SOL    HW130251   1.398   1.760   6.512 -1.6149 -1.3368 -0.3557
 9891SOL    HW230252   1.402   1.812   6.654  1.6812  2.3117 -1.5810
 9892SOL     OW30253   7.843   6.466   2.087 -0.3566  0.0577  0.0178
 9892SOL    HW130254   7.790   6.502   2.016  0.2308 -0.3572 -0.6378
 9892SOL    HW230255   7.931   6.461   2.052  0.2900  1.3844  1.3214
 9893SOL     OW30256   4.361   8.660   5.003  0.0080  0.2677 -0.4015
 9893SOL    HW130257   4.454   8.658   4.978 -0.2073  0.3761 -1.2391
 9893SOL    HW230258   4.326   8.737   4.958 -0.2729  0.8336  0.7246
 9894SOL     OW30259   8.610   8.395   5.427 -0.2813  0.4142  0.0293
 9894SOL    HW130260   8.519   8.425   5.425 -0.4068 -0.0266 -1.6147
 9894SOL    HW230261   8.652   8.440   5.354  0.3320 -0.9100 -0.4535
 9895SOL     OW30262   4.862   7.693   0.558  0.7833 -0.6140  0.3683
 9895SOL    HW130263   4.952   7.719   0.574  0.9675 -1.5752  0.9556
 9895SOL    HW230264   4.825   7.680   0.646 -0.2332  0.7282  0.1775
 9896SOL     OW30265   8.490   5.612   1.560  0.0669  0.0347  0.1300
 9896SOL    HW130266   8.553   5.645   1.496  0.2000  0.3805  0.4340
 9896SOL    HW230267   8.413   5.668   1.547 -0.5341 -0.9788 -0.8766
 9897SOL     OW30268   4.942   1.373   0.187  0.3456 -0.2014 -0.3565
 9897SOL    HW130269   5.019   1.362   0.130  0.8723 -0.8243  0.4688
 9897SOL    HW230270   4.903   1.456   0.157  1.9709  0.7172 -0.0702
 9898SOL     OW30271   1.263   0.833   8.556  0.4827  0.1430 -0.2634
 9898SOL    HW130272   1.250   0.749   8.600  1.2587  0.1618  0.0143
 9898SOL    HW230273   1.239   0.899   8.621 -3.0471  0.1709 -1.3926
 9899SOL     OW30274   2.072   2.971   7.362 -0.1122 -0.6537  0.5930
 9899SOL    HW130275   2.075   3.056   7.318  0.6763 -1.6289 -1.3605
 9899SOL    HW230276   2.121   2.984   7.444  1.6937  0.3102 -0.5813
 9900SOL     OW30277   8.800   0.955   1.812  0.5389  0.0781 -0.3610
 9900SOL    HW130278   8.790   0.917   1.898  0.5257  2.8037  0.9562
 9900SOL    HW230279   8.801   0.880   1.752 -0.4409 -1.8335  1.8683
 9901SOL     OW30280   2.934   0.047   7.427 -0.0983  0.4243  0.8841
 9901SOL    HW130281   2.884   0.102   7.488 -0.3366 -1.4612  2.4950
 9901SOL    HW230282   3.017   0.093   7.416 -0.6651  1.6125  1.3512
 9902SOL     OW30283   3.140   3.086   1.848 -0.4837  0.4716 -0.2132
 9902SOL    HW130284   3.167   3.145   1.778 -2.8985  0.0973 -1.5973
 9902SOL    HW230285   3.125   3.143   1.923 -0.5530  1.3116 -0.8506
 9903SOL     OW30286   0.761   1.851   3.034 -0.2807  0.2556  0.5352
 9903SOL    HW130287   0.712   1.921   2.990  1.0819  1.4774  0.8823
 9903SOL    HW230288   0.809   1.895   3.104  2.2638 -0.6470 -0.5315
 9904SOL     OW30289   9.586   6.472   4.875  0.6077 -0.1171 -0.0532
 9904SOL    HW130290   9.610   6.444   4.787  3.5284  1.1290  0.2162
 9904SOL    HW230291   9.639   6.417   4.933 -0.1666  0.0810  0.8844
 9905SOL     OW30292   8.370   0.532   9.973  0.5617 -0.1511  0.9082
 9905SOL    HW130293   8.276   0.513   9.974  0.8590 -1.7294  0.7416
 9905SOL    HW230294   8.394   0.531   9.880  0.3153  2.7923  0.7052
 9906SOL     OW30295   7.806   6.199   4.420 -0.0770  0.0963 -0.2263
 9906SOL    HW130296   7.779   6.144   4.346 -1.0547  0.7620 -0.3889
 9906SOL    HW230297   7.810   6.287   4.383 -0.4358  0.4163  0.4791
 9907SOL     OW30298   8.885   1.271   4.033  0.6652  0.0122  0.0767
 9907SOL    HW130299   8.950   1.221   4.082  0.1859 -1.3837 -0.6675
 9907SOL    HW230300   8.909   1.258   3.942  0.6073  1.2800 -0.1349
 9908SOL     OW30301   0.417   4.795   2.330 -0.4514 -0.0097  0.0222
 9908SOL    HW130302   0.500   4.837   2.353 -0.0055 -0.7627 -0.1561
 9908SOL    HW230303   0.350   4.852   2.368  0.2074 -0.4408  1.9910
 9909SOL     OW30304   5.020   9.912   3.141 -0.3001  0.2823 -0.3988
 9909SOL    HW130305   5.041  10.004   3.153  1.7704  0.1157 -2.1096
 9909SOL    HW230306   4.951   9.910   3.075  0.5332  0.5927 -1.2946
 9910SOL     OW30307   3.929   9.204   8.347  0.8887 -0.0801  0.0840
 9910SOL    HW130308   3.873   9.275   8.378  0.0674 -0.4968 -0.4150
 9910SOL    HW230309   3.873   9.127   8.346  1.2545 -0.3542 -1.1261
 9911SOL     OW30310   9.853   3.975   2.492  0.1072 -0.1661  0.4299
 9911SOL    HW130311   9.808   4.039   2.546  0.8199 -0.9348  2.0001
 9911SOL    HW230312   9.787   3.907   2.475 -1.0559  1.5210 -2.3595
 9912SOL     OW30313   8.779   1.798   5.491  0.1137 -0.3264 -0.1562
 9912SOL    HW130314   8.690   1.831   5.478 -0.2172 -0.9498  0.4496
 9912SOL    HW230315   8.776   1.707   5.463  0.5283 -0.3871 -0.0178
 9913SOL     OW30316   4.151   5.112   6.174 -0.4031  0.0375  0.1636
 9913SOL    HW130317   4.118   5.040   6.119  3.3658  0.1040 -2.5669
 9913SOL    HW230318   4.117   5.191   6.133 -2.1259  0.0023  1.4084
 9914SOL     OW30319   7.946   0.877   7.288 -0.3022  0.4394 -0.1252
 9914SOL    HW130320   7.948   0.787   7.322 -0.1733  0.4290 -0.1576
 9914SOL    HW230321   7.914   0.929   7.361 -0.9999  0.2807 -0.3097
 9915SOL     OW30322   5.784   5.977   7.735  0.2902 -0.2715  0.0066
 9915SOL    HW130323   5.736   6.013   7.660 -0.1480 -0.8657 -0.0109
 9915SOL    HW230324   5.716   5.943   7.793  0.6765 -0.7692  0.1763
 9916SOL     OW30325   8.731   7.375   5.860 -0.6155  0.5827  0.3359
 9916SOL    HW130326   8.810   7.406   5.905 -1.3946  2.0716  0.7352
 9916SOL    HW230327   8.660   7.429   5.896 -1.5762  0.3574 -1.1478
 9917SOL     OW30328   0.457   1.158   4.062 -0.4132  0.0017  0.3155
 9917SOL    HW130329   0.501   1.243   4.057  0.3326 -0.3816  0.3147
 9917SOL    HW230330   0.445   1.143   4.156 -1.8982  0.7860  0.2782
 9918SOL     OW30331   4.085   3.615   7.972 -0.5457 -0.3822  0.2443
 9918SOL    HW130332   4.082   3.630   7.877 -0.5308  2.0834  0.5659
 9918SOL    HW230333   4.165   3.658   8.000 -0.5229 -1.1368  1.3944
 9919SOL     OW30334   1.435   2.986   9.652 -0.2477  0.6164 -0.1126
 9919SOL    HW130335   1.486   2.942   9.720  1.2040  1.8441 -0.3675
 9919SOL    HW230336   1.410   3.069   9.691 -0.5222  0.7790 -0.6274
 9920SOL     OW30337   8.083   8.848   6.152  0.0059 -0.1411 -0.0766
 9920SOL    HW130338   8.016   8.916   6.148  1.9323  2.0205  1.1227
 9920SOL    HW230339   8.153   8.887   6.205  0.6639 -3.6381  1.9622
 9921SOL     OW30340   3.734   4.981   7.800 -0.0165 -0.1202 -0.4599
 9921SOL    HW130341   3.784   4.983   7.882  0.3102  0.9254 -0.6659
 9921SOL    HW230342   3.700   4.892   7.795  1.6291 -0.7980 -0.1901
 9922SOL     OW30343   2.350   1.764   6.693  0.7145  0.5579 -0.2183
 9922SOL    HW130344   2.438   1.727   6.701  0.4814  0.1905  0.8664
 9922SOL    HW230345   2.364   1.851   6.657  1.3803 -0.1033 -1.6606
 9923SOL     OW30346   3.620   4.249   1.231 -0.3492 -0.5000 -0.3340
 9923SOL    HW130347   3.538   4.209   1.200 -0.3559 -0.3721 -0.4810
 9923SOL    HW230348   3.680   4.175   1.240 -1.1958 -0.9865  2.1925
 9924SOL     OW30349   4.296   3.717   3.450 -0.2235  0.4059 -0.5963
 9924SOL    HW130350   4.248   3.709   3.367 -0.4916  0.2977 -0.4342
 9924SOL    HW230351   4.293   3.630   3.487 -1.2463  0.7387  0.1452
 9925SOL     OW30352   4.667   6.324   2.521 -0.2460  0.1340  0.5495
 9925SOL    HW130353   4.664   6.267   2.598 -0.5444  0.3451  0.6998
 9925SOL    HW230354   4.759   6.323   2.494  0.1136  1.0031  1.6424
 9926SOL     OW30355   1.844   0.441   7.222 -0.1108  0.1195 -0.1510
 9926SOL    HW130356   1.939   0.438   7.235 -0.1290  1.4391  0.4359
 9926SOL    HW230357   1.818   0.350   7.208  1.0643 -0.4000  0.9345
 9927SOL     OW30358   1.565   3.777   9.271  0.0425 -0.1966  0.0527
 9927SOL    HW130359   1.494   3.768   9.207  0.0190 -0.8751  0.1640
 9927SOL    HW230360   1.608   3.691   9.271 -0.3656 -0.4341  1.4138
 9928SOL     OW30361   6.451   1.830   9.258 -0.8837  0.0521 -0.8659
 9928SOL    HW130362   6.456   1.880   9.339  1.5948 -1.5977  0.1604
 9928SOL    HW230363   6.523   1.864   9.205 -0.6703 -0.7772 -1.1290
 9929SOL     OW30364   8.501   8.846   1.122 -0.2791 -0.1664 -0.2163
 9929SOL    HW130365   8.540   8.933   1.123  0.2915 -0.4171 -0.6384
 9929SOL    HW230366   8.445   8.845   1.044 -1.3623  0.2840  0.5321
 9930SOL     OW30367   2.799   2.697   3.403 -0.3623 -0.1854 -0.7699
 9930SOL    HW130368   2.838   2.637   3.467 -0.5235  0.5393  0.0401
 9930SOL    HW230369   2.746   2.757   3.456 -0.0865  0.7621 -1.5314
 9931SOL     OW30370   0.110   1.057   7.856  0.2460 -0.1710 -0.0253
 9931SOL    HW130371   0.143   1.075   7.944  0.8896 -0.0089 -0.2873
 9931SOL    HW230372   0.158   0.978   7.829  0.0226 -0.2424 -0.2142
 9932SOL     OW30373   0.249   3.868   6.661  0.1095  0.2539 -0.7817
 9932SOL    HW130374   0.330   3.826   6.689 -0.4413 -0.0900  0.3615
 9932SOL    HW230375   0.224   3.822   6.582  1.9436  1.5269 -2.1867
 9933SOL     OW30376   7.084   2.435   3.981 -0.1520  0.3546  0.0634
 9933SOL    HW130377   7.025   2.448   4.056 -0.4140  1.7551 -0.3509
 9933SOL    HW230378   7.124   2.521   3.967  0.2898 -0.0209 -1.0793
 9934SOL     OW30379   0.616   9.166   3.432 -0.2763  0.0245  0.5687
 9934SOL    HW130380   0.568   9.125   3.359 -1.8647  1.9412  0.4342
 9934SOL    HW230381   0.697   9.198   3.392  0.1539 -1.3617  0.2902
 9935SOL     OW30382   2.125   1.782   6.872 -0.1279  0.5118 -0.2641
 9935SOL    HW130383   2.191   1.779   6.803 -1.6305 -1.1081 -1.7093
 9935SOL    HW230384   2.042   1.796   6.826 -1.0758  0.3223  1.3042
 9936SOL     OW30385   4.934   0.031   6.671  0.0795 -0.1941 -0.2293
 9936SOL    HW130386   4.985   0.020   6.751  1.6577 -1.6794 -1.3482
 9936SOL    HW230387   4.888   0.114   6.683  1.0751  0.1359  1.7693
 9937SOL     OW30388   4.079   9.587   6.402  0.3031  0.3210 -0.3145
 9937SOL    HW130389   4.075   9.517   6.336  1.5907  0.5705 -0.6730
 9937SOL    HW230390   4.084   9.540   6.485 -1.9916 -0.0068 -0.2816
 9938SOL     OW30391   0.059   4.161   3.757  1.0529  0.3264  0.4102
 9938SOL    HW130392  -0.030   4.128   3.752  1.7753 -1.9217  1.1790
 9938SOL    HW230393   0.052   4.245   3.803 -0.5182 -0.3686  1.4956
 9939SOL     OW30394   2.462   2.091   7.730 -0.4064 -0.3461 -0.1420
 9939SOL    HW130395   2.452   2.007   7.774  1.9302  0.2171  1.7120
 9939SOL    HW230396   2.543   2.083   7.680 -0.2292  0.7329 -0.0627
 9940SOL     OW30397   1.011   8.961   3.190 -0.2723  0.0863  0.1724
 9940SOL    HW130398   1.085   8.931   3.136 -2.5722 -3.4697 -1.3129
 9940SOL    HW230399   0.943   8.984   3.126 -1.8742 -0.8326  1.4820
 9941SOL     OW30400   0.208   3.464   1.301  0.2057 -0.2011  0.0308
 9941SOL    HW130401   0.116   3.444   1.321 -0.1172 -0.6420 -1.6935
 9941SOL    HW230402   0.247   3.483   1.385 -1.3519 -0.5390  0.8751
 9942SOL     OW30403   7.077   7.547   9.367  0.0788 -0.0752 -0.7031
 9942SOL    HW130404   7.165   7.560   9.402  0.4130 -0.8402 -1.2301
 9942SOL    HW230405   7.040   7.478   9.422 -0.4192  0.6406 -0.1131
 9943SOL     OW30406   8.809   5.644   2.337  0.0014  0.2962 -0.2625
 9943SOL    HW130407   8.744   5.602   2.392  1.8716 -1.3835  0.7884
 9943SOL    HW230408   8.839   5.575   2.278  1.6098  0.6849  0.0489
 9944SOL     OW30409   6.409   1.349   2.760 -0.2600  0.1120  0.4452
 9944SOL    HW130410   6.377   1.393   2.838  0.1732  1.5229 -0.1521
 9944SOL    HW230411   6.329   1.325   2.712 -0.4928  0.7289  0.5168
 9945SOL     OW30412   8.736   3.761   1.643  0.1747 -0.0284  0.1717
 9945SOL    HW130413   8.750   3.704   1.718  1.3807  0.3769  0.2802
 9945SOL    HW230414   8.791   3.723   1.574 -0.9857 -0.4492 -0.5527
 9946SOL     OW30415   9.551   3.702   1.846 -0.4669  0.2337  0.4015
 9946SOL    HW130416   9.582   3.689   1.936 -1.5515  1.2491  0.9494
 9946SOL    HW230417   9.594   3.782   1.818 -1.7908  1.1109  0.8155
 9947SOL     OW30418   0.823   5.484   4.649  0.0915  0.3657  0.2872
 9947SOL    HW130419   0.856   5.571   4.626  0.2080  0.2368 -0.0309
 9947SOL    HW230420   0.807   5.441   4.566  0.9116 -0.2528  0.4378
 9948SOL     OW30421   7.706   1.748   7.329 -0.2015  0.7628 -0.7687
 9948SOL    HW130422   7.754   1.829   7.349  1.0056 -0.2978  0.8709
 9948SOL    HW230423   7.673   1.761   7.240 -1.4059  3.6933 -0.0045
 9949SOL     OW30424   8.282   7.580   4.934 -0.2497  0.8736 -0.2776
 9949SOL    HW130425   8.201   7.554   4.891  0.0881 -1.0778  0.1756
 9949SOL    HW230426   8.256   7.602   5.023 -0.2767  0.2033 -0.1190
 9950SOL     OW30427   5.107   0.429   0.930  0.5132  0.9011  0.2760
 9950SOL    HW130428   5.132   0.504   0.876  0.3232  1.3096  0.7324
 9950SOL    HW230429   5.184   0.373   0.932  0.3187  0.5866 -0.9009
 9951SOL     OW30430   5.568   1.054   3.413 -0.0577  0.3353  0.1652
 9951SOL    HW130431   5.522   1.136   3.398 -0.7133 -0.2832 -1.3922
 9951SOL    HW230432   5.635   1.075   3.477  0.0869  2.2091 -0.5543
 9952SOL     OW30433   3.010   8.766   8.832  0.4563 -0.1788  0.3058
 9952SOL    HW130434   3.025   8.847   8.881  2.7917 -0.1735 -0.2929
 9952SOL    HW230435   3.073   8.770   8.760 -1.6849 -0.9734 -1.7512
 9953SOL     OW30436   7.935   0.226   7.728  0.2999 -0.0291 -0.9786
 9953SOL    HW130437   7.971   0.272   7.804  0.3458  1.2467 -1.7558
 9953SOL    HW230438   7.962   0.135   7.741 -1.3128 -0.2562  1.5064
 9954SOL     OW30439   0.243   6.832   7.959  0.1727  0.3505 -0.0676
 9954SOL    HW130440   0.150   6.835   7.981  0.2756 -0.0555  0.4473
 9954SOL    HW230441   0.250   6.878   7.875 -0.2977  1.5646  0.5363
 9955SOL     OW30442   1.359   4.865   5.911 -0.1380  0.2269  0.0717
 9955SOL    HW130443   1.415   4.803   5.957 -0.3118 -1.2854 -1.6618
 9955SOL    HW230444   1.280   4.816   5.889 -0.9647  1.5179  0.0065
 9956SOL     OW30445   4.188   9.540   1.530 -0.2823  0.8106 -0.1787
 9956SOL    HW130446   4.225   9.573   1.448 -0.0463  0.6938 -0.1224
 9956SOL    HW230447   4.094   9.540   1.516 -0.2478  0.8872 -0.4143
 9957SOL     OW30448   1.944   1.237   5.844 -0.0837 -0.2842 -0.4036
 9957SOL    HW130449   1.885   1.186   5.900  0.0449  0.6104  0.5722
 9957SOL    HW230450   1.886   1.273   5.776  0.0232 -2.7844 -1.9543
 9958SOL     OW30451   8.235   7.609   7.637  0.2712 -0.0890 -0.0113
 9958SOL    HW130452   8.284   7.689   7.656  0.8647 -0.3229 -0.5124
 9958SOL    HW230453   8.165   7.607   7.703 -1.1518  2.0052 -1.3286
 9959SOL     OW30454   9.682   7.724   4.405  0.2472  0.5428 -0.0111
 9959SOL    HW130455   9.720   7.660   4.466 -0.8822  2.2094  2.6312
 9959SOL    HW230456   9.701   7.689   4.319 -0.0180 -3.1974  1.2596
 9960SOL     OW30457   5.740   8.154   2.742 -0.0910  0.1398 -0.5126
 9960SOL    HW130458   5.690   8.190   2.815 -1.6346 -1.0485 -0.9117
 9960SOL    HW230459   5.815   8.112   2.783 -0.3055  0.5093  0.2783
 9961SOL     OW30460   1.316   0.778   7.390  0.4465 -0.4893 -0.1163
 9961SOL    HW130461   1.399   0.798   7.347  0.7483 -0.7998  0.3191
 9961SOL    HW230462   1.251   0.788   7.320  0.8196 -0.0386 -0.4098
 9962SOL     OW30463   3.930   1.880   2.091  0.3073 -0.0762 -0.3243
 9962SOL    HW130464   3.974   1.839   2.165  1.8260 -0.4617 -1.3881
 9962SOL    HW230465   4.001   1.916   2.038 -0.7933  0.9324 -1.1678
 9963SOL     OW30466   4.080   5.975   9.633 -0.0278  0.3278  0.5279
 9963SOL    HW130467   4.132   6.045   9.672 -0.6250  1.5974 -0.8314
 9963SOL    HW230468   4.055   5.919   9.706  0.2603  1.6786  1.6993
 9964SOL     OW30469   7.006   7.597   0.930 -0.1074  0.0087  0.4512
 9964SOL    HW130470   6.954   7.516   0.921 -0.1126 -0.0381  0.8778
 9964SOL    HW230471   7.084   7.580   0.877 -1.0991  0.5872 -1.2953
 9965SOL     OW30472   8.279   5.143   9.719  0.7211  0.0158 -0.4347
 9965SOL    HW130473   8.277   5.101   9.805  0.1204 -0.5996 -0.7474
 9965SOL    HW230474   8.372   5.160   9.703  1.1039 -2.1858 -0.7729
 9966SOL     OW30475   4.364   8.585   8.250 -0.3297 -0.1979  0.1586
 9966SOL    HW130476   4.418   8.640   8.193 -0.0284 -0.2669  0.3767
 9966SOL    HW230477   4.401   8.598   8.337 -0.3521 -0.6350  0.2332
 9967SOL     OW30478   9.586   6.171   2.530 -0.3924  0.4945 -0.3709
 9967SOL    HW130479   9.558   6.260   2.549 -0.0472  0.6418 -0.5405
 9967SOL    HW230480   9.664   6.158   2.585 -1.0805 -0.0874  0.4864
 9968SOL     OW30481   5.307   9.453   0.861 -0.7005  0.3911  0.3261
 9968SOL    HW130482   5.249   9.465   0.786 -2.1285  1.2399  1.5093
 9968SOL    HW230483   5.283   9.367   0.896  0.2211 -0.1659 -0.3916
 9969SOL     OW30484   3.200   7.993   8.114 -0.2764  0.1176  0.1756
 9969SOL    HW130485   3.273   7.989   8.053 -0.0412  1.9450  0.3049
 9969SOL    HW230486   3.122   7.989   8.059 -0.0837 -0.2184 -0.0779
 9970SOL     OW30487   3.170   0.168   7.325 -0.5446  0.1833  0.2515
 9970SOL    HW130488   3.224   0.136   7.397 -0.7691 -0.1513  0.2756
 9970SOL    HW230489   3.226   0.163   7.248  0.3622  2.3996  0.7085
 9971SOL     OW30490   7.480   4.655   2.595 -0.0325 -0.1887 -0.5761
 9971SOL    HW130491   7.506   4.569   2.562 -0.1805 -0.6536  0.4718
 9971SOL    HW230492   7.553   4.681   2.652 -1.8722 -1.7247  2.8145
 9972SOL     OW30493   1.473   8.981   4.127 -0.4071  0.1813 -0.4861
 9972SOL    HW130494   1.534   8.918   4.090  0.2669  0.9106 -0.6587
 9972SOL    HW230495   1.427   8.934   4.196 -1.4167 -1.1083 -1.9779
 9973SOL     OW30496   5.204   3.673   9.134  0.1646 -0.3615 -0.4018
 9973SOL    HW130497   5.174   3.714   9.053 -0.7953 -1.1740 -0.4691
 9973SOL    HW230498   5.125   3.662   9.186  0.7840  0.2569  0.7149
 9974SOL     OW30499   9.322   7.313   2.169 -0.2037  0.1738  0.0251
 9974SOL    HW130500   9.412   7.344   2.175 -0.2782  0.2862  0.7707
 9974SOL    HW230501   9.271   7.391   2.148 -0.0923  0.0517 -0.6970
 9975SOL     OW30502   5.863   5.844   6.368  0.4109 -0.2538 -0.7693
 9975SOL    HW130503   5.839   5.878   6.454 -0.3782 -0.5674 -0.8615
 9975SOL    HW230504   5.954   5.814   6.379 -0.2531 -1.9509  0.4645
 9976SOL     OW30505   1.332   6.766   7.422 -0.0967 -0.2480  0.6328
 9976SOL    HW130506   1.244   6.797   7.401 -1.6045 -3.5253  1.4445
 9976SOL    HW230507   1.361   6.824   7.492 -2.3921 -0.0818  1.5659
 9977SOL     OW30508   2.532   1.171   0.962 -0.2727 -0.3782  0.0296
 9977SOL    HW130509   2.582   1.114   0.904  1.2464 -0.0583  0.9704
 9977SOL    HW230510   2.590   1.186   1.037 -1.7160  0.1752  1.0787
 9978SOL     OW30511   6.410   3.715   3.366 -0.0681 -0.4223  0.2640
 9978SOL    HW130512   6.386   3.646   3.305 -0.2271  1.1614 -1.5495
 9978SOL    HW230513   6.505   3.722   3.360  0.1247 -1.4911  1.6284
 9979SOL     OW30514   5.187   4.533   0.386  0.1019 -0.4554 -0.2750
 9979SOL    HW130515   5.103   4.500   0.418  1.1849 -1.5817  1.7066
 9979SOL    HW230516   5.168   4.571   0.301 -2.6321  0.5061  0.6590
 9980SOL     OW30517   7.279   5.736   7.288  0.8292  0.2987 -0.6134
 9980SOL    HW130518   7.346   5.773   7.232  0.8098  1.6830  0.2342
 9980SOL    HW230519   7.312   5.749   7.377 -0.3795  0.6739 -0.1953
 9981SOL     OW30520   8.835   1.180   2.639  0.0047  0.1006 -0.0807
 9981SOL    HW130521   8.789   1.260   2.663 -3.0568 -1.2285 -1.0078
 9981SOL    HW230522   8.866   1.144   2.723  0.4014  1.6222  0.4529
 9982SOL     OW30523   3.499   8.677   0.357 -0.3709 -0.0029 -0.2941
 9982SOL    HW130524   3.495   8.771   0.369  1.0231  0.0508 -0.1511
 9982SOL    HW230525   3.588   8.660   0.326 -0.6142 -1.2670 -0.3659
 9983SOL     OW30526   9.657   1.280   2.339  0.2032  0.9710 -0.1202
 9983SOL    HW130527   9.735   1.328   2.368  1.0298 -0.5708  0.3529
 9983SOL    HW230528   9.589   1.306   2.400  1.0685  0.3291  1.1741
 9984SOL     OW30529   7.054   4.792   8.053 -0.2970 -0.3931  0.1999
 9984SOL    HW130530   7.149   4.781   8.045  0.0944  2.0223  0.6763
 9984SOL    HW230531   7.021   4.781   7.963  0.4564 -1.0125 -0.0107
 9985SOL     OW30532   1.843   9.658   0.431 -0.3728  0.8597  0.3903
 9985SOL    HW130533   1.776   9.636   0.367 -0.2313  1.8171 -0.1028
 9985SOL    HW230534   1.808   9.627   0.515 -1.3519  1.1954  0.1118
 9986SOL     OW30535   1.238   0.108   0.908  0.3941 -0.0625 -0.4301
 9986SOL    HW130536   1.224   0.200   0.886 -0.2933 -0.1701 -0.4405
 9986SOL    HW230537   1.310   0.110   0.972 -0.7560  0.6305  0.8981
 9987SOL     OW30538   7.639   2.540   9.107 -0.0687  0.2586  0.0260
 9987SOL    HW130539   7.617   2.512   9.195 -1.7542  2.8129  0.5220
 9987SOL    HW230540   7.735   2.540   9.104  0.1646  2.7957  2.8881
 9988SOL     OW30541   8.189   5.344   9.050 -0.2824  0.0972 -0.5638
 9988SOL    HW130542   8.104   5.301   9.041 -0.0783 -0.4859  0.1494
 9988SOL    HW230543   8.223   5.312   9.133  0.6665  0.2703 -0.8700
 9989SOL     OW30544   3.171   4.410   2.319  0.1380  0.6249 -0.4766
 9989SOL    HW130545   3.153   4.432   2.227 -1.0687  1.5706 -0.0367
 9989SOL    HW230546   3.224   4.483   2.351  1.4976 -0.2285 -0.6809
 9990SOL     OW30547   5.658   8.911   3.912  0.0238  0.6000  0.5730
 9990SOL    HW130548   5.609   8.858   3.850 -0.7780  0.5231  1.2518
 9990SOL    HW230549   5.599   8.921   3.987  0.8144  1.0229  1.1557
 9991SOL     OW30550   9.583   0.817   4.762  0.2386 -0.2914  0.0303
 9991SOL    HW130551   9.528   0.876   4.712 -0.2012  0.2861  1.1702
 9991SOL    HW230552   9.547   0.730   4.745 -0.7709  0.0374  0.4333
 9992SOL     OW30553   8.735   2.956   9.350 -0.1306 -0.5424  0.2950
 9992SOL    HW130554   8.648   2.917   9.338 -0.0235 -0.3493 -1.2816
 9992SOL    HW230555   8.787   2.886   9.391 -0.6214 -1.1726 -0.1346
 9993SOL     OW30556   0.315   2.127   3.205 -0.2822 -0.2509 -0.1705
 9993SOL    HW130557   0.307   2.222   3.191 -1.4005 -0.5778 -2.0979
 9993SOL    HW230558   0.314   2.117   3.300  3.1516  1.8927  0.2938
 9994SOL     OW30559   3.658   8.545   6.726 -0.2561  0.4531 -0.3263
 9994SOL    HW130560   3.648   8.640   6.725  2.1081  0.7464 -1.3235
 9994SOL    HW230561   3.581   8.512   6.680  0.0408  2.0518 -2.0554
 9995SOL     OW30562   7.501   6.622   5.356  0.4965  0.2900  0.5065
 9995SOL    HW130563   7.542   6.674   5.425  1.1333  1.0873 -0.4491
 9995SOL    HW230564   7.557   6.544   5.349 -0.3917 -0.5174  1.8565
 9996SOL     OW30565   2.946   5.852   3.887  0.1748  0.2825 -0.1900
 9996SOL    HW130566   2.870   5.795   3.877 -1.3827  2.0742  0.7324
 9996SOL    HW230567   3.003   5.830   3.814 -1.2994 -1.0124 -1.0004
 9997SOL     OW30568   4.422   8.269   5.521 -0.0247 -0.3199  0.2442
 9997SOL    HW130569   4.395   8.246   5.432  0.2855  0.0135  0.0604
 9997SOL    HW230570   4.506   8.224   5.533 -0.3122 -0.7831  0.5583
 9998SOL     OW30571   4.434   2.995   3.168 -0.2846 -0.0902 -0.5125
 9998SOL    HW130572   4.506   2.988   3.105 -0.6313 -0.8623 -0.8372
 9998SOL    HW230573   4.356   2.975   3.117 -0.7618  0.9285 -0.2085
 9999SOL     OW30574   2.737   4.925   0.824 -0.3752 -0.2940  0.4660
 9999SOL    HW130575   2.649   4.958   0.809 -0.6071 -1.7946 -1.8403
 9999SOL    HW230576   2.726   4.855   0.889 -0.7968 -0.1638  0.5386
10000SOL     OW30577   7.612   4.352   2.247  0.0879  0.3014 -0.0982
10000SOL    HW130578   7.702   4.354   2.215 -0.0859  0.6960 -0.5978
10000SOL    HW230579   7.618   4.374   2.339  0.5719 -0.4393  0.0550
10001SOL     OW30580   9.935   3.648   4.883 -0.5641  0.1389  0.0360
10001SOL    HW130581   9.875   3.590   4.837 -0.8923 -1.0682  1.8657
10001SOL    HW230582  10.008   3.661   4.822 -0.7150 -1.8287 -0.6182
10002SOL     OW30583   9.498   9.725   5.486  0.5969  0.4256 -0.4173
10002SOL    HW130584   9.483   9.815   5.455 -1.4233 -0.2947 -1.6788
10002SOL    HW230585   9.418   9.702   5.532  0.6356 -1.1296 -1.0843
10003SOL     OW30586   3.493   6.363   8.311  0.2249 -0.1741 -0.0945
10003SOL    HW130587   3.501   6.297   8.242 -0.4109  0.1589 -0.5029
10003SOL    HW230588   3.581   6.400   8.319  0.6613 -1.2630  0.3469
10004SOL     OW30589   1.159   0.699   2.018 -0.1983 -0.0593  0.7537
10004SOL    HW130590   1.122   0.689   1.930 -0.8552 -0.7811  1.1006
10004SOL    HW230591   1.252   0.718   2.003 -0.4548  0.5754 -0.1058
10005SOL     OW30592   1.363   1.694   9.854  0.0005 -0.3064  0.4401
10005SOL    HW130593   1.453   1.711   9.827 -0.6944  0.8855 -1.3157
10005SOL    HW230594   1.339   1.770   9.906 -0.3569 -0.0605 -0.0802
10006SOL     OW30595   7.603   4.963   4.803  0.2265 -0.3243 -0.0079
10006SOL    HW130596   7.672   5.028   4.787  0.4002  0.0051  1.8585
10006SOL    HW230597   7.578   4.933   4.716  1.7228  0.6018 -0.7999
10007SOL     OW30598   9.817   8.046   7.313  0.1276 -0.2454 -0.1264
10007SOL    HW130599   9.755   8.001   7.257 -0.0518  1.5726 -1.4624
10007SOL    HW230600   9.872   8.098   7.253  0.6603  0.8906  1.2678
10008SOL     OW30601   4.308   9.643   6.197 -0.7928  0.5721 -0.2853
10008SOL    HW130602   4.303   9.552   6.226  0.6812 -0.1300 -2.0803
10008SOL    HW230603   4.357   9.688   6.265 -0.2171 -0.3153 -0.1052
10009SOL     OW30604   9.688   1.143   7.825 -0.3291  0.0574 -0.3341
10009SOL    HW130605   9.671   1.049   7.832  0.6390 -0.1440 -0.4875
10009SOL    HW230606   9.784   1.149   7.815 -0.1620  1.1676  1.5184
10010SOL     OW30607   0.316   5.427   5.620  0.2648 -0.2273 -0.4863
10010SOL    HW130608   0.308   5.487   5.546  0.1758 -0.4667 -0.6717
10010SOL    HW230609   0.383   5.467   5.676 -1.0975  1.0376  0.3408
10011SOL     OW30610   8.188   6.037   3.725 -0.0690  0.2999  0.2812
10011SOL    HW130611   8.188   6.127   3.757 -0.1515 -0.3940  2.3735
10011SOL    HW230612   8.278   6.007   3.737  0.0828  0.2174 -0.8772
10012SOL     OW30613   8.483   0.564   8.217  0.0089 -1.1325 -0.2931
10012SOL    HW130614   8.500   0.610   8.299  1.4621 -0.0077 -1.1750
10012SOL    HW230615   8.395   0.593   8.191 -0.7703 -2.0570  1.1777
10013SOL     OW30616   8.293   1.896   8.792 -0.4496  0.4784  0.5192
10013SOL    HW130617   8.204   1.874   8.818 -0.4078  1.1947  1.3155
10013SOL    HW230618   8.312   1.978   8.838  0.4349  0.6073 -0.0483
10014SOL     OW30619   0.346   3.973   7.325  0.0656 -0.4357  0.0326
10014SOL    HW130620   0.274   3.975   7.389 -2.8309 -0.8860 -2.9274
10014SOL    HW230621   0.382   4.061   7.326 -2.6109  0.7611 -0.4086
10015SOL     OW30622   9.927   6.904   2.371 -0.5437 -0.1678  0.5654
10015SOL    HW130623   9.988   6.851   2.423 -0.0808  0.9046  1.1423
10015SOL    HW230624   9.908   6.979   2.427  1.0269  1.7340 -1.3207
10016SOL     OW30625   4.539   4.415   5.521  0.4959 -0.4435  0.2912
10016SOL    HW130626   4.453   4.376   5.539  0.1164 -1.2750 -2.7540
10016SOL    HW230627   4.595   4.340   5.502  1.9673  0.0982  2.1523
10017SOL     OW30628   5.166   6.917   2.748 -0.1372  0.4329 -0.7461
10017SOL    HW130629   5.158   6.961   2.833  0.5880 -0.9299  0.0560
10017SOL    HW230630   5.207   6.833   2.768  0.2927  0.1905 -2.4891
10018SOL     OW30631   8.721   9.044   6.070  0.1147  0.0138 -0.3986
10018SOL    HW130632   8.709   9.038   6.165  1.0703  1.3165 -0.1666
10018SOL    HW230633   8.759   8.960   6.045 -0.2298 -0.3772  0.3482
10019SOL     OW30634   4.949   3.715   3.634 -0.1960  0.2497  0.0320
10019SOL    HW130635   4.998   3.709   3.716 -0.5064  1.1646  0.3004
10019SOL    HW230636   4.859   3.734   3.661 -0.6567 -1.1042 -0.4632
10020SOL     OW30637   6.803   2.575   3.658  0.0914 -0.0825 -0.6067
10020SOL    HW130638   6.825   2.646   3.596  1.7716 -1.8067 -2.1476
10020SOL    HW230639   6.833   2.496   3.613 -0.7351 -1.6604  1.5144
10021SOL     OW30640   8.616   3.396   1.194 -0.2362 -0.3467  0.2897
10021SOL    HW130641   8.682   3.451   1.151 -0.9892  0.2534 -0.1151
10021SOL    HW230642   8.637   3.403   1.288  0.1097  0.0626  0.1853
10022SOL     OW30643   7.905   5.452   3.167  0.6775  0.1189  0.2255
10022SOL    HW130644   7.930   5.452   3.075 -0.9261  1.0363 -0.2421
10022SOL    HW230645   7.972   5.506   3.209  1.1203  0.1417 -0.4849
10023SOL     OW30646   5.169   8.205   7.414 -0.4018  0.1663  0.5689
10023SOL    HW130647   5.219   8.263   7.356  1.3814 -0.3162  1.5570
10023SOL    HW230648   5.135   8.137   7.355 -1.3398  1.4020 -0.3754
10024SOL     OW30649   0.602   0.186   4.452 -0.1519 -0.0108 -0.0703
10024SOL    HW130650   0.523   0.146   4.414 -0.9950  1.8774 -0.4311
10024SOL    HW230651   0.653   0.212   4.375  0.6322 -0.8011  0.1662
10025SOL     OW30652   2.662   0.424   7.196  0.6406  0.4091  0.0473
10025SOL    HW130653   2.604   0.397   7.267  0.1095 -1.8671 -1.1510
10025SOL    HW230654   2.742   0.372   7.209  0.7210  0.3180 -0.7405
10026SOL     OW30655   0.265   3.491   6.727 -0.9940 -0.1199  0.1762
10026SOL    HW130656   0.262   3.470   6.821  1.2546 -0.9006  0.1314
10026SOL    HW230657   0.324   3.566   6.722 -0.7012 -0.4010 -0.6636
10027SOL     OW30658   2.506   3.052   9.928 -0.3883 -0.7784 -0.0604
10027SOL    HW130659   2.485   3.109   9.854  0.1832 -1.6722 -0.9396
10027SOL    HW230660   2.558   3.107   9.986 -0.6696 -0.1192 -0.4153
10028SOL     OW30661   8.859   7.272   9.025  0.0282 -0.2206 -0.2821
10028SOL    HW130662   8.901   7.357   9.010  0.1947 -0.0241  1.1337
10028SOL    HW230663   8.775   7.279   8.980  0.3598  0.4094 -0.8276
10029SOL     OW30664   0.883   8.871   8.564  0.7500  0.2539 -0.0086
10029SOL    HW130665   0.832   8.922   8.627  0.7055 -0.4512  0.5314
10029SOL    HW230666   0.831   8.873   8.484 -1.6686 -2.8684  1.2973
10030SOL     OW30667   6.876   9.500   6.425  0.3435  0.4032  0.4312
10030SOL    HW130668   6.959   9.519   6.383  0.1007 -0.9887 -0.7307
10030SOL    HW230669   6.899   9.474   6.514  0.7990  4.4314  1.7161
10031SOL     OW30670   1.012   3.419   0.899  0.2466 -0.2609 -0.0728
10031SOL    HW130671   1.028   3.506   0.935  0.6753  0.2177 -1.3791
10031SOL    HW230672   1.076   3.363   0.943  2.0416  0.6612 -1.3875
10032SOL     OW30673   4.448   1.608   8.358  0.6725 -0.1574 -0.5074
10032SOL    HW130674   4.486   1.673   8.300  0.9342 -0.5062 -0.7249
10032SOL    HW230675   4.353   1.616   8.344  0.6567  0.6904  0.0202
10033SOL     OW30676   9.845   4.451   3.238  0.0398 -0.0158 -0.2307
10033SOL    HW130677   9.798   4.501   3.171 -0.6843 -0.9652 -0.4542
10033SOL    HW230678   9.917   4.410   3.191  2.0028  2.5184  0.3591
10034SOL     OW30679   0.492   5.589   2.288 -0.1461 -0.0373 -0.7869
10034SOL    HW130680   0.544   5.656   2.333 -0.7132 -1.0125  1.4051
10034SOL    HW230681   0.439   5.639   2.226  0.6611  1.3570 -0.4158
10035SOL     OW30682   2.712   2.130   1.654  0.0043  0.1575  0.3773
10035SOL    HW130683   2.784   2.167   1.603  1.3067 -0.6286  1.5856
10035SOL    HW230684   2.701   2.190   1.727 -0.0362 -0.1454  0.6198
10036SOL     OW30685   1.868   3.632   9.235 -0.2746 -0.9122 -0.2336
10036SOL    HW130686   1.840   3.592   9.317 -0.8962 -1.0823 -0.5216
10036SOL    HW230687   1.936   3.574   9.201  0.0933 -0.7594  0.2315
10037SOL     OW30688   6.629   4.163   3.059 -0.2405  0.3951 -0.2088
10037SOL    HW130689   6.690   4.230   3.029  0.5051 -0.4228 -0.5571
10037SOL    HW230690   6.676   4.117   3.128  0.0694 -1.0663 -1.3356
10038SOL     OW30691   0.684   8.192   7.369  0.2490  0.2674  0.1993
10038SOL    HW130692   0.636   8.181   7.451 -1.7144 -0.3773 -0.9679
10038SOL    HW230693   0.707   8.285   7.367  1.6603  0.0192  2.1293
10039SOL     OW30694   5.409   8.230   6.436 -0.3478  0.2189  0.2916
10039SOL    HW130695   5.336   8.285   6.463  0.2965  1.0655  0.3860
10039SOL    HW230696   5.475   8.293   6.405 -0.3299 -0.6132 -1.4422
10040SOL     OW30697   7.825   1.175   7.834  0.5601 -0.5428  0.5872
10040SOL    HW130698   7.912   1.212   7.821 -0.1593  1.1000  0.2359
10040SOL    HW230699   7.781   1.184   7.749 -0.3448 -0.2554  1.0663
10041SOL     OW30700   9.553   2.879   1.866 -0.5903  0.0385  0.3547
10041SOL    HW130701   9.554   2.870   1.771 -0.9457  0.0045  0.3544
10041SOL    HW230702   9.596   2.963   1.883 -0.0323 -0.2073  0.1960
10042SOL     OW30703   8.358   7.697   3.533  0.2830 -0.1021 -0.2869
10042SOL    HW130704   8.319   7.609   3.533 -1.4194  0.5624  1.6964
10042SOL    HW230705   8.359   7.723   3.441  0.9573 -2.2113 -0.9377
10043SOL     OW30706   9.790   4.642   2.716 -0.0199 -0.4630 -0.6139
10043SOL    HW130707   9.705   4.673   2.748  1.2071  2.3777  0.2137
10043SOL    HW230708   9.784   4.546   2.721 -2.6383 -0.3140  0.7809
10044SOL     OW30709   7.396   1.328   4.294 -0.2362 -0.3798 -0.3028
10044SOL    HW130710   7.430   1.369   4.374  0.7244  0.9405 -1.3459
10044SOL    HW230711   7.304   1.312   4.313 -0.0956  0.1940  0.9658
10045SOL     OW30712   0.390   6.741   2.416 -1.1830 -0.3556  0.0524
10045SOL    HW130713   0.473   6.719   2.457 -0.8981 -1.4940 -1.0834
10045SOL    HW230714   0.386   6.686   2.337 -3.1271 -0.5411  0.2260
10046SOL     OW30715   7.315   1.970   2.465  0.1070  0.1474  0.6178
10046SOL    HW130716   7.385   1.938   2.523  0.0382  0.3309  0.8048
10046SOL    HW230717   7.361   2.026   2.402 -0.1907  2.8136  2.5889
10047SOL     OW30718   6.605   7.680   1.620  0.0805 -0.0596  0.1166
10047SOL    HW130719   6.631   7.626   1.695  2.9074 -0.5153 -1.0902
10047SOL    HW230720   6.618   7.770   1.650  0.8301 -0.2279  0.2974
10048SOL     OW30721   7.184   1.154   6.010  0.1842 -0.1564 -0.6092
10048SOL    HW130722   7.254   1.103   5.969  0.7331  0.2726 -0.2162
10048SOL    HW230723   7.147   1.096   6.076  1.2567  0.1696  0.3074
10049SOL     OW30724   3.225   7.903   2.600  0.3836  0.2440  0.3728
10049SOL    HW130725   3.215   7.822   2.550  0.0184 -0.5621  1.6836
10049SOL    HW230726   3.318   7.925   2.591  0.1867  0.5086 -1.1983
10050SOL     OW30727   4.877   1.621   0.127 -0.0176  0.3796 -0.2988
10050SOL    HW130728   4.819   1.692   0.157  0.1385  0.5075 -0.2980
10050SOL    HW230729   4.854   1.609   0.035  0.9119  1.3769 -0.6722
10051SOL     OW30730   8.075   6.833   1.262 -0.4422  0.4375 -0.0586
10051SOL    HW130731   8.035   6.835   1.175  2.0399  1.6060 -1.2566
10051SOL    HW230732   8.166   6.858   1.248  1.1785 -3.2297  2.3580
10052SOL     OW30733   6.676   1.962   9.147  0.3044 -0.0000  0.2975
10052SOL    HW130734   6.750   1.937   9.091  0.5314 -0.5421  0.8364
10052SOL    HW230735   6.704   2.043   9.189  0.0821  0.4846 -0.4610
10053SOL     OW30736   6.900   6.373   2.224  0.7253 -0.6175  0.5249
10053SOL    HW130737   6.957   6.439   2.186  2.0135 -1.1270  1.4874
10053SOL    HW230738   6.861   6.415   2.300  0.2746 -0.4560  0.2057
10054SOL     OW30739   8.092   4.964   5.916  0.1922 -0.4787 -0.4570
10054SOL    HW130740   8.003   4.983   5.887  0.3867  1.0218 -0.1207
10054SOL    HW230741   8.123   4.898   5.853 -0.4037  0.5735 -1.9135
10055SOL     OW30742   5.110   3.795   9.399  0.0834  0.1805 -0.4913
10055SOL    HW130743   5.046   3.738   9.440  0.6557  1.1239  1.8957
10055SOL    HW230744   5.067   3.880   9.393  0.3434  0.2838 -0.9478
10056SOL     OW30745   1.745   7.093   2.479  0.1216 -0.5264 -0.0016
10056SOL    HW130746   1.679   7.023   2.482 -0.0127 -0.4575 -1.1151
10056SOL    HW230747   1.787   7.084   2.394  0.7982  0.1312  0.2483
10057SOL     OW30748   6.747   2.419   0.846  0.4217 -0.5270 -0.1101
10057SOL    HW130749   6.775   2.351   0.784 -2.9683  0.1493 -2.6931
10057SOL    HW230750   6.807   2.492   0.829  0.5471 -0.9166 -1.5132
10058SOL     OW30751   9.412   1.596   9.297  0.6874  0.3900  0.0058
10058SOL    HW130752   9.501   1.627   9.283  1.2630  0.2821  2.8988
10058SOL    HW230753   9.363   1.675   9.320  0.3711  0.2088 -0.0350
10059SOL     OW30754   1.487   6.786   7.002  0.8720 -0.1880  0.1124
10059SOL    HW130755   1.487   6.881   6.995  1.0334 -0.2359 -0.5964
10059SOL    HW230756   1.398   6.764   7.029  0.3919  0.0706 -1.1950
10060SOL     OW30757   5.963   5.951   7.939  0.0948 -0.1869  0.7576
10060SOL    HW130758   6.044   5.999   7.921  0.4283 -1.0584 -0.1466
10060SOL    HW230759   5.906   5.971   7.865 -0.6620  0.6983  1.5601
10061SOL     OW30760   5.638   0.574   2.058 -0.3252  1.0765  0.4542
10061SOL    HW130761   5.706   0.640   2.048  0.8309 -0.1067  0.1560
10061SOL    HW230762   5.660   0.507   1.992 -0.4566 -0.4084  1.8485
10062SOL     OW30763   3.482   4.938   8.192 -0.2343  0.2328  0.1782
10062SOL    HW130764   3.577   4.943   8.200 -0.3740  1.1228  1.5484
10062SOL    HW230765   3.455   4.877   8.261 -0.7998  1.4882  1.1027
10063SOL     OW30766   4.168   6.716   7.209  0.5975  0.2358 -0.1120
10063SOL    HW130767   4.168   6.655   7.136  0.8423 -0.2569  0.2935
10063SOL    HW230768   4.244   6.691   7.262  0.0057  0.1001  0.7004
10064SOL     OW30769   6.883   0.361   9.864  0.5620 -0.2320  0.0468
10064SOL    HW130770   6.830   0.283   9.850  2.4975 -1.6030  0.0610
10064SOL    HW230771   6.961   0.330   9.910  1.0748  1.8218  0.6593
10065SOL     OW30772   5.717   7.463   5.557 -0.0563  0.7641 -0.3359
10065SOL    HW130773   5.764   7.505   5.485 -1.1970  1.7700 -0.5139
10065SOL    HW230774   5.765   7.488   5.636  2.2985 -1.8022 -0.7809
10066SOL     OW30775   9.087   9.985   7.481  0.1756  0.5150  0.1280
10066SOL    HW130776   9.091   9.975   7.576  3.1996  3.3634  0.4725
10066SOL    HW230777   9.140   9.912   7.448  0.5788  0.5195  0.7476
10067SOL     OW30778   0.208   1.960   8.847 -0.1205 -0.1032  0.0565
10067SOL    HW130779   0.173   1.909   8.920 -1.4715 -0.9858 -1.1397
10067SOL    HW230780   0.286   1.912   8.819  1.0435  0.8360  1.5574
10068SOL     OW30781   0.512   6.201   7.624 -0.6160  0.1797 -0.0025
10068SOL    HW130782   0.579   6.226   7.561  0.4085  2.3518  1.7891
10068SOL    HW230783   0.450   6.274   7.623 -0.6056  0.2299  1.4438
10069SOL     OW30784   4.183   1.292   9.475  0.5112  0.0517  0.0094
10069SOL    HW130785   4.256   1.352   9.486  0.7868 -0.0253 -1.3073
10069SOL    HW230786   4.137   1.323   9.397  0.3861 -1.1655 -0.4232
10070SOL     OW30787   6.400   1.241   3.433 -0.0599  0.3300  0.3156
10070SOL    HW130788   6.467   1.240   3.365 -0.0936 -1.0751  0.2568
10070SOL    HW230789   6.344   1.315   3.412 -0.2598 -0.2586 -1.3881
10071SOL     OW30790   4.646   5.527   8.491 -0.3760 -1.1182 -0.7514
10071SOL    HW130791   4.620   5.587   8.561 -1.1666 -1.5886 -0.6231
10071SOL    HW230792   4.695   5.581   8.430  2.7938 -1.2151  1.4673
10072SOL     OW30793   8.922   3.920   4.476  0.1433 -0.0056  0.3793
10072SOL    HW130794   8.888   3.987   4.417  0.0412 -0.5482 -0.1723
10072SOL    HW230795   8.851   3.905   4.539  0.0538  0.1749  0.3214
10073SOL     OW30796   0.823   2.294   0.782 -0.3848 -0.4289 -0.5775
10073SOL    HW130797   0.774   2.227   0.831  1.3315 -0.5238  1.1036
10073SOL    HW230798   0.911   2.292   0.819 -0.0099  2.1045 -1.1490
10074SOL     OW30799   9.691   2.817   3.009  0.4783  0.5269  0.2668
10074SOL    HW130800   9.764   2.773   2.964  0.0855  0.2993 -0.1549
10074SOL    HW230801   9.684   2.771   3.093 -0.2115 -0.5293 -0.3478
10075SOL     OW30802   0.741   1.661   1.175 -0.3659  0.3618 -0.1415
10075SOL    HW130803   0.698   1.745   1.160 -2.4779 -0.5117  0.5442
10075SOL    HW230804   0.669   1.597   1.173  0.7806 -1.1063  1.9041
10076SOL     OW30805   9.083   5.384   2.800 -0.1191 -0.0262 -0.3706
10076SOL    HW130806   9.061   5.350   2.713  0.7786 -0.1982 -0.5404
10076SOL    HW230807   9.055   5.315   2.860  0.2949 -0.4045 -0.6078
10077SOL     OW30808   5.459   8.333   2.829  0.2092  0.3560  0.4105
10077SOL    HW130809   5.462   8.402   2.763  0.5946  0.6970  0.7827
10077SOL    HW230810   5.416   8.373   2.904  1.0954  0.4293  0.8939
10078SOL     OW30811   8.269   1.749   4.600 -0.1430  0.2085  0.0056
10078SOL    HW130812   8.293   1.712   4.515 -1.6049 -2.6557  0.6897
10078SOL    HW230813   8.174   1.759   4.596 -0.2043  0.3009  1.1869
10079SOL     OW30814   0.513   3.468   8.943  0.6309 -0.8883 -0.0445
10079SOL    HW130815   0.504   3.473   8.847 -1.8472 -1.1785  0.1031
10079SOL    HW230816   0.423   3.474   8.975  1.4366 -0.5558  2.3038
10080SOL     OW30817   4.059   2.263   6.485  0.2709  0.0545 -0.5861
10080SOL    HW130818   4.153   2.259   6.501  0.1487  0.0082  0.1883
10080SOL    HW230819   4.044   2.350   6.447  0.2466  1.4811  2.3340
10081SOL     OW30820   5.932   7.503   4.627 -0.2381  0.1309  0.3897
10081SOL    HW130821   5.917   7.422   4.578  0.5880 -0.3500  0.9000
10081SOL    HW230822   6.009   7.542   4.587 -0.5856  0.6217  0.1998
10082SOL     OW30823   0.960   0.467   9.215 -0.3081 -0.6319  0.0431
10082SOL    HW130824   0.899   0.450   9.144 -0.3038 -0.1005 -0.0887
10082SOL    HW230825   0.953   0.390   9.272  0.6232 -1.6759 -1.1831
10083SOL     OW30826   6.544   7.222   7.770  0.1035 -0.2753  0.4339
10083SOL    HW130827   6.568   7.309   7.738  0.4076 -0.6530 -0.3763
10083SOL    HW230828   6.598   7.162   7.720 -0.4235 -0.9614  0.6741
10084SOL     OW30829   0.691   0.831   1.734 -0.1418  0.2628 -0.7075
10084SOL    HW130830   0.693   0.849   1.828 -0.4625 -0.9827 -0.4342
10084SOL    HW230831   0.769   0.874   1.699  0.7675 -0.4331  0.3709
10085SOL     OW30832   4.285   3.603   6.868 -0.4153  0.3148 -0.3111
10085SOL    HW130833   4.194   3.629   6.878  0.0059  1.7481 -0.0393
10085SOL    HW230834   4.332   3.654   6.934  0.6793  0.1637 -0.9550
10086SOL     OW30835   5.414   6.403   8.743 -0.0939  0.5329 -0.0089
10086SOL    HW130836   5.430   6.348   8.666 -0.9670 -0.0362  0.2069
10086SOL    HW230837   5.408   6.341   8.816  1.7613  1.1411  0.7174
10087SOL     OW30838   3.121   8.892   2.404 -0.3944 -0.2113 -0.1471
10087SOL    HW130839   3.142   8.846   2.323  1.1972 -1.0400  0.6786
10087SOL    HW230840   3.162   8.840   2.472  1.1362  2.1537  0.8853
10088SOL     OW30841   5.777   9.119   9.616  0.4255 -0.6587 -0.0248
10088SOL    HW130842   5.743   9.075   9.694  1.1473  1.0795  1.3375
10088SOL    HW230843   5.872   9.114   9.626  0.5137 -0.0210 -0.5577
10089SOL     OW30844   6.622   8.426   9.112 -0.2141  0.9197 -0.3388
10089SOL    HW130845   6.583   8.505   9.150 -0.7624  0.3004  0.3990
10089SOL    HW230846   6.665   8.382   9.186  2.6162  1.9511 -1.2189
10090SOL     OW30847   9.012   8.196   3.171  0.3724 -0.2452 -0.3414
10090SOL    HW130848   8.986   8.187   3.263  1.6368  0.3063  0.0970
10090SOL    HW230849   9.062   8.116   3.153 -0.4603 -0.6791 -0.7752
10091SOL     OW30850   2.099   8.772   9.173 -0.3480 -0.7904 -0.0751
10091SOL    HW130851   2.194   8.760   9.162 -0.7514 -2.7170 -2.0784
10091SOL    HW230852   2.078   8.846   9.117  0.0180  0.0833  0.8958
10092SOL     OW30853   0.140   7.765   4.302  0.3143  0.3405  0.1452
10092SOL    HW130854   0.104   7.698   4.243 -0.2061 -1.4647  2.3889
10092SOL    HW230855   0.235   7.751   4.298  0.2048 -0.6508  0.6870
10093SOL     OW30856   7.232   2.288   9.191  0.3832 -0.5045  0.0170
10093SOL    HW130857   7.275   2.212   9.153 -2.8554 -1.4815 -2.1072
10093SOL    HW230858   7.245   2.357   9.127 -1.2667 -0.8720 -0.7546
10094SOL     OW30859   5.934   6.007   0.445 -0.0414  0.5306  0.2228
10094SOL    HW130860   5.950   5.914   0.455 -0.2441  0.6514  2.0256
10094SOL    HW230861   5.921   6.020   0.351  1.6460 -0.9629 -0.2601
10095SOL     OW30862   9.369   6.422   3.080 -0.0197  0.0700 -0.3555
10095SOL    HW130863   9.290   6.398   3.032  0.0494 -2.4017  0.6655
10095SOL    HW230864   9.432   6.446   3.012 -1.4422  1.6029 -1.2061
10096SOL     OW30865   0.437   3.362   7.868  0.1658  0.2866  0.7034
10096SOL    HW130866   0.391   3.364   7.951 -1.2529  1.8415 -0.0498
10096SOL    HW230867   0.371   3.338   7.804 -0.5476  5.0485 -0.8019
10097SOL     OW30868   5.174   8.965   7.568 -0.1428  0.4474  0.0771
10097SOL    HW130869   5.111   9.030   7.536  0.7987  0.7471 -1.2362
10097SOL    HW230870   5.238   9.016   7.618 -0.8884  0.1428  1.4163
10098SOL     OW30871   4.730   7.332   5.186 -0.0635 -0.0648  0.3597
10098SOL    HW130872   4.661   7.357   5.126  0.1090  0.3346  0.3221
10098SOL    HW230873   4.726   7.237   5.190  0.4240 -0.1524 -0.8830
10099SOL     OW30874   7.452   2.436   7.157  0.2899 -0.2020  1.0437
10099SOL    HW130875   7.403   2.356   7.176 -1.7843  1.0414  1.2595
10099SOL    HW230876   7.401   2.480   7.089  1.8291  0.5633  0.3283
10100SOL     OW30877   7.286   4.310   7.454  0.0541 -0.2521 -0.0080
10100SOL    HW130878   7.377   4.336   7.468  0.2606 -0.4782 -0.8778
10100SOL    HW230879   7.272   4.239   7.518  0.3943 -0.0268  0.3254
10101SOL     OW30880   2.283   9.703   5.467  0.1860 -0.4551 -0.4095
10101SOL    HW130881   2.264   9.629   5.409  1.5150  0.1240 -1.6531
10101SOL    HW230882   2.341   9.759   5.415  0.7166  0.5251  1.1885
10102SOL     OW30883   5.784   6.194   8.618  0.1471 -0.4843  0.5679
10102SOL    HW130884   5.693   6.199   8.590  0.2093  1.8167  0.6003
10102SOL    HW230885   5.834   6.227   8.542  0.9015 -1.0618  0.7984
10103SOL     OW30886   9.106   2.846   7.629 -0.1872 -0.0579 -0.9132
10103SOL    HW130887   9.037   2.882   7.574 -0.4953 -1.3391 -1.3887
10103SOL    HW230888   9.063   2.778   7.680  0.2020  0.7837  0.5854
10104SOL     OW30889   4.334   7.614   4.767  0.5244  1.0292  0.0619
10104SOL    HW130890   4.360   7.547   4.831  1.3232  1.4753  0.2125
10104SOL    HW230891   4.360   7.697   4.807 -0.2701  1.4232 -0.2166
10105SOL     OW30892   3.903   6.945   4.084  0.2849 -0.8975 -0.4722
10105SOL    HW130893   3.910   6.906   4.171  2.1215  1.6679  0.6380
10105SOL    HW230894   3.826   7.002   4.090  0.3819 -0.7567 -0.5817
10106SOL     OW30895   1.061   6.815   4.329 -0.5540 -0.5849 -0.1036
10106SOL    HW130896   1.133   6.759   4.300 -1.0488 -1.5510  0.4972
10106SOL    HW230897   1.067   6.892   4.273  1.3938 -0.3098  0.4135
10107SOL     OW30898   4.601   8.932   0.637  0.1561 -0.4269 -0.8475
10107SOL    HW130899   4.514   8.894   0.622  0.3503 -2.3173  1.9809
10107SOL    HW230900   4.650   8.863   0.680  2.8997  0.8355 -1.7361
10108SOL     OW30901   6.408   1.610   8.450 -0.4331 -0.4976  0.1066
10108SOL    HW130902   6.361   1.635   8.370 -0.8634 -0.8229  0.2519
10108SOL    HW230903   6.464   1.537   8.424 -1.1832 -1.1466  0.2761
10109SOL     OW30904   5.304   2.184   8.311  0.0939  0.2308 -0.3972
10109SOL    HW130905   5.326   2.239   8.236 -0.1808 -0.4535 -0.9953
10109SOL    HW230906   5.388   2.162   8.350  0.2923 -0.0352 -0.9656
10110SOL     OW30907   4.176   2.555   2.850  0.3544 -0.0759 -0.1612
10110SOL    HW130908   4.254   2.521   2.805 -0.0949 -1.8820  0.3527
10110SOL    HW230909   4.105   2.499   2.820 -0.2673 -0.2021  1.4695
10111SOL     OW30910   9.890   5.836   0.796  0.3125 -0.3082  0.4775
10111SOL    HW130911   9.941   5.762   0.831  0.3606 -0.6413 -0.2832
10111SOL    HW230912   9.955   5.905   0.785  0.6186 -0.7350 -0.4967
10112SOL     OW30913   7.535   6.001   0.841  0.9179 -0.2375  0.5815
10112SOL    HW130914   7.483   5.945   0.899  1.1441 -0.4299  0.5940
10112SOL    HW230915   7.600   6.041   0.899  1.0574 -0.3251  0.4838
10113SOL     OW30916   9.407   0.481   7.680 -0.3986 -0.6557 -0.1269
10113SOL    HW130917   9.398   0.407   7.740 -0.7575 -0.3046  0.2654
10113SOL    HW230918   9.321   0.489   7.638 -0.6351  0.0556  0.4609
10114SOL     OW30919   8.201   8.848   3.223 -0.2076 -0.0402 -0.5313
10114SOL    HW130920   8.212   8.943   3.233 -1.9236  0.2772 -1.2430
10114SOL    HW230921   8.290   8.814   3.221  0.4395  1.4910  0.2678
10115SOL     OW30922   8.951   6.540   5.866  0.3103 -0.5336 -0.0272
10115SOL    HW130923   8.928   6.492   5.786 -2.0293  0.1092  0.1896
10115SOL    HW230924   9.013   6.607   5.838 -1.8455  0.8845 -1.7404
10116SOL     OW30925   1.297   8.023   7.156  0.3990 -0.0713 -0.0873
10116SOL    HW130926   1.286   8.035   7.062  2.7061 -1.7971 -0.6625
10116SOL    HW230927   1.264   7.935   7.173  1.2841 -0.3043  0.4597
10117SOL     OW30928   2.183   0.888   3.265  0.8480  0.5306 -0.2466
10117SOL    HW130929   2.190   0.908   3.359  1.0908 -1.2617  0.1662
10117SOL    HW230930   2.185   0.792   3.262 -0.8810  0.5011 -1.9558
10118SOL     OW30931   3.464   4.066   4.132 -0.4540  0.5022 -0.5030
10118SOL    HW130932   3.462   4.085   4.226  1.5655  0.4793 -0.4106
10118SOL    HW230933   3.497   3.976   4.127 -2.0112 -0.0704 -1.2186
10119SOL     OW30934   1.515   7.353   1.510  0.0866 -0.1253  0.0775
10119SOL    HW130935   1.578   7.309   1.453 -1.0461 -0.6899 -0.7796
10119SOL    HW230936   1.567   7.385   1.583  1.1426 -1.8060  0.1071
10120SOL     OW30937   2.435   1.417   8.110 -0.1618  0.3157  0.6718
10120SOL    HW130938   2.411   1.416   8.203  0.8521  0.5456  0.9497
10120SOL    HW230939   2.389   1.493   8.074  1.5957  1.9431  1.6320
10121SOL     OW30940   9.831   0.218   5.413  0.3111  0.2846  0.2865
10121SOL    HW130941   9.875   0.301   5.431  1.1305 -0.0336 -0.2090
10121SOL    HW230942   9.744   0.243   5.383  0.6001  0.9703  0.0112
10122SOL     OW30943   0.731   7.198   9.815 -0.4669  0.3398  0.1184
10122SOL    HW130944   0.699   7.109   9.804 -0.0630 -0.0839  2.0012
10122SOL    HW230945   0.783   7.215   9.736 -1.3105 -0.7174 -0.6986
10123SOL     OW30946   4.252   7.960   1.859 -0.0081 -0.7299 -0.1425
10123SOL    HW130947   4.260   7.898   1.931 -1.1784 -0.9817 -0.2075
10123SOL    HW230948   4.165   7.999   1.871  0.4132  0.3677 -0.5219
10124SOL     OW30949   0.067   9.919   4.109 -0.4181 -0.4011 -0.4797
10124SOL    HW130950   0.161   9.935   4.108 -0.2142 -1.3543  1.0280
10124SOL    HW230951   0.036   9.958   4.027  0.8161  2.5457  0.3165
10125SOL     OW30952   5.097   7.820   6.498  0.4967  0.4944  0.1851
10125SOL    HW130953   5.027   7.756   6.485  0.6147 -0.0086  1.7981
10125SOL    HW230954   5.058   7.904   6.471 -0.1764 -0.0068 -0.4580
10126SOL     OW30955   9.176   3.100   4.241 -0.4671 -0.0498  0.4061
10126SOL    HW130956   9.156   3.194   4.236  1.0119  0.2517 -0.4572
10126SOL    HW230957   9.181   3.082   4.335 -0.3853  0.8266  0.5816
10127SOL     OW30958   9.407   9.273   5.042  0.5727  0.0678  0.9155
10127SOL    HW130959   9.478   9.312   5.094  0.4838 -0.6127  1.5574
10127SOL    HW230960   9.336   9.260   5.104 -0.8157  2.3771 -0.0694
10128SOL     OW30961   4.575   2.175   5.802 -0.4133  0.5893 -0.2061
10128SOL    HW130962   4.507   2.153   5.866  1.2974 -1.6196  0.9656
10128SOL    HW230963   4.541   2.143   5.719 -0.8536 -0.4771  0.3620
10129SOL     OW30964   4.758   5.319   6.951 -0.3341  0.3970  0.1318
10129SOL    HW130965   4.664   5.311   6.935 -0.4706 -0.6302  1.3523
10129SOL    HW230966   4.790   5.374   6.879 -1.9805  1.3797  0.1129
10130SOL     OW30967   2.050   4.466   1.667 -0.0305 -0.5020  0.3742
10130SOL    HW130968   2.057   4.372   1.683  0.4919 -0.6024 -0.4017
10130SOL    HW230969   2.094   4.479   1.583 -0.6778  0.3397  0.1553
10131SOL     OW30970   4.383   5.391   1.393  0.1257  0.4849 -0.6515
10131SOL    HW130971   4.470   5.375   1.356  0.5574 -1.0312  0.8969
10131SOL    HW230972   4.341   5.305   1.393 -1.0405  1.0328 -0.5328
10132SOL     OW30973   2.457   1.001   6.821 -0.2675 -0.3041  0.6596
10132SOL    HW130974   2.372   1.001   6.865  0.3597 -0.9855  1.9349
10132SOL    HW230975   2.460   0.916   6.776 -1.0105  0.4919 -0.9736
10133SOL     OW30976   6.986   4.120   9.537  0.2869  0.4661 -0.6255
10133SOL    HW130977   6.950   4.138   9.450  0.2327  0.2353 -0.6506
10133SOL    HW230978   6.912   4.088   9.587  1.0404 -3.2107 -1.5781
10134SOL     OW30979   8.094   2.062   7.605  0.3558  0.0108 -0.3950
10134SOL    HW130980   8.071   2.153   7.620  0.5380 -0.0248  0.1139
10134SOL    HW230981   8.019   2.012   7.637 -0.1459  0.0135 -1.5341
10135SOL     OW30982   6.050   4.730   4.784 -0.2363 -0.1562 -0.0049
10135SOL    HW130983   5.976   4.675   4.755  0.7837 -0.7728 -1.6113
10135SOL    HW230984   6.028   4.818   4.753  0.0836 -0.5102 -1.3359
10136SOL     OW30985   7.520   0.074   9.800 -0.7927  0.3459 -0.3059
10136SOL    HW130986   7.439   0.049   9.844 -0.4710  0.9810  0.6828
10136SOL    HW230987   7.504   0.055   9.708 -1.8930  0.0200 -0.0595
10137SOL     OW30988   1.895   0.127   9.496  0.3772  0.0538 -0.1081
10137SOL    HW130989   1.979   0.126   9.450  0.0361 -0.3271 -0.7339
10137SOL    HW230990   1.833   0.160   9.432 -0.0466 -0.1669  0.1884
10138SOL     OW30991   8.810   5.349   3.832 -0.1881 -0.3160 -0.2293
10138SOL    HW130992   8.772   5.265   3.859 -1.0103  0.6336  1.8128
10138SOL    HW230993   8.762   5.414   3.883 -0.3968  1.5482 -2.6134
10139SOL     OW30994   0.845   4.449   1.782 -0.1967 -0.2610 -0.2497
10139SOL    HW130995   0.823   4.542   1.773  1.7305  0.4323  1.4179
10139SOL    HW230996   0.761   4.405   1.791 -1.1120  1.5136  0.3987
10140SOL     OW30997   1.094   3.872   1.080  0.5755  0.3083  0.2975
10140SOL    HW130998   1.044   3.807   1.031 -2.2555  0.6332  2.4786
10140SOL    HW230999   1.108   3.832   1.166 -0.5323  2.1358  1.4262
10141SOL     OW31000   8.166   4.984   3.295  0.3776  0.5005  0.3801
10141SOL    HW131001   8.203   4.953   3.378  0.8762 -2.2029 -0.7657
10141SOL    HW231002   8.080   4.944   3.290 -0.6200  2.4706  0.5449
10142SOL     OW31003   0.391   4.636   8.083  0.3793  0.1649  0.0457
10142SOL    HW131004   0.439   4.609   8.162 -0.9143 -1.0765  0.4721
10142SOL    HW231005   0.321   4.570   8.075 -0.4692  1.1813 -1.2467
10143SOL     OW31006   7.416   5.375   2.801 -0.1559  0.2094 -0.1409
10143SOL    HW131007   7.434   5.307   2.866 -0.7126 -0.2490 -0.4577
10143SOL    HW231008   7.481   5.360   2.733  1.6326  1.8176  1.1057
10144SOL     OW31009   2.863   4.956   9.808 -0.1965 -0.4050  0.0517
10144SOL    HW131010   2.847   5.028   9.870 -0.2097 -0.1492 -0.2488
10144SOL    HW231011   2.880   4.880   9.864  0.7221  0.0255  0.3812
10145SOL     OW31012   7.618   0.568   9.882  0.3739  0.3825  0.3798
10145SOL    HW131013   7.688   0.524   9.929  1.2389  0.5371 -0.7100
10145SOL    HW231014   7.594   0.506   9.813 -1.0952  0.0196  1.1785
10146SOL     OW31015   8.899   1.509   6.672 -0.6126 -0.2856 -0.0048
10146SOL    HW131016   8.991   1.483   6.676 -1.1418 -2.6408 -1.1433
10146SOL    HW231017   8.858   1.465   6.747 -0.7670  1.1111  0.7571
10147SOL     OW31018   7.070   5.417   6.086 -0.0428 -0.4432  0.1764
10147SOL    HW131019   6.976   5.397   6.075 -0.3126 -1.0052  2.7732
10147SOL    HW231020   7.071   5.507   6.117  0.3514 -0.2165 -0.4837
10148SOL     OW31021   8.120   6.892   5.263  0.4728 -0.0970 -0.3252
10148SOL    HW131022   8.186   6.952   5.228 -0.4618  1.7087  0.8103
10148SOL    HW231023   8.164   6.807   5.268  2.1424  0.6647 -1.1905
10149SOL     OW31024   0.966  -0.001   8.837 -0.0297 -0.1621  0.2147
10149SOL    HW131025   1.059  -0.023   8.826  0.2457  0.7653  0.5965
10149SOL    HW231026   0.949   0.066   8.770 -0.2604  0.1234  0.5561
10150SOL     OW31027   1.446   9.465   0.322 -0.1945  0.5318  0.3868
10150SOL    HW131028   1.417   9.384   0.366  0.2112 -0.2201 -0.6989
10150SOL    HW231029   1.369   9.522   0.325 -2.0127 -1.5117 -2.6528
10151SOL     OW31030   6.798   5.785   9.816 -0.0204  0.5565  0.1944
10151SOL    HW131031   6.796   5.734   9.897 -0.0723 -0.1695 -0.2470
10151SOL    HW231032   6.799   5.719   9.747 -0.2048  1.1644 -0.4024
10152SOL     OW31033   0.380   1.290   1.070  0.1686  0.2626 -0.0963
10152SOL    HW131034   0.305   1.260   1.018 -0.1238  0.9936 -0.1000
10152SOL    HW231035   0.454   1.287   1.009  0.0798 -0.1427 -0.1858
10153SOL     OW31036   5.748   2.766   5.359  0.2731  0.0991 -0.0673
10153SOL    HW131037   5.739   2.807   5.445  0.4490 -0.4457  0.2181
10153SOL    HW231038   5.668   2.715   5.349  0.1527  0.3359 -0.3272
10154SOL     OW31039   9.209   0.190   6.829 -0.4058  0.0917  0.2991
10154SOL    HW131040   9.175   0.255   6.891 -0.7162  1.1972 -0.9905
10154SOL    HW231041   9.300   0.216   6.815 -1.0362  1.4865 -1.6795
10155SOL     OW31042   9.799   2.214   9.827  0.6403  0.0845 -0.5963
10155SOL    HW131043   9.707   2.192   9.841  0.4787  1.0401 -0.0691
10155SOL    HW231044   9.804   2.243   9.736  0.3990  0.1076 -0.6019
10156SOL     OW31045   2.962   6.228   9.314  0.0628 -0.3099  0.0057
10156SOL    HW131046   2.909   6.180   9.378  0.8705 -1.8883 -0.4361
10156SOL    HW231047   2.907   6.231   9.236 -0.7180  1.1565  0.5877
10157SOL     OW31048   6.779   4.532   9.247  0.3415  0.1463 -0.2042
10157SOL    HW131049   6.780   4.463   9.180  0.8792 -0.7714  0.7297
10157SOL    HW231050   6.818   4.492   9.324  1.1726  1.6763  0.2072
10158SOL     OW31051   2.217   9.751   6.539 -0.1352 -0.0070  0.4896
10158SOL    HW131052   2.234   9.705   6.457 -0.0370  1.3727 -0.2879
10158SOL    HW231053   2.295   9.735   6.592 -0.2011 -0.9044  0.3442
10159SOL     OW31054   7.209   2.368   6.692 -0.9922  0.4115 -0.3014
10159SOL    HW131055   7.264   2.345   6.617 -1.4339 -1.3186 -0.1382
10159SOL    HW231056   7.151   2.293   6.703 -3.4356  2.1585 -0.4602
10160SOL     OW31057   0.232   6.902   0.991  0.0817 -0.1402 -0.6345
10160SOL    HW131058   0.193   6.903   0.903 -1.0427  0.3804 -0.1521
10160SOL    HW231059   0.310   6.848   0.982  1.5931  2.1364 -2.6291
10161SOL     OW31060   9.912   8.589   8.053 -0.0853 -0.1831  0.0589
10161SOL    HW131061   9.932   8.653   8.121 -1.7325 -0.6286  1.0119
10161SOL    HW231062   9.853   8.526   8.095 -2.1795  0.2128 -2.0970
10162SOL     OW31063   5.702   0.173   0.529  0.3529  0.3445 -0.1768
10162SOL    HW131064   5.616   0.134   0.516 -0.6209  2.2970 -0.1034
10162SOL    HW231065   5.718   0.222   0.448  0.7488  1.1116  0.3560
10163SOL     OW31066   0.343   0.072   4.704  0.3185  0.3027 -0.2563
10163SOL    HW131067   0.251   0.097   4.715  0.4513  0.4858  0.5430
10163SOL    HW231068   0.373   0.122   4.628 -0.6274 -0.8739 -1.4453
10164SOL     OW31069   3.419   0.939   8.775 -0.4055  0.1277  0.7849
10164SOL    HW131070   3.476   1.005   8.735  1.6476 -0.7764  2.0436
10164SOL    HW231071   3.395   0.881   8.703  2.8750 -1.2347  0.6288
10165SOL     OW31072   3.391   0.406   4.538 -0.0764  0.1023  0.1318
10165SOL    HW131073   3.417   0.352   4.612  0.0191  1.7865  1.3760
10165SOL    HW231074   3.388   0.495   4.572  0.6478  1.0472 -2.0596
10166SOL     OW31075   4.961   8.031   6.360  0.1331  0.0401 -0.1570
10166SOL    HW131076   4.993   8.034   6.270 -0.0686 -1.1376 -0.2862
10166SOL    HW231077   4.876   7.987   6.354 -1.2305  2.4459  0.2750
10167SOL     OW31078   3.670   5.968   4.862 -0.1774  0.3570  0.5040
10167SOL    HW131079   3.644   5.895   4.919  0.1347  1.3683  1.9777
10167SOL    HW231080   3.648   6.047   4.912 -2.3859  1.3693 -1.8445
10168SOL     OW31081   9.425   3.203   4.766 -0.1962  0.1349  0.0771
10168SOL    HW131082   9.417   3.184   4.860 -0.2500  2.3181  0.5631
10168SOL    HW231083   9.486   3.276   4.762 -2.3251  1.9579 -1.3450
10169SOL     OW31084   4.023   9.940   9.769  0.2862 -0.4667  0.2394
10169SOL    HW131085   4.069   9.890   9.702 -0.9225 -1.5766  0.2131
10169SOL    HW231086   3.942   9.969   9.727  0.0244 -0.2314  0.8850
10170SOL     OW31087   2.567   1.364   2.983 -0.1413  0.4177 -0.4082
10170SOL    HW131088   2.556   1.408   2.900  1.3572  1.8474  0.1161
10170SOL    HW231089   2.522   1.420   3.046  1.8714  1.3525  0.2800
10171SOL     OW31090   8.291   2.939   2.745 -0.5230 -0.0654  0.1944
10171SOL    HW131091   8.260   2.868   2.801  0.2294  0.6654  1.5895
10171SOL    HW231092   8.221   3.004   2.748 -0.4470  0.0087  0.3313
10172SOL     OW31093   8.339   7.842   7.699  0.6077 -0.1021  0.1815
10172SOL    HW131094   8.306   7.930   7.685  1.0899  0.1763  0.7238
10172SOL    HW231095   8.335   7.830   7.794  0.0676 -0.8579  0.0781
10173SOL     OW31096   6.910   1.276   1.262 -0.0053  0.0424 -0.1039
10173SOL    HW131097   6.873   1.364   1.266  1.1577  0.5067  1.3970
10173SOL    HW231098   6.931   1.263   1.169 -1.3506  0.8287 -0.5342
10174SOL     OW31099   4.822   3.994   3.436  0.4155  0.4243 -0.3697
10174SOL    HW131100   4.823   3.979   3.342  1.5665 -0.2152 -0.2782
10174SOL    HW231101   4.758   3.931   3.470 -0.5698  1.1797 -0.7836
10175SOL     OW31102   0.154   6.942   9.467 -0.4904  0.6305  0.0284
10175SOL    HW131103   0.088   6.972   9.529 -2.5980  1.0025 -2.2686
10175SOL    HW231104   0.218   7.013   9.462 -0.8471  1.0244  0.9741
10176SOL     OW31105   2.992   1.997   1.535  0.0399 -0.0069 -0.4018
10176SOL    HW131106   3.054   1.928   1.515 -1.1631 -0.8419 -1.3781
10176SOL    HW231107   2.932   1.998   1.461 -0.5125  1.4718  0.0281
10177SOL     OW31108   5.947   0.855   1.271 -0.9765 -0.2427  0.3057
10177SOL    HW131109   5.910   0.810   1.195 -2.4476  0.2297  0.7119
10177SOL    HW231110   5.960   0.786   1.336  0.0055 -0.5997 -0.2504
10178SOL     OW31111   1.675   2.032   7.632  0.4797 -0.0576  0.2657
10178SOL    HW131112   1.596   1.996   7.672  1.2136 -0.1462  1.7042
10178SOL    HW231113   1.680   1.990   7.546 -0.7949 -0.3659  0.3256
10179SOL     OW31114   9.926   0.010   9.031  1.2507  0.5074 -0.3970
10179SOL    HW131115   9.942   0.049   8.945  0.9348  3.8070  0.8889
10179SOL    HW231116  10.011   0.013   9.074  1.4730 -1.4216 -0.6386
10180SOL     OW31117   2.293   0.675   8.881 -0.4825 -0.4495  0.0678
10180SOL    HW131118   2.333   0.684   8.968 -2.8245  0.6945  1.1279
10180SOL    HW231119   2.358   0.711   8.821  0.4330  0.5069  1.5622
10181SOL     OW31120   6.621   9.360   4.795 -0.3230  0.4107  0.1586
10181SOL    HW131121   6.594   9.284   4.743 -1.0549  1.1380 -0.5710
10181SOL    HW231122   6.590   9.435   4.744  3.0838  1.3860 -0.7832
10182SOL     OW31123   5.156   4.836   1.592 -0.0901 -0.1416 -0.0336
10182SOL    HW131124   5.125   4.800   1.675  0.6666  0.5968  0.5924
10182SOL    HW231125   5.123   4.926   1.591  0.9480  0.2573  0.0744
10183SOL     OW31126   4.208   9.340   9.590  0.4557  0.3368  0.5902
10183SOL    HW131127   4.279   9.388   9.547 -1.5342  2.2298 -0.8168
10183SOL    HW231128   4.216   9.365   9.682  1.1721  1.1567  0.3301
10184SOL     OW31129   3.785   0.573   4.620  0.6383  0.5917 -0.2654
10184SOL    HW131130   3.873   0.575   4.583  0.2687  1.5455 -1.1510
10184SOL    HW231131   3.796   0.539   4.708  1.8644  0.4910 -0.4500
10185SOL     OW31132   9.555   2.362   3.748 -0.3834  0.1416  0.0738
10185SOL    HW131133   9.637   2.411   3.759 -1.2488  1.5023  0.6963
10185SOL    HW231134   9.503   2.414   3.688 -1.1749 -0.2187  0.4251
10186SOL     OW31135   1.589   3.157   7.385 -0.5420  0.1406 -0.2454
10186SOL    HW131136   1.533   3.104   7.328 -0.3977  0.3114 -0.5510
10186SOL    HW231137   1.585   3.114   7.470 -1.2716  0.2494 -0.2224
10187SOL     OW31138   0.445   8.760   7.757 -0.1674  0.1065  0.7756
10187SOL    HW131139   0.369   8.702   7.753  1.0014 -1.6673  2.3006
10187SOL    HW231140   0.416   8.841   7.717 -2.4431 -0.9525  0.1305
10188SOL     OW31141   9.152   0.415   7.008  0.0601 -0.9834 -0.1508
10188SOL    HW131142   9.227   0.396   7.065  0.1054 -0.2317  0.0506
10188SOL    HW231143   9.159   0.508   6.989 -0.6178 -0.9818 -0.4331
10189SOL     OW31144   1.615   9.775   1.409 -0.1164  0.0764  0.0200
10189SOL    HW131145   1.607   9.741   1.498 -0.2331  1.3542  0.5198
10189SOL    HW231146   1.525   9.792   1.381 -0.0958 -0.5375 -0.4383
10190SOL     OW31147   9.724   4.418   6.930 -0.0425 -0.3754  0.2088
10190SOL    HW131148   9.668   4.467   6.869  1.4008  0.9307 -0.1271
10190SOL    HW231149   9.680   4.333   6.940 -2.5012  0.8755  0.6351
10191SOL     OW31150   1.351   1.359   9.284  0.3185 -0.3960  0.3263
10191SOL    HW131151   1.377   1.360   9.376 -1.9334 -0.1562  1.0194
10191SOL    HW231152   1.367   1.448   9.253 -1.9352  0.4987  1.4799
10192SOL     OW31153   6.320   0.929   7.663 -0.3104  0.2623 -0.1839
10192SOL    HW131154   6.327   1.013   7.708  3.2021  0.0752 -0.0918
10192SOL    HW231155   6.372   0.869   7.716  2.5706 -0.3837 -3.3290
10193SOL     OW31156   5.958   3.785   3.062  0.3045  0.4980 -0.2862
10193SOL    HW131157   6.050   3.811   3.066  0.8551 -0.9542 -2.0541
10193SOL    HW231158   5.948   3.718   3.129 -0.2619  2.6620  1.9164
10194SOL     OW31159   5.031   7.599   8.076 -0.2095 -0.1771  0.1584
10194SOL    HW131160   4.997   7.687   8.060  2.1334  0.4211 -2.2832
10194SOL    HW231161   4.994   7.546   8.006  0.3632 -0.5595  0.1428
10195SOL     OW31162   7.295   4.392   3.285  0.1616 -0.2014  0.0615
10195SOL    HW131163   7.212   4.405   3.330  0.5113 -0.8168  0.9386
10195SOL    HW231164   7.348   4.341   3.347  0.5697 -1.3493 -1.1719
10196SOL     OW31165   0.194   9.536   7.452 -0.0686 -0.6405 -0.0797
10196SOL    HW131166   0.116   9.550   7.505  0.6591 -1.3122  1.2387
10196SOL    HW231167   0.161   9.513   7.366 -1.3076 -0.0249  0.2147
10197SOL     OW31168   6.900   2.112   1.780  0.1954  0.0486 -0.1663
10197SOL    HW131169   6.818   2.084   1.819  1.2454 -0.3821  1.8817
10197SOL    HW231170   6.874   2.163   1.703 -1.8940 -2.1872 -1.0829
10198SOL     OW31171   8.420   5.950   5.440 -0.2085 -0.5242 -0.0566
10198SOL    HW131172   8.503   5.994   5.420 -0.6507 -0.4587 -1.9238
10198SOL    HW231173   8.372   6.013   5.494  1.4048 -1.0662  2.1923
10199SOL     OW31174   6.566   8.185   8.192 -0.4077  0.1056  0.3352
10199SOL    HW131175   6.511   8.229   8.256 -0.0873  0.0034  0.6874
10199SOL    HW231176   6.598   8.107   8.238  0.1334  0.2332  0.1848
10200SOL     OW31177   5.915   8.826   0.851  0.3121 -0.0422 -0.3491
10200SOL    HW131178   5.845   8.843   0.914  0.6380 -0.7743  0.2209
10200SOL    HW231179   5.968   8.906   0.853 -0.4202  0.4693 -0.6953
10201SOL     OW31180   4.351   1.271   4.034  0.0611  0.0086  0.1043
10201SOL    HW131181   4.410   1.198   4.050  1.0188  0.3987 -1.4565
10201SOL    HW231182   4.334   1.269   3.939 -1.0220  0.9628  0.2466
10202SOL     OW31183   0.800   1.082   5.821 -0.4648  0.2994  0.3949
10202SOL    HW131184   0.835   1.004   5.778 -2.0673 -1.5638  2.2217
10202SOL    HW231185   0.856   1.095   5.897 -1.6248 -0.6725  1.4739
10203SOL     OW31186   8.604   1.973   5.292  0.3467 -0.3612  0.2894
10203SOL    HW131187   8.525   2.013   5.328 -0.2940 -1.1397 -0.2238
10203SOL    HW231188   8.575   1.890   5.255  1.1218  0.0339 -1.2989
10204SOL     OW31189   0.639   7.598   3.005 -0.1448  0.5106 -0.3109
10204SOL    HW131190   0.700   7.660   3.046  0.0626 -0.2821  0.6054
10204SOL    HW231191   0.565   7.652   2.978 -0.1136  1.1234  0.7597
10205SOL     OW31192   1.700   7.121   4.786 -0.1939 -0.3999  0.8627
10205SOL    HW131193   1.779   7.113   4.733  0.0443 -0.7778  1.2673
10205SOL    HW231194   1.697   7.213   4.812 -0.1692 -0.2724  0.4172
10206SOL     OW31195   0.074   4.252   0.517  0.2375  0.2386  0.3446
10206SOL    HW131196  -0.009   4.287   0.547  0.4300  0.0464  1.1184
10206SOL    HW231197   0.105   4.197   0.589  0.0303 -1.4050 -0.7472
10207SOL     OW31198   2.034   1.904   1.308  0.6642 -0.3293 -0.2569
10207SOL    HW131199   1.938   1.912   1.316  0.7563  0.5152  0.1042
10207SOL    HW231200   2.067   1.990   1.333  1.6663 -1.3309  2.1818
10208SOL     OW31201   3.973   4.935   7.650  0.1104 -0.3678 -0.2855
10208SOL    HW131202   4.065   4.911   7.648  0.0746 -0.7787  1.4076
10208SOL    HW231203   3.947   4.921   7.741 -1.7323 -0.6595 -0.8220
10209SOL     OW31204   4.686   3.208   9.334 -0.1621 -0.6133  0.2057
10209SOL    HW131205   4.698   3.116   9.358 -0.0977 -0.9159 -0.9448
10209SOL    HW231206   4.771   3.234   9.299 -0.3074 -0.2315  0.1407
10210SOL     OW31207   0.667   3.920   2.417  0.4202  0.2191 -0.1273
10210SOL    HW131208   0.737   3.857   2.433  0.6096 -0.0758 -1.9322
10210SOL    HW231209   0.587   3.873   2.441  0.6775 -0.2239 -0.1264
10211SOL     OW31210   5.500   8.059   1.597 -0.5165 -0.3687  0.2547
10211SOL    HW131211   5.524   7.971   1.569 -2.9423 -1.7324  2.1065
10211SOL    HW231212   5.478   8.050   1.690 -0.3965  2.3081  0.6406
10212SOL     OW31213   9.933   9.775   6.672  0.2733 -0.8299 -0.0250
10212SOL    HW131214   9.891   9.861   6.667  1.1712 -0.4202 -2.5121
10212SOL    HW231215   9.969   9.771   6.760 -0.4676  1.0172  0.4193
10213SOL     OW31216   9.366   1.238   9.887 -0.1275 -0.1103  0.2974
10213SOL    HW131217   9.367   1.329   9.856  1.4737  0.1503  0.9839
10213SOL    HW231218   9.273   1.214   9.889 -0.7976  2.2944  2.3310
10214SOL     OW31219   9.327   3.941   5.125 -0.3311 -0.5735 -1.2415
10214SOL    HW131220   9.373   3.972   5.047 -0.2517  0.2155 -0.8984
10214SOL    HW231221   9.392   3.892   5.174  0.4658  1.2924 -0.3125
10215SOL     OW31222   4.631   2.250   1.579  0.7966 -0.3323  0.0421
10215SOL    HW131223   4.614   2.290   1.665 -2.5086  0.5466 -0.8547
10215SOL    HW231224   4.626   2.156   1.595 -0.9221 -0.1650  0.6984
10216SOL     OW31225   6.624   6.761   7.181  0.2073  0.1903  0.0234
10216SOL    HW131226   6.542   6.720   7.152  0.4736 -0.2490 -0.1301
10216SOL    HW231227   6.671   6.779   7.099  0.9930 -1.1154  0.1612
10217SOL     OW31228   9.918   9.193   3.915 -0.1234  0.1777  0.1619
10217SOL    HW131229   9.941   9.101   3.926  0.8488  0.2605 -1.0181
10217SOL    HW231230   9.899   9.224   4.003  0.0677 -1.0104  0.6342
10218SOL     OW31231   8.585   1.990   7.633 -0.2958  0.0844  0.2668
10218SOL    HW131232   8.495   1.989   7.666  0.0881  0.7500  1.4051
10218SOL    HW231233   8.639   1.974   7.711  0.5970  0.5069 -0.2542
10219SOL     OW31234   4.448   1.366   8.113 -0.0190  0.0598 -0.7335
10219SOL    HW131235   4.467   1.343   8.022  1.2476 -0.3985 -0.3741
10219SOL    HW231236   4.391   1.296   8.144  2.2996 -1.7089 -0.2021
10220SOL     OW31237   2.577   9.698   7.315  0.3891 -0.8166  0.4840
10220SOL    HW131238   2.661   9.721   7.277  2.1646  0.8232  4.7377
10220SOL    HW231239   2.600   9.653   7.397 -2.9833 -3.1328  0.3507
10221SOL     OW31240   4.238   6.179   4.636 -0.1418 -0.0952 -0.2210
10221SOL    HW131241   4.218   6.177   4.730 -0.1229 -0.3833 -0.2239
10221SOL    HW231242   4.303   6.249   4.627  0.4254 -0.5779  0.0904
10222SOL     OW31243   5.673   9.810   3.368  0.3152 -0.2372 -0.1267
10222SOL    HW131244   5.578   9.823   3.370  0.6541  2.8852  0.0007
10222SOL    HW231245   5.686   9.743   3.300 -1.9941 -1.7305  0.7701
10223SOL     OW31246   4.247   9.880   5.359 -0.3905 -0.0420  0.1016
10223SOL    HW131247   4.319   9.895   5.297  0.6287  0.5277  1.3781
10223SOL    HW231248   4.289   9.843   5.436 -1.7297 -1.3543  0.2475
10224SOL     OW31249   7.164   0.712   6.303 -0.0020  0.3393 -0.0298
10224SOL    HW131250   7.235   0.756   6.351  1.4120 -1.1753 -0.6441
10224SOL    HW231251   7.150   0.631   6.352  0.7048 -0.7092 -1.5000
10225SOL     OW31252   4.346   1.195   5.368 -0.0261 -0.1862  0.3931
10225SOL    HW131253   4.332   1.269   5.309  1.2835 -0.3340 -0.1448
10225SOL    HW231254   4.262   1.182   5.411 -1.6319 -1.2198 -2.7464
10226SOL     OW31255   4.566   1.520   6.882 -0.0843  0.1225 -0.6142
10226SOL    HW131256   4.477   1.503   6.914  0.2146 -1.1112 -0.3453
10226SOL    HW231257   4.608   1.566   6.954  0.2666 -1.7066  0.4323
10227SOL     OW31258   3.285   2.944   7.841 -0.6149 -0.0242 -0.8808
10227SOL    HW131259   3.208   2.907   7.797 -1.1105  0.6883 -0.6221
10227SOL    HW231260   3.358   2.888   7.813 -1.2532 -0.8312 -0.9683
10228SOL     OW31261   8.096   0.873   4.729  0.4484  0.1423  0.7019
10228SOL    HW131262   8.053   0.897   4.646  0.0653 -2.3009  0.1132
10228SOL    HW231263   8.172   0.822   4.702  0.2869 -0.7372  1.8409
10229SOL     OW31264   5.651   0.543   4.276  0.0872  0.2193 -0.1445
10229SOL    HW131265   5.691   0.506   4.197  0.8572  0.4876  0.1105
10229SOL    HW231266   5.656   0.637   4.263 -1.1957  0.2560 -0.4601
10230SOL     OW31267   5.725   6.437   4.849  0.5568 -0.3725  0.1505
10230SOL    HW131268   5.812   6.442   4.889  0.0115  0.0085  1.3328
10230SOL    HW231269   5.709   6.526   4.817 -0.5893  0.4089  2.6216
10231SOL     OW31270   3.490   9.927   3.517 -0.7850 -0.0326 -0.3799
10231SOL    HW131271   3.433   9.932   3.594  1.6987  3.1582  1.4789
10231SOL    HW231272   3.476  10.010   3.472  0.6711 -0.1788 -1.1537
10232SOL     OW31273   4.395   8.215   1.482 -0.3685 -0.7056  0.0645
10232SOL    HW131274   4.460   8.148   1.504  0.3809  0.2377  0.8704
10232SOL    HW231275   4.369   8.252   1.567  0.1073  0.7811 -0.3986
10233SOL     OW31276   8.086   0.489   0.008  0.7136  0.2168  0.3466
10233SOL    HW131277   8.082   0.401  -0.028  1.0901  0.3926 -0.1341
10233SOL    HW231278   8.122   0.478   0.096 -0.8931 -0.2962  0.9820
10234SOL     OW31279   0.941   2.474   2.003  0.3079  0.0608 -0.2814
10234SOL    HW131280   0.923   2.454   1.911 -0.2330 -0.4433 -0.0732
10234SOL    HW231281   1.036   2.465   2.012  0.1269 -2.4325 -0.2193
10235SOL     OW31282   9.425   7.193   1.344 -0.1284  0.4894 -0.8607
10235SOL    HW131283   9.408   7.112   1.391 -1.2988  2.8993  3.4768
10235SOL    HW231284   9.338   7.225   1.320  0.2356  0.9700 -1.5822
10236SOL     OW31285   0.346   4.798   0.354 -0.0003  0.3765  0.0581
10236SOL    HW131286   0.272   4.817   0.296 -0.5674 -0.4534  0.4972
10236SOL    HW231287   0.346   4.703   0.363  0.7456  0.4157  0.5599
10237SOL     OW31288   4.456   6.922   5.195  0.1682  0.2755  0.2484
10237SOL    HW131289   4.365   6.904   5.170  0.1998 -2.9259  1.8499
10237SOL    HW231290   4.508   6.865   5.138  0.7700 -1.1072  2.0572
10238SOL     OW31291   5.280   6.127   3.848  0.0028 -0.5819  0.0127
10238SOL    HW131292   5.298   6.204   3.795  0.6198 -0.2441  0.6878
10238SOL    HW231293   5.366   6.102   3.883 -0.4958 -0.3415  1.4542
10239SOL     OW31294   9.683   3.661   5.356 -0.5481  0.1094 -0.4333
10239SOL    HW131295   9.669   3.756   5.350  0.9382  0.3971  0.3790
10239SOL    HW231296   9.613   3.631   5.414 -0.5763  0.8311 -0.0760
10240SOL     OW31297   5.223   1.272   2.202  0.5348 -0.7979  0.4961
10240SOL    HW131298   5.272   1.335   2.148 -0.3257 -1.0273 -0.5771
10240SOL    HW231299   5.147   1.321   2.232  1.1548 -0.5727  1.8194
10241SOL     OW31300   0.695   8.435   8.577  0.0176  0.1090 -0.5623
10241SOL    HW131301   0.772   8.397   8.619  0.4509  1.4608 -0.1063
10241SOL    HW231302   0.632   8.447   8.648  0.2549  1.1467 -0.5099
10242SOL     OW31303   7.384   3.382   1.948  0.3379  0.5635 -0.6064
10242SOL    HW131304   7.318   3.355   1.885  1.0562  0.2480 -1.2484
10242SOL    HW231305   7.396   3.475   1.932 -1.3926  1.0833  0.8981
10243SOL     OW31306   6.013   1.032   0.199 -0.0585  0.0673  0.0700
10243SOL    HW131307   6.078   0.964   0.216 -1.8865 -1.7847  0.0169
10243SOL    HW231308   5.935   1.004   0.247 -1.4124  1.2535 -1.3059
10244SOL     OW31309   4.501   5.332   6.886  0.0729  0.0131 -0.1171
10244SOL    HW131310   4.466   5.287   6.808 -0.2454 -0.0180  0.0406
10244SOL    HW231311   4.429   5.388   6.915  0.9416  1.7996 -1.1912
10245SOL     OW31312   8.170   6.254   7.855  0.0975  0.1138  0.4828
10245SOL    HW131313   8.173   6.343   7.823  1.4498  0.4210  1.3459
10245SOL    HW231314   8.117   6.206   7.791  0.4372  1.2493 -0.6861
10246SOL     OW31315   1.832   7.444   1.509 -0.0486  0.0302 -0.1491
10246SOL    HW131316   1.760   7.470   1.567  0.0429 -1.4414  0.6834
10246SOL    HW231317   1.792   7.381   1.449  0.6298 -1.2428  0.6893
10247SOL     OW31318   1.311   1.100   9.251  0.3764 -0.0403 -0.4116
10247SOL    HW131319   1.301   1.194   9.266  1.2943 -0.0011 -0.0277
10247SOL    HW231320   1.348   1.066   9.332 -0.9037 -0.9200 -0.1592
10248SOL     OW31321   9.907   9.931   5.891 -0.4138  0.3829 -0.5420
10248SOL    HW131322   9.898   9.913   5.985  0.9892 -0.1773 -0.4812
10248SOL    HW231323   9.819   9.955   5.862 -1.2636 -1.1908  0.5578
10249SOL     OW31324   2.273   3.969   1.905 -0.6860 -0.7984  0.2056
10249SOL    HW131325   2.295   3.920   1.985 -0.9416  1.3402  1.6644
10249SOL    HW231326   2.351   3.960   1.850  1.1027  0.7803  2.3136
10250SOL     OW31327   2.888   7.686   4.200 -0.1582 -0.5541  0.1606
10250SOL    HW131328   2.879   7.592   4.184 -0.0671 -0.2910 -1.7540
10250SOL    HW231329   2.803   7.723   4.173 -1.1047 -0.2658  3.1696
10251SOL     OW31330   7.147   1.182   3.225 -0.0523  0.3274  0.0272
10251SOL    HW131331   7.103   1.206   3.306 -1.4686 -0.4317 -0.4819
10251SOL    HW231332   7.227   1.138   3.253  0.0442  1.0830  0.9833
10252SOL     OW31333   7.969   4.041   6.716 -0.2625  0.0887 -0.2346
10252SOL    HW131334   7.897   4.020   6.657 -0.5845  0.7085 -0.0672
10252SOL    HW231335   7.983   3.960   6.766  0.4227 -0.6494 -1.5449
10253SOL     OW31336   4.560   2.666   2.902  0.4598 -0.4454  0.2343
10253SOL    HW131337   4.489   2.728   2.919  0.4603 -0.2207 -0.5413
10253SOL    HW231338   4.533   2.586   2.946 -0.3116 -0.3825 -0.1056
10254SOL     OW31339   4.427   6.233   8.526  0.2852 -0.0832 -0.4377
10254SOL    HW131340   4.500   6.176   8.503 -0.4088 -0.4645 -1.8460
10254SOL    HW231341   4.354   6.173   8.542 -0.1922  0.3597 -0.9120
10255SOL     OW31342   8.774   3.047   3.997 -0.3629 -0.5530  0.7869
10255SOL    HW131343   8.726   2.969   3.968  2.6670 -2.2230 -0.2943
10255SOL    HW231344   8.775   3.104   3.920 -2.0872  0.3561  1.3965
10256SOL     OW31345   4.811   7.361   2.165  0.0940 -0.1948  0.4816
10256SOL    HW131346   4.861   7.418   2.106 -1.0698  1.0414  0.6183
10256SOL    HW231347   4.725   7.354   2.122 -0.9193  1.0843  2.1822
10257SOL     OW31348   6.589   6.199   5.807  0.0094 -0.6837 -0.1163
10257SOL    HW131349   6.520   6.264   5.793  0.2670 -0.6199 -1.1291
10257SOL    HW231350   6.633   6.228   5.887 -0.4893 -0.1533 -0.0299
10258SOL     OW31351   1.795   5.223   2.957  0.0116 -0.0806  0.0303
10258SOL    HW131352   1.822   5.153   3.016  0.2771  0.5153  0.6308
10258SOL    HW231353   1.710   5.251   2.990 -0.1581 -0.2020 -0.2926
10259SOL     OW31354   4.958   4.573   7.190 -0.0667 -0.3310 -0.4949
10259SOL    HW131355   4.879   4.624   7.175  0.2505  0.8517  1.4219
10259SOL    HW231356   5.022   4.610   7.130 -0.1450  0.8726  0.1238
10260SOL     OW31357   7.755   7.843   8.111 -0.4612 -0.1916  0.3971
10260SOL    HW131358   7.670   7.855   8.068  0.6458  0.0724 -1.8611
10260SOL    HW231359   7.752   7.754   8.146 -1.5477 -0.3054  0.0551
10261SOL     OW31360   5.902   6.306   2.936 -0.0407 -0.5867 -0.2072
10261SOL    HW131361   5.953   6.226   2.946 -0.7306 -1.0166 -0.0233
10261SOL    HW231362   5.927   6.340   2.850  0.7058 -0.6681 -0.0275
10262SOL     OW31363   4.666   7.436   7.763 -0.2673 -0.0857  0.0378
10262SOL    HW131364   4.592   7.417   7.706  1.6072 -2.0747 -1.9251
10262SOL    HW231365   4.723   7.493   7.710 -0.2840  1.3505  1.4738
10263SOL     OW31366   3.202   4.606   1.768  0.2659 -0.4840 -0.0405
10263SOL    HW131367   3.231   4.566   1.850 -0.9378 -0.8974  0.1944
10263SOL    HW231368   3.215   4.539   1.702 -3.8198 -2.2815  0.6765
10264SOL     OW31369   4.810   6.459   6.899  0.1671  0.0017  0.3631
10264SOL    HW131370   4.746   6.492   6.836  1.0934  0.2026 -0.5139
10264SOL    HW231371   4.893   6.497   6.870  1.0913 -2.1505  0.0111
10265SOL     OW31372   9.069   9.058   5.836  0.1411  0.3608 -0.3896
10265SOL    HW131373   9.029   8.972   5.822  1.2214 -0.2501  0.1707
10265SOL    HW231374   9.149   9.057   5.783  0.5289  0.7455  0.1734
10266SOL     OW31375   8.465   4.239   0.727  0.0487 -0.1481  0.3558
10266SOL    HW131376   8.462   4.187   0.807  0.0029 -0.3074  0.2506
10266SOL    HW231377   8.537   4.301   0.741 -0.1023 -0.0288  0.6104
10267SOL     OW31378   7.942   9.283   1.118 -0.0581  0.4727  0.1469
10267SOL    HW131379   8.012   9.217   1.125 -1.7028 -1.5496 -1.3470
10267SOL    HW231380   7.893   9.274   1.199 -1.7548 -2.0698 -1.0264
10268SOL     OW31381   4.007   9.970   6.744 -0.5219 -0.1270  0.4515
10268SOL    HW131382   4.075   9.976   6.678 -0.1944 -0.4793  0.7476
10268SOL    HW231383   3.988   9.876   6.750 -0.1887 -0.1558  1.2059
10269SOL     OW31384   4.751   5.590   5.499 -0.2379 -0.3180  0.2665
10269SOL    HW131385   4.831   5.589   5.446 -0.2129  1.8561  0.1685
10269SOL    HW231386   4.681   5.568   5.438  0.1152 -0.7915  0.0258
10270SOL     OW31387   9.077   8.042   1.947  0.6436  0.4762  0.0255
10270SOL    HW131388   9.021   8.107   1.904 -0.9150 -0.2426  0.8620
10270SOL    HW231389   9.090   8.076   2.035 -0.6206 -0.5511  0.6366
10271SOL     OW31390   1.562   4.764   6.094  0.0029  0.3681 -0.2239
10271SOL    HW131391   1.580   4.672   6.073  0.1556  0.1507  0.8075
10271SOL    HW231392   1.628   4.813   6.045 -0.0183 -0.0717 -0.7065
10272SOL     OW31393   1.032   5.830   9.885 -0.0079  0.5285 -0.0994
10272SOL    HW131394   1.006   5.867   9.969  1.1209  0.7394  0.1801
10272SOL    HW231395   1.036   5.905   9.826  1.4170  0.7574  0.2474
10273SOL     OW31396   0.757   8.645   1.100  0.6824  0.1723 -0.1134
10273SOL    HW131397   0.739   8.570   1.157  0.6711 -1.0093 -1.6006
10273SOL    HW231398   0.830   8.615   1.045 -1.7159 -0.2519 -3.3101
10274SOL     OW31399   8.784   9.681   9.384  0.3751  0.0275  0.2850
10274SOL    HW131400   8.781   9.649   9.293  1.3824  1.0101 -0.1113
10274SOL    HW231401   8.840   9.759   9.380  1.2052 -0.4503  1.9104
10275SOL     OW31402   7.157   4.318   4.054  0.3542 -0.0264 -0.3333
10275SOL    HW131403   7.176   4.255   3.984 -1.8600  0.0773 -1.0799
10275SOL    HW231404   7.089   4.276   4.107  1.6014  0.1256  1.5071
10276SOL     OW31405   3.505   0.552   2.079 -0.0456 -0.6277 -0.5979
10276SOL    HW131406   3.589   0.594   2.097 -0.1765 -0.5454 -0.1676
10276SOL    HW231407   3.492   0.565   1.984 -0.2182  0.5700 -0.4329
10277SOL     OW31408   9.019   4.360   4.174  0.4244  0.0159  0.4031
10277SOL    HW131409   9.014   4.330   4.083  1.5658 -0.7315  0.5621
10277SOL    HW231410   9.089   4.308   4.212  0.8475  1.2358  1.3560
10278SOL     OW31411   5.790   1.643   7.077 -0.1802 -0.3344  0.0806
10278SOL    HW131412   5.834   1.693   7.009  0.9510 -1.2436  0.1052
10278SOL    HW231413   5.782   1.555   7.041  0.0805 -0.7333  0.9622
10279SOL     OW31414   8.288   8.348   2.699 -0.3949  0.0965  0.0736
10279SOL    HW131415   8.222   8.339   2.768 -0.9284  0.0448 -0.4388
10279SOL    HW231416   8.371   8.350   2.746 -0.5838 -2.0007  0.6145
10280SOL     OW31417   4.894   3.130   2.278  0.1522 -0.4930  0.3055
10280SOL    HW131418   4.990   3.136   2.280  0.1369 -0.3465  1.0933
10280SOL    HW231419   4.865   3.193   2.344 -0.5103 -0.2196 -0.2391
10281SOL     OW31420   0.439   3.389   9.224  0.5873 -1.0436  0.3993
10281SOL    HW131421   0.424   3.371   9.132 -1.0463 -2.6494  0.9036
10281SOL    HW231422   0.351   3.400   9.261  1.2339  1.7843  1.4187
10282SOL     OW31423   7.945   1.577   0.904  0.3098  0.0765  0.0583
10282SOL    HW131424   8.017   1.604   0.847  1.1549 -0.4223  0.8633
10282SOL    HW231425   7.900   1.508   0.855  1.4755 -0.8722  0.2889
10283SOL     OW31426   6.177   2.862   3.513 -0.4087  0.1729 -0.3309
10283SOL    HW131427   6.153   2.866   3.420  1.1468  1.7391 -0.7252
10283SOL    HW231428   6.097   2.886   3.559 -0.7523  1.1452 -1.3721
10284SOL     OW31429   4.885   3.176   7.680  0.1906 -0.3604  0.3878
10284SOL    HW131430   4.857   3.142   7.765  0.6078  1.1346  1.1516
10284SOL    HW231431   4.807   3.169   7.625 -0.2010 -0.9639  0.9951
10285SOL     OW31432   7.901   0.199   0.609  0.0684 -0.0969 -0.0027
10285SOL    HW131433   7.865   0.115   0.635  0.9152 -0.0993  1.2157
10285SOL    HW231434   7.984   0.206   0.656  0.5677  0.9120 -0.9776
10286SOL     OW31435   7.095   7.847   2.432  0.1974  0.3275 -0.1782
10286SOL    HW131436   7.003   7.873   2.434 -0.3008 -1.3375  0.1400
10286SOL    HW231437   7.102   7.786   2.359  1.0474  0.4414 -0.2067
10287SOL     OW31438   4.110   7.923   6.965 -0.7871 -0.6852 -0.5779
10287SOL    HW131439   4.037   7.973   6.930 -0.1116  1.8019  1.2197
10287SOL    HW231440   4.105   7.937   7.060  1.9838 -0.3900 -0.3846
10288SOL     OW31441   8.905   2.381   0.020  0.1751 -0.0218 -0.2895
10288SOL    HW131442   8.850   2.302   0.017 -0.4195  0.2335  1.7993
10288SOL    HW231443   8.891   2.415   0.108 -0.3944  3.0136 -1.4558
10289SOL     OW31444   7.173   4.278   9.696  0.4587  0.1431 -0.4957
10289SOL    HW131445   7.164   4.239   9.783 -1.0855  0.4998 -0.4546
10289SOL    HW231446   7.102   4.238   9.645  0.8490  0.5336 -1.3698
10290SOL     OW31447   0.954   6.012   4.669 -0.9269 -0.1132  0.2618
10290SOL    HW131448   0.956   6.074   4.742  0.7134 -0.4352  0.5334
10290SOL    HW231449   0.985   6.063   4.594  1.3021 -0.7431  0.6670
10291SOL     OW31450   5.511   4.479   2.956 -0.2426 -0.1287 -0.0369
10291SOL    HW131451   5.565   4.490   2.878 -0.4410  1.3028  0.0021
10291SOL    HW231452   5.549   4.538   3.020 -0.7353 -0.4887  0.5967
10292SOL     OW31453   7.706   8.822   7.716 -0.0656 -0.0581  1.0617
10292SOL    HW131454   7.677   8.731   7.718  0.3621 -0.1810  1.9138
10292SOL    HW231455   7.727   8.838   7.624  0.9728 -1.1752  1.0841
10293SOL     OW31456   5.331   0.243   1.046 -0.0262  0.1888  0.2937
10293SOL    HW131457   5.381   0.300   0.987 -1.7220 -0.9745 -2.4194
10293SOL    HW231458   5.298   0.302   1.113  0.7268  1.8696 -0.7403
10294SOL     OW31459   4.905   4.373   7.659 -0.5833 -0.6622  0.2691
10294SOL    HW131460   4.889   4.317   7.583 -2.5722  0.6662 -0.3889
10294SOL    HW231461   4.974   4.432   7.631  0.2415 -1.5897  0.3103
10295SOL     OW31462   8.293   1.454   3.715 -0.2008  0.1552  0.0237
10295SOL    HW131463   8.334   1.438   3.630 -0.9126 -0.6751 -0.1790
10295SOL    HW231464   8.244   1.535   3.704 -1.7877 -0.8748 -0.9600
10296SOL     OW31465   8.726   7.559   1.735  0.2862 -0.2590 -0.1728
10296SOL    HW131466   8.684   7.530   1.816 -1.4345  0.3037 -0.8289
10296SOL    HW231467   8.810   7.597   1.764 -0.7913  0.9815  1.4961
10297SOL     OW31468   1.811   5.819   4.192  0.0670  0.3992 -0.2632
10297SOL    HW131469   1.764   5.799   4.273  1.2220 -1.6742 -0.0347
10297SOL    HW231470   1.743   5.850   4.132 -1.4142 -1.2648  0.4586
10298SOL     OW31471   3.515   0.872   2.851  0.0044 -0.3226  0.1077
10298SOL    HW131472   3.465   0.874   2.933  0.2639 -1.0292  0.2959
10298SOL    HW231473   3.455   0.834   2.787  0.3800 -1.5078  0.4158
10299SOL     OW31474   5.335   5.347   1.824  0.1059 -0.4383  0.6707
10299SOL    HW131475   5.359   5.256   1.805  0.3873 -0.2052 -0.0877
10299SOL    HW231476   5.263   5.339   1.887 -0.6097 -1.2186 -0.2131
10300SOL     OW31477   6.948   7.740   6.584 -0.1399  0.2116  0.3878
10300SOL    HW131478   6.977   7.814   6.530  1.9480 -0.7501  0.0683
10300SOL    HW231479   6.865   7.713   6.545  0.5243  0.5590 -1.3614
10301SOL     OW31480   4.670   1.406   5.429  0.4573  0.5347  0.2455
10301SOL    HW131481   4.624   1.410   5.345 -0.0784  3.4243  0.5621
10301SOL    HW231482   4.755   1.368   5.409 -0.4738 -0.9168 -1.1528
10302SOL     OW31483   4.570   0.283   9.764 -0.1462 -0.9190 -0.7057
10302SOL    HW131484   4.557   0.214   9.698  0.8394 -0.6398 -1.2153
10302SOL    HW231485   4.665   0.288   9.775 -0.2345 -0.0394 -0.2417
10303SOL     OW31486   5.589   5.807   6.771 -0.3392  0.4916 -0.1147
10303SOL    HW131487   5.553   5.803   6.860  0.7267 -0.4021  0.2881
10303SOL    HW231488   5.550   5.887   6.734 -0.9494  0.7750  1.0740
10304SOL     OW31489   7.025   3.400   5.761  0.0778 -0.0814 -0.8587
10304SOL    HW131490   7.006   3.361   5.847  0.1675 -0.1963 -0.8905
10304SOL    HW231491   6.950   3.458   5.744  0.1866  0.1369 -0.5897
10305SOL     OW31492   3.556   2.287   2.412  0.1440  0.0152 -0.4279
10305SOL    HW131493   3.536   2.347   2.340  0.3725 -0.9727 -1.3372
10305SOL    HW231494   3.515   2.204   2.387  1.4330 -0.7506 -0.1226
10306SOL     OW31495   7.183   9.932   5.278 -0.0955 -0.2181 -0.1906
10306SOL    HW131496   7.137  10.013   5.259  0.9525  0.2733 -0.7165
10306SOL    HW231497   7.183   9.885   5.195 -0.3873 -0.6066  0.0248
10307SOL     OW31498   7.534   4.440   6.045 -0.0682 -0.3570 -0.3620
10307SOL    HW131499   7.472   4.383   6.090  0.3032  0.8387  1.8299
10307SOL    HW231500   7.598   4.380   6.006 -0.4881 -1.4770  0.6130
10308SOL     OW31501   4.646   1.429   0.569  0.0370 -0.9408 -0.1849
10308SOL    HW131502   4.641   1.339   0.602 -0.3131 -0.5684  0.8164
10308SOL    HW231503   4.710   1.472   0.625  2.2518 -1.2160 -2.3153
10309SOL     OW31504   6.471   3.022   0.389  0.1599  0.5864  0.1831
10309SOL    HW131505   6.520   2.981   0.459  1.2759  0.1380 -0.8269
10309SOL    HW231506   6.431   2.949   0.342 -0.0876  0.8433 -0.0084
10310SOL     OW31507   4.041   0.472   2.766 -0.3781  0.9471  0.6768
10310SOL    HW131508   4.131   0.441   2.767 -0.7732 -0.3062 -0.6261
10310SOL    HW231509   4.020   0.483   2.673 -0.9933  3.0325  1.0026
10311SOL     OW31510   4.985   2.889   5.716  0.0425  0.2406  0.2823
10311SOL    HW131511   5.077   2.868   5.737 -0.5884 -2.8784  0.3901
10311SOL    HW231512   4.964   2.833   5.642 -2.0996  0.0467  0.9745
10312SOL     OW31513   3.768   9.762   8.828 -0.0475 -0.0116 -0.1386
10312SOL    HW131514   3.749   9.835   8.770 -1.5314 -0.1030  0.1786
10312SOL    HW231515   3.698   9.699   8.811  0.6674 -0.9422  0.2751
10313SOL     OW31516   1.951   0.203   1.474  0.3213  0.4144 -0.0915
10313SOL    HW131517   1.911   0.116   1.465  2.8514 -0.9481  1.0521
10313SOL    HW231518   1.941   0.243   1.387 -2.5534 -0.1756 -0.1357
10314SOL     OW31519   8.219   8.426   7.620 -0.2285 -0.5912 -0.2405
10314SOL    HW131520   8.205   8.505   7.671 -3.4310 -1.4591  0.4321
10314SOL    HW231521   8.269   8.368   7.678  1.7886  0.7080 -0.5965
10315SOL     OW31522   4.951   3.649   9.618  0.4804  0.1304 -0.2788
10315SOL    HW131523   4.855   3.646   9.617  0.5089 -0.8397 -0.9578
10315SOL    HW231524   4.978   3.560   9.640  1.2529 -0.3196 -2.8211
10316SOL     OW31525   9.101   2.604   2.533  0.1957  0.2594  0.5217
10316SOL    HW131526   9.103   2.511   2.552  0.0743  0.1524  0.0372
10316SOL    HW231527   9.106   2.647   2.618  1.4372 -0.1788  0.6896
10317SOL     OW31528   3.324   2.785   9.560 -0.3785 -0.5311 -0.5365
10317SOL    HW131529   3.335   2.844   9.635 -0.0931 -0.9150 -0.2751
10317SOL    HW231530   3.410   2.744   9.548 -0.8641 -1.7233 -0.0183
10318SOL     OW31531   6.491   1.550   0.186 -0.1290 -0.4029 -0.1808
10318SOL    HW131532   6.519   1.578   0.099  1.5074  1.5557  0.9012
10318SOL    HW231533   6.547   1.475   0.207  0.3075 -0.1152 -0.3293
10319SOL     OW31534   0.649   3.986   7.620 -0.4335  0.1428  0.0096
10319SOL    HW131535   0.576   4.025   7.667 -0.0420  1.3687 -0.3745
10319SOL    HW231536   0.726   4.033   7.651  0.1388 -0.7876  0.0350
10320SOL     OW31537   6.039   3.446   8.804 -0.5324  0.0507  0.6834
10320SOL    HW131538   5.981   3.381   8.764 -1.8335  1.4630  0.1628
10320SOL    HW231539   6.069   3.500   8.730  1.2109 -0.4548  0.9955
10321SOL     OW31540   6.837   1.151   7.866 -0.4413  0.4353 -0.0085
10321SOL    HW131541   6.893   1.078   7.893  0.4464  1.0088 -0.2600
10321SOL    HW231542   6.831   1.143   7.771  0.8456  1.4990 -0.2023
10322SOL     OW31543   6.105   8.086   8.017 -0.1209  0.1015 -0.0797
10322SOL    HW131544   6.030   8.121   8.064 -1.2613 -2.2118 -0.0030
10322SOL    HW231545   6.069   8.053   7.934  0.7649 -1.0303 -0.0478
10323SOL     OW31546   3.333   1.722   8.778  0.3807 -0.1161  0.1127
10323SOL    HW131547   3.321   1.759   8.865 -1.0035  1.1685 -0.5784
10323SOL    HW231548   3.334   1.628   8.791  0.2300  0.0650  1.5065
10324SOL     OW31549   8.870   9.052   1.549  0.7147  0.9105 -0.0819
10324SOL    HW131550   8.898   8.969   1.588 -0.3181  0.9869  0.8610
10324SOL    HW231551   8.939   9.073   1.486  0.5062 -1.1872 -1.1115
10325SOL     OW31552   6.594   3.796   9.369  0.0162  0.2650  0.4965
10325SOL    HW131553   6.615   3.840   9.287 -0.7073  1.1849  0.7837
10325SOL    HW231554   6.662   3.730   9.379  1.4857  1.6800  0.3314
10326SOL     OW31555   1.109   4.909   1.732 -0.5629  0.1732  0.0348
10326SOL    HW131556   1.150   4.828   1.701 -1.3283 -0.2689  0.1495
10326SOL    HW231557   1.137   4.917   1.823  0.2248  0.5068 -0.2346
10327SOL     OW31558   4.492   6.782   5.593 -0.3236  0.0591 -0.8622
10327SOL    HW131559   4.512   6.803   5.684 -0.7662 -1.3999 -0.3902
10327SOL    HW231560   4.447   6.860   5.560  0.2313  0.7831  0.0197
10328SOL     OW31561   1.616   7.501   4.431 -0.2632 -0.3243  0.4517
10328SOL    HW131562   1.605   7.406   4.437 -0.4860 -0.2892  0.6074
10328SOL    HW231563   1.537   7.537   4.471  0.3637 -0.0608  1.4734
10329SOL     OW31564   6.604   0.935   9.928  0.2997 -0.3867  0.1516
10329SOL    HW131565   6.613   1.021   9.969 -0.3615  0.2306 -0.9437
10329SOL    HW231566   6.539   0.890   9.981  0.8478 -0.3264  0.8926
10330SOL     OW31567   7.719   9.004   4.251  0.7166  0.5506  0.2701
10330SOL    HW131568   7.794   8.972   4.202  0.2532 -2.5551  1.3736
10330SOL    HW231569   7.745   8.994   4.343 -0.1280  1.9188  0.6888
10331SOL     OW31570   8.769   3.109   6.530  0.4721 -0.4053  0.7664
10331SOL    HW131571   8.727   3.045   6.588 -3.3014  0.2463 -0.9368
10331SOL    HW231572   8.855   3.125   6.570 -0.2561 -3.0180  3.7931
10332SOL     OW31573   1.590   6.670   4.752  0.3427  0.1799 -0.4655
10332SOL    HW131574   1.604   6.747   4.808  0.7802  0.0247 -0.3631
10332SOL    HW231575   1.592   6.705   4.663 -2.6050  0.8279 -0.3881
10333SOL     OW31576   3.477   8.756   8.103 -0.1704  0.0211  0.0781
10333SOL    HW131577   3.410   8.814   8.068  0.3897  0.9196  0.4539
10333SOL    HW231578   3.509   8.800   8.182 -0.4634 -1.3086  0.9833
10334SOL     OW31579   7.933   0.192   2.100  0.3416  0.0177 -0.8658
10334SOL    HW131580   7.975   0.108   2.121  0.4013  0.0165 -0.9856
10334SOL    HW231581   7.915   0.232   2.185  0.7109  0.0779 -0.8150
10335SOL     OW31582   5.988   2.243   7.474  0.3043 -0.4242 -0.4194
10335SOL    HW131583   6.027   2.267   7.390 -3.4195  1.4740 -1.8479
10335SOL    HW231584   5.959   2.152   7.462 -0.8563  0.0591 -1.5550
10336SOL     OW31585   3.404   2.096   9.496 -0.5231  0.0658  0.3701
10336SOL    HW131586   3.347   2.025   9.526  1.0303 -2.2112 -1.6753
10336SOL    HW231587   3.352   2.145   9.434 -0.9872 -0.5487  0.2663
10337SOL     OW31588   4.974   8.166   2.000  0.4962 -0.2700  0.4680
10337SOL    HW131589   4.970   8.255   1.964  0.9111 -0.2001  0.5883
10337SOL    HW231590   4.884   8.135   1.996  0.4727 -0.1392 -0.3256
10338SOL     OW31591   0.356   3.280   9.536  0.0657  0.2695  0.3538
10338SOL    HW131592   0.313   3.362   9.561  1.2857  0.2834  2.8064
10338SOL    HW231593   0.384   3.243   9.620  1.0294 -1.8212 -0.8360
10339SOL     OW31594   1.645   6.481   6.792  0.2987  0.6067  0.1800
10339SOL    HW131595   1.660   6.500   6.885  3.6093 -1.8717  0.3452
10339SOL    HW231596   1.558   6.442   6.789  0.1870  0.5698  2.2657
10340SOL     OW31597   5.275   9.878   8.555 -0.0252 -0.0777  0.0530
10340SOL    HW131598   5.367   9.853   8.550  0.2528  1.0352 -0.8059
10340SOL    HW231599   5.228   9.806   8.513  0.0634 -2.3034  3.4482
10341SOL     OW31600   3.714   5.827   3.655 -0.2838  0.5238 -0.1778
10341SOL    HW131601   3.722   5.757   3.590 -1.3183 -0.6290  0.9002
10341SOL    HW231602   3.726   5.907   3.604  0.3288 -0.3898 -1.5478
10342SOL     OW31603   5.241   0.217   4.050 -0.2161  0.6056 -0.0697
10342SOL    HW131604   5.276   0.306   4.041  1.3496  0.2603  1.7992
10342SOL    HW231605   5.208   0.213   4.139  0.9075 -1.0240  0.3221
10343SOL     OW31606   2.596   9.824   5.756  0.1574  0.0538  0.1848
10343SOL    HW131607   2.560   9.738   5.780 -1.1377  0.3091 -0.7001
10343SOL    HW231608   2.676   9.832   5.808  0.8796 -2.1283 -0.4606
10344SOL     OW31609   2.295   8.665   6.822  0.0729  0.2182 -0.5930
10344SOL    HW131610   2.238   8.606   6.773 -0.6111  0.4988 -0.1542
10344SOL    HW231611   2.247   8.681   6.904  0.8532  0.3356 -0.1471
10345SOL     OW31612   8.572   9.842   9.747 -0.1116 -0.5791 -0.0413
10345SOL    HW131613   8.591   9.766   9.802  1.0596  0.3636  0.9308
10345SOL    HW231614   8.535   9.907   9.808 -0.0912  0.0089 -0.6405
10346SOL     OW31615   0.845   5.502   3.089 -0.3865 -0.2851 -0.3597
10346SOL    HW131616   0.862   5.449   3.011 -0.1136  0.1578 -0.6028
10346SOL    HW231617   0.782   5.568   3.061  0.4042  0.4435 -0.4515
10347SOL     OW31618   4.822   9.707   0.401 -0.8376 -0.3058  0.0360
10347SOL    HW131619   4.776   9.655   0.336 -1.1438 -1.1004  0.8613
10347SOL    HW231620   4.836   9.792   0.360 -3.5613  0.1768 -0.0328
10348SOL     OW31621   8.635   7.387   3.066  0.0849 -0.4493  0.9216
10348SOL    HW131622   8.618   7.449   3.137  2.5369  1.9498 -0.3825
10348SOL    HW231623   8.572   7.411   2.997  0.7505  0.3575  0.5804
10349SOL     OW31624   4.834   9.453   0.561  0.1286  0.1913  0.3830
10349SOL    HW131625   4.746   9.438   0.526 -0.0426 -0.7569  1.1834
10349SOL    HW231626   4.833   9.545   0.588  0.4195  1.1054 -2.4194
10350SOL     OW31627   8.157   9.408   1.501  0.0971 -0.0233  0.7362
10350SOL    HW131628   8.187   9.321   1.476  0.2036 -0.2064  1.4709
10350SOL    HW231629   8.141   9.453   1.418 -0.1379 -0.7974  0.3556
10351SOL     OW31630   4.282   1.588   4.612 -0.3541 -0.0862  0.3478
10351SOL    HW131631   4.359   1.537   4.636 -0.6574 -0.3113  0.8473
10351SOL    HW231632   4.235   1.532   4.550  0.5398  0.5838 -0.9911
10352SOL     OW31633   8.073   9.441   2.276 -0.0141 -0.3325 -0.2942
10352SOL    HW131634   8.013   9.381   2.319  0.4103 -0.6716 -0.1817
10352SOL    HW231635   8.036   9.528   2.293 -0.1934 -0.5069  0.1997
10353SOL     OW31636   2.109   2.477   8.761  0.1067 -0.0502  0.5370
10353SOL    HW131637   2.176   2.528   8.716  0.9788 -2.4374 -1.0205
10353SOL    HW231638   2.031   2.485   8.705  0.2329 -0.3999  0.3120
10354SOL     OW31639   4.266   9.533   4.869 -0.1594 -0.7165  0.1117
10354SOL    HW131640   4.313   9.449   4.875 -1.3813 -1.4588 -0.4074
10354SOL    HW231641   4.324   9.595   4.912  0.8096 -1.8147  0.4579
10355SOL     OW31642   0.811   0.296   0.537 -0.1932 -0.2274  0.5777
10355SOL    HW131643   0.747   0.344   0.484 -1.0216 -2.2914 -0.3960
10355SOL    HW231644   0.878   0.269   0.476  0.6044  0.2205  1.2376
10356SOL     OW31645   5.250   2.321   2.216 -0.6488  0.5206 -0.1614
10356SOL    HW131646   5.220   2.361   2.135  0.4332 -1.6306 -1.7249
10356SOL    HW231647   5.199   2.241   2.225 -1.5892  1.2790  1.9778
10357SOL     OW31648   3.135   9.193   0.254  0.3771 -0.4378  0.0309
10357SOL    HW131649   3.163   9.140   0.179 -0.0590 -0.0519 -0.4077
10357SOL    HW231650   3.146   9.283   0.226  0.8796 -0.2797  0.6922
10358SOL     OW31651   2.297   1.780   7.315 -0.0194 -0.1553 -0.8826
10358SOL    HW131652   2.283   1.832   7.394  1.8384 -0.5023 -0.2903
10358SOL    HW231653   2.263   1.693   7.336 -1.2269  0.2199 -1.1570
10359SOL     OW31654   7.580   9.405   7.785  0.7404 -0.2210  0.0804
10359SOL    HW131655   7.493   9.369   7.768  1.8924 -2.9852 -0.6619
10359SOL    HW231656   7.578   9.493   7.748 -1.1724 -0.9482 -1.7356
10360SOL     OW31657   5.048   3.489   3.089  0.4124  0.1354  0.1324
10360SOL    HW131658   5.114   3.552   3.061  0.4186 -0.3731 -1.0359
10360SOL    HW231659   4.964   3.533   3.073  0.3753 -0.5730 -1.8417
10361SOL     OW31660   5.463   5.544   7.403 -0.3724  1.0797 -1.0773
10361SOL    HW131661   5.459   5.505   7.316 -1.7638  0.1108 -0.6074
10361SOL    HW231662   5.372   5.549   7.432  0.1401 -1.2718  1.4336
10362SOL     OW31663   1.453   9.368   8.121  0.2014 -0.0479 -0.1185
10362SOL    HW131664   1.424   9.285   8.158  0.9336 -0.6532 -0.8510
10362SOL    HW231665   1.543   9.351   8.093 -0.7781 -0.1776 -3.6693
10363SOL     OW31666   4.146   4.469   3.759  0.6165  0.4878 -0.5693
10363SOL    HW131667   4.089   4.507   3.826 -1.2701 -1.8556 -0.7306
10363SOL    HW231668   4.106   4.492   3.676  1.1740  0.7018 -0.7858
10364SOL     OW31669   0.661   6.682   9.169  0.1962 -1.0382  0.3471
10364SOL    HW131670   0.613   6.627   9.231  1.1971 -1.0672  1.1249
10364SOL    HW231671   0.609   6.762   9.163  0.6535 -0.5475  2.1614
10365SOL     OW31672   7.008   2.714   0.826 -0.0996  0.4944  0.0417
10365SOL    HW131673   7.025   2.708   0.732 -0.4426  0.5524 -0.0244
10365SOL    HW231674   7.079   2.663   0.867  1.6713  2.6714 -0.0951
10366SOL     OW31675   3.892   6.364   8.051 -0.0201 -0.0087  0.0844
10366SOL    HW131676   3.864   6.418   8.125 -0.9267 -0.7733  0.3132
10366SOL    HW231677   3.911   6.278   8.089 -1.0506 -0.5739 -0.6409
10367SOL     OW31678   6.876   2.263   5.772  0.3401 -0.6405  0.5764
10367SOL    HW131679   6.812   2.206   5.814 -0.0714 -0.2943  0.4369
10367SOL    HW231680   6.961   2.230   5.800  0.0867  0.3769  2.7617
10368SOL     OW31681   7.038   5.971   6.240  0.1695 -0.2971 -0.8826
10368SOL    HW131682   7.009   5.989   6.151 -0.2119  1.8366 -0.3725
10368SOL    HW231683   7.123   6.014   6.247 -0.3692  0.6471  0.1414
10369SOL     OW31684   7.611   8.563   7.725 -0.2749  0.0116  0.3709
10369SOL    HW131685   7.580   8.473   7.727  0.3495 -0.2024  0.5099
10369SOL    HW231686   7.551   8.611   7.782 -1.5318 -0.0130 -0.8719
10370SOL     OW31687   7.884   6.002   3.641  0.4928  0.3826 -0.4898
10370SOL    HW131688   7.956   5.995   3.704  0.9769 -0.3617 -1.0933
10370SOL    HW231689   7.806   5.979   3.691  0.8617 -0.1333 -0.1372
10371SOL     OW31690   3.953   7.564   9.201  0.2232 -0.2576 -0.5871
10371SOL    HW131691   3.882   7.542   9.261 -0.1230  2.4694  0.1679
10371SOL    HW231692   3.910   7.581   9.118  0.0401  0.6125 -0.3318
10372SOL     OW31693   0.177   6.113   5.635 -0.1749  0.9685  0.5040
10372SOL    HW131694   0.186   6.050   5.564 -0.9441  1.2288  0.1703
10372SOL    HW231695   0.083   6.117   5.653  0.0464  0.4074  1.9882
10373SOL     OW31696   0.837   4.943   1.782 -0.2905  0.1956 -0.3904
10373SOL    HW131697   0.930   4.949   1.759  0.1253  0.5992  1.2604
10373SOL    HW231698   0.813   5.032   1.808 -0.4585 -0.3597  1.4994
10374SOL     OW31699   4.274   0.014   0.205  0.6025  0.5595  0.1147
10374SOL    HW131700   4.267   0.102   0.244  1.4094  1.0978 -0.9294
10374SOL    HW231701   4.239   0.024   0.117  0.6147 -0.1988  0.0206
10375SOL     OW31702   3.888   8.594   0.906 -0.3924 -0.8698 -0.8184
10375SOL    HW131703   3.879   8.537   0.983 -0.1121 -1.8892 -1.5312
10375SOL    HW231704   3.905   8.534   0.833 -0.4820  0.1010 -1.6528
10376SOL     OW31705   8.686   6.079   9.472  0.6303  0.3120  0.6969
10376SOL    HW131706   8.691   6.174   9.465  1.3851  0.3091  1.1478
10376SOL    HW231707   8.698   6.060   9.565  0.3824 -0.2173  0.6268
10377SOL     OW31708   0.809   3.775   8.579  0.3678 -0.0632  0.3612
10377SOL    HW131709   0.754   3.727   8.517 -0.0726 -0.7655  1.2738
10377SOL    HW231710   0.790   3.868   8.561 -0.7396 -0.2838  0.3048
10378SOL     OW31711   5.003   9.035   2.155 -0.1693  0.2841  0.0496
10378SOL    HW131712   5.041   8.961   2.108 -1.4301 -0.8435  0.7273
10378SOL    HW231713   5.006   9.107   2.093 -0.7287 -0.8601 -1.3664
10379SOL     OW31714   1.124   5.862   4.454  0.4291 -0.2891 -0.8763
10379SOL    HW131715   1.058   5.859   4.523  0.0838 -0.9777 -1.2317
10379SOL    HW231716   1.079   5.897   4.378  0.4501 -0.8128 -1.1363
10380SOL     OW31717   3.519   7.404   5.837 -0.3985 -0.6228 -0.1295
10380SOL    HW131718   3.544   7.348   5.764 -0.2481 -0.5348 -0.1447
10380SOL    HW231719   3.601   7.442   5.868 -0.2373 -2.0189  1.2293
10381SOL     OW31720   5.990   4.871   0.509 -0.5333  0.5176  0.1230
10381SOL    HW131721   5.994   4.813   0.433 -0.1848 -1.0167  1.2589
10381SOL    HW231722   6.068   4.926   0.502 -0.2751  0.0918 -0.3994
10382SOL     OW31723   3.738   0.760   9.806 -0.1919  0.7023  0.2104
10382SOL    HW131724   3.663   0.804   9.768 -0.5030 -0.2982 -0.3650
10382SOL    HW231725   3.757   0.688   9.746 -0.2460 -0.4828  1.5494
10383SOL     OW31726   2.224   6.716   1.680  0.0203 -0.1811  0.6092
10383SOL    HW131727   2.253   6.679   1.764 -0.1331  0.0952  0.7845
10383SOL    HW231728   2.188   6.801   1.703 -0.9010 -0.5007  0.3956
10384SOL     OW31729   4.312   1.391   0.719 -0.2434  0.1899 -0.4434
10384SOL    HW131730   4.218   1.395   0.698 -0.6699 -0.0029  1.3071
10384SOL    HW231731   4.339   1.483   0.725 -0.3333  0.2457 -0.8552
10385SOL     OW31732   6.548   2.863   5.419  0.2554  0.8566 -0.1833
10385SOL    HW131733   6.610   2.799   5.383  1.4389  0.5197  2.2516
10385SOL    HW231734   6.603   2.930   5.460 -0.9233  0.6512  1.8938
10386SOL     OW31735   3.206   5.977   3.563  0.4249  0.0471  0.2826
10386SOL    HW131736   3.281   5.944   3.613  0.8076  2.1877  1.2550
10386SOL    HW231737   3.147   5.901   3.554  1.7937 -1.1767  1.2299
10387SOL     OW31738   3.087   5.354   7.373  0.0253 -0.1129 -0.2507
10387SOL    HW131739   3.117   5.364   7.283  0.8575  0.4702  0.0802
10387SOL    HW231740   3.069   5.443   7.403 -0.1282 -0.2900  0.2031
10388SOL     OW31741   3.081   9.904   8.209  0.0868 -0.3193 -0.3333
10388SOL    HW131742   3.031   9.836   8.164 -0.7798  0.3061 -0.3466
10388SOL    HW231743   3.170   9.895   8.175 -0.4743 -0.0765 -1.9651
10389SOL     OW31744   7.984   0.774   1.790 -0.0165 -0.1102  0.4579
10389SOL    HW131745   8.074   0.754   1.816  0.3271 -0.5840 -0.9920
10389SOL    HW231746   7.933   0.700   1.823  0.6317 -1.4334 -1.3777
10390SOL     OW31747   6.518   4.816   3.389 -0.3255 -0.4100 -0.3622
10390SOL    HW131748   6.425   4.818   3.411 -0.3619 -0.5757 -0.4921
10390SOL    HW231749   6.540   4.723   3.384  0.0600 -0.3714  0.5307
10391SOL     OW31750   0.236   9.102   8.827  0.8412 -0.2409  0.4583
10391SOL    HW131751   0.241   9.143   8.913 -1.9111  2.6761 -0.5496
10391SOL    HW231752   0.204   9.014   8.843 -0.1943  0.4395  2.4213
10392SOL     OW31753   3.572   5.665   9.182  0.0924  0.4903 -0.2483
10392SOL    HW131754   3.524   5.746   9.195  1.1608  1.5392 -2.2922
10392SOL    HW231755   3.663   5.687   9.203  0.2966 -0.3560 -0.2052
10393SOL     OW31756   8.357   0.490   9.695 -0.6370  0.1627  0.2424
10393SOL    HW131757   8.438   0.470   9.648 -0.7762 -1.0581  0.4830
10393SOL    HW231758   8.318   0.561   9.646 -0.9375 -1.2678 -1.7288
10394SOL     OW31759   2.548   6.906   8.438 -0.0317 -0.1267  0.5469
10394SOL    HW131760   2.518   6.922   8.528 -1.7824  0.2296 -0.0626
10394SOL    HW231761   2.470   6.876   8.392  0.6114  0.6193 -1.1027
10395SOL     OW31762   9.263   6.080   8.808 -0.0805  0.8614 -0.3342
10395SOL    HW131763   9.320   6.094   8.733 -0.9272 -0.1521 -1.1961
10395SOL    HW231764   9.285   5.993   8.839 -1.3625  0.3118 -0.8889
10396SOL     OW31765   4.586   3.328   9.944 -0.8643  0.4265 -0.1434
10396SOL    HW131766   4.630   3.315  10.027 -0.5965  1.7203 -0.0686
10396SOL    HW231767   4.530   3.251   9.934  1.6927 -1.5149 -0.4630
10397SOL     OW31768   3.837   3.942   3.045 -0.1038 -0.0545 -0.5203
10397SOL    HW131769   3.829   3.847   3.042 -1.8033 -0.0181  1.1449
10397SOL    HW231770   3.757   3.974   3.003 -0.6458  0.5748  0.9045
10398SOL     OW31771   5.178   9.756   9.062 -0.0486  0.3792 -0.4008
10398SOL    HW131772   5.192   9.662   9.060 -3.0933 -0.2652  1.7331
10398SOL    HW231773   5.228   9.787   9.138  3.0181  1.0617 -2.5217
10399SOL     OW31774   7.164   6.976   4.931  0.1838 -0.2823  0.5183
10399SOL    HW131775   7.166   6.947   4.840  2.1178 -2.7718  1.2293
10399SOL    HW231776   7.253   7.007   4.948  0.2682 -1.1814  1.8962
10400SOL     OW31777   7.085   3.807   5.886  0.3857  0.0949  0.5887
10400SOL    HW131778   7.093   3.716   5.915 -1.6953 -0.1887  0.4459
10400SOL    HW231779   7.085   3.858   5.967  0.4834 -0.1216  0.7273
10401SOL     OW31780   9.445   3.967   4.266  0.4011 -0.0967  0.0874
10401SOL    HW131781   9.362   3.933   4.232  0.4210 -0.0732  0.0136
10401SOL    HW231782   9.486   4.009   4.190  1.6902 -2.3726 -0.6077
10402SOL     OW31783   2.101   9.682   0.714  0.0278 -0.2014  0.4912
10402SOL    HW131784   2.022   9.641   0.681  1.6037 -1.6450 -1.7544
10402SOL    HW231785   2.133   9.735   0.642  0.6072  1.2070  1.7193
10403SOL     OW31786   2.547   6.909   9.610  0.1746  0.1123  0.0564
10403SOL    HW131787   2.513   6.848   9.544 -0.3449  1.3640 -0.8982
10403SOL    HW231788   2.633   6.934   9.577 -0.6919  1.8944 -1.0214
10404SOL     OW31789   9.188   3.731   9.298  0.1520 -0.1020  0.0323
10404SOL    HW131790   9.188   3.653   9.242 -0.0582  0.1370 -0.3035
10404SOL    HW231791   9.278   3.737   9.330  0.4802  0.1989 -0.9086
10405SOL     OW31792   3.508   1.235   0.636 -0.4527  0.7608 -0.5483
10405SOL    HW131793   3.519   1.330   0.639  0.4199  0.6774 -0.8897
10405SOL    HW231794   3.472   1.213   0.722 -1.9143  1.5357 -0.9224
10406SOL     OW31795   0.084   4.026   0.327  0.5002  0.5604 -0.5010
10406SOL    HW131796   0.095   3.953   0.388 -0.7538 -0.1884 -1.1368
10406SOL    HW231797   0.078   4.104   0.383  0.3010 -0.0053  0.2718
10407SOL     OW31798   3.857   3.992   8.451 -0.2752 -0.4806  0.4293
10407SOL    HW131799   3.822   3.910   8.486  0.5079 -0.7390  0.6156
10407SOL    HW231800   3.949   3.974   8.433  0.3223  0.8000  1.9451
10408SOL     OW31801   7.628   1.483   2.814 -0.0667 -0.0441 -0.1988
10408SOL    HW131802   7.698   1.470   2.751 -0.3368 -1.0318 -0.3155
10408SOL    HW231803   7.655   1.559   2.865  0.0532  0.9149 -1.6369
10409SOL     OW31804   1.809   7.745   7.651  0.6826 -0.6417  0.2840
10409SOL    HW131805   1.879   7.809   7.642  0.5854 -0.7939 -2.6640
10409SOL    HW231806   1.826   7.681   7.582 -1.1177 -1.9109  0.9360
10410SOL     OW31807   0.568   2.801   7.505 -0.2457 -0.6372 -0.3949
10410SOL    HW131808   0.485   2.831   7.469  0.0149  0.0129 -0.4556
10410SOL    HW231809   0.568   2.706   7.489 -1.3784 -0.7981  0.4356
10411SOL     OW31810   1.997   2.144   3.575 -0.3878  0.1708 -0.1181
10411SOL    HW131811   1.964   2.063   3.537  1.9975 -0.9521  0.0469
10411SOL    HW231812   2.027   2.120   3.662  2.1180  0.7491 -0.7576
10412SOL     OW31813   6.787   8.836   9.686  0.1435 -0.0970 -0.6118
10412SOL    HW131814   6.831   8.918   9.705  0.6814  0.3393 -3.3133
10412SOL    HW231815   6.835   8.770   9.736  1.8864  0.8069 -1.0091
10413SOL     OW31816   5.103   7.796   0.174  0.8012  0.5181 -0.1153
10413SOL    HW131817   5.115   7.702   0.161  2.9656  0.9009 -1.2690
10413SOL    HW231818   5.020   7.815   0.130 -0.0871 -0.9445  0.8241
10414SOL     OW31819   9.607   8.412   7.289  0.0193 -0.2039 -0.5912
10414SOL    HW131820   9.562   8.478   7.236  0.9027  0.9022 -0.0083
10414SOL    HW231821   9.579   8.431   7.379  0.8444 -0.1474 -0.3407
10415SOL     OW31822   8.894   9.281   1.305  0.0698  0.1215  0.1216
10415SOL    HW131823   8.827   9.318   1.362  1.7486  0.9746  1.6837
10415SOL    HW231824   8.954   9.236   1.365 -0.0132 -2.1675 -1.3819
10416SOL     OW31825   1.720   5.720   1.304 -0.4933  0.3896  0.0266
10416SOL    HW131826   1.783   5.790   1.283  0.9607 -0.7787  0.2987
10416SOL    HW231827   1.707   5.674   1.221 -0.3658  0.1422  0.1437
10417SOL     OW31828   4.238   3.020   7.643 -0.4036 -0.7596 -0.2389
10417SOL    HW131829   4.194   3.040   7.726 -0.4805  0.7213 -0.6063
10417SOL    HW231830   4.306   2.957   7.666  0.2527  0.4212  1.1431
10418SOL     OW31831   8.337   7.215   8.068 -0.0047 -0.7203  0.2874
10418SOL    HW131832   8.314   7.150   8.135  1.4235 -0.4623  1.0672
10418SOL    HW231833   8.432   7.209   8.060 -0.2105 -1.7526 -2.8074
10419SOL     OW31834   3.063   3.630   4.502  0.3139 -0.8216  0.2820
10419SOL    HW131835   2.997   3.561   4.505 -0.4589 -0.2155 -1.2867
10419SOL    HW231836   3.013   3.711   4.516  0.5546 -0.2986 -1.5672
10420SOL     OW31837   6.307   0.330   2.554  0.0689  0.3696 -0.1764
10420SOL    HW131838   6.296   0.398   2.487 -1.5741 -0.5182 -0.8632
10420SOL    HW231839   6.299   0.376   2.637 -0.3657  1.1250 -0.6296
10421SOL     OW31840   0.405   7.781   9.621 -0.3067  0.1142  0.3111
10421SOL    HW131841   0.458   7.832   9.559  0.6514 -0.7746  0.3520
10421SOL    HW231842   0.412   7.828   9.704 -1.2139  1.0648 -0.1427
10422SOL     OW31843   5.952   5.783   3.194 -0.2788  0.5160 -0.1189
10422SOL    HW131844   6.047   5.792   3.184 -0.3612 -0.3424 -1.9835
10422SOL    HW231845   5.917   5.867   3.164 -0.1226  0.9303  0.8157
10423SOL     OW31846   2.984   2.835   0.424  0.5654  0.0121  0.3519
10423SOL    HW131847   2.997   2.786   0.343 -1.1405  0.4015 -0.1955
10423SOL    HW231848   3.044   2.910   0.416 -0.8021  1.0197 -1.4196
10424SOL     OW31849   4.310   8.527   6.061 -0.1419  0.0521 -0.3681
10424SOL    HW131850   4.260   8.464   6.114 -0.4197  0.6107  0.0393
10424SOL    HW231851   4.327   8.600   6.120 -0.7227  0.8288 -1.1391
10425SOL     OW31852   8.273   8.998   0.593  0.1378  0.3651  0.7512
10425SOL    HW131853   8.360   8.968   0.565 -0.1473 -0.6600  0.9208
10425SOL    HW231854   8.286   9.090   0.617  1.0301  0.4124  0.1508
10426SOL     OW31855   1.462   8.196   2.475  0.4728  0.3173  0.1151
10426SOL    HW131856   1.444   8.102   2.466 -0.3844  0.5092 -0.3397
10426SOL    HW231857   1.377   8.237   2.456  0.5980  1.1356  1.2602
10427SOL     OW31858   7.586   5.415   7.966  0.1483  0.4992 -0.2882
10427SOL    HW131859   7.654   5.381   8.023  0.7986  0.6325 -0.9570
10427SOL    HW231860   7.628   5.488   7.920  0.6717 -1.4248 -3.1351
10428SOL     OW31861   9.303   5.838   4.979  0.4469  0.1733 -0.8316
10428SOL    HW131862   9.397   5.824   4.987  0.2485 -1.5658 -1.3101
10428SOL    HW231863   9.276   5.786   4.904 -0.7140  1.7014 -1.5508
10429SOL     OW31864   7.900   6.489   4.654  0.4890 -0.0069 -0.5470
10429SOL    HW131865   7.959   6.413   4.654  0.6988  0.1545 -1.0241
10429SOL    HW231866   7.957   6.564   4.642  0.5866  0.5042  2.3806
10430SOL     OW31867   5.761   6.400   9.186 -0.4178 -0.2705 -0.5003
10430SOL    HW131868   5.746   6.355   9.103  1.4386 -1.2035 -0.3780
10430SOL    HW231869   5.853   6.385   9.205 -0.3423  1.5424  0.8040
10431SOL     OW31870   6.734   4.739   0.668  0.6132  0.0271 -0.6432
10431SOL    HW131871   6.644   4.728   0.701  0.4721  0.6668 -0.8009
10431SOL    HW231872   6.730   4.818   0.614  1.0744 -0.4361 -1.3777
10432SOL     OW31873   9.041   1.469   9.885  0.0026  0.2908  0.2545
10432SOL    HW131874   9.001   1.556   9.892  0.3200  0.4843 -0.2962
10432SOL    HW231875   9.060   1.444   9.975 -2.5819 -0.3854  0.7070
10433SOL     OW31876   4.323   6.504   7.541 -0.3234 -0.8479 -0.1669
10433SOL    HW131877   4.317   6.578   7.602 -0.5511 -0.5657 -0.5241
10433SOL    HW231878   4.232   6.480   7.523 -0.3063 -0.1241 -1.3438
10434SOL     OW31879   4.580   7.832   6.137  0.3040  0.2072  0.5656
10434SOL    HW131880   4.533   7.783   6.069 -0.7051  3.1666 -1.0390
10434SOL    HW231881   4.521   7.832   6.212  0.2564 -0.8417  0.5418
10435SOL     OW31882   3.476   5.582   7.169  0.4542 -0.0272 -0.4653
10435SOL    HW131883   3.385   5.595   7.196  0.5008  1.2960 -0.8682
10435SOL    HW231884   3.500   5.497   7.205 -0.5893  0.1142  0.6157
10436SOL     OW31885   2.897   8.650   9.593  0.3185  0.0038  0.6539
10436SOL    HW131886   2.990   8.635   9.607 -0.2782 -3.4135  2.0549
10436SOL    HW231887   2.855   8.614   9.671 -2.3231 -1.6230 -1.3356
10437SOL     OW31888   0.464   6.442   7.870 -0.4637 -0.0562 -0.1592
10437SOL    HW131889   0.415   6.378   7.921 -0.0311 -0.2500  0.0205
10437SOL    HW231890   0.407   6.518   7.864 -0.5147 -0.0327  0.6172
10438SOL     OW31891   5.907   3.873   4.986 -0.0741  0.6468  0.5056
10438SOL    HW131892   5.954   3.806   5.035 -1.5554  0.1051  1.2639
10438SOL    HW231893   5.897   3.836   4.898  1.2701  0.9698  0.2002
10439SOL     OW31894   3.875   8.366   7.804  1.1967 -0.0155 -0.4094
10439SOL    HW131895   3.786   8.342   7.779  0.5434  1.0110  0.7740
10439SOL    HW231896   3.891   8.317   7.885  1.1586  0.8440  0.1315
10440SOL     OW31897   8.961   1.295   7.338 -0.4291 -0.1571  0.4152
10440SOL    HW131898   9.043   1.293   7.387 -0.9462  1.4477  1.4225
10440SOL    HW231899   8.977   1.239   7.262  0.4862 -2.4726  2.2214
10441SOL     OW31900   0.148   5.964   6.973  0.3683  0.3367  0.6563
10441SOL    HW131901   0.164   5.933   6.884  0.7256 -1.6181  1.3539
10441SOL    HW231902   0.090   6.040   6.962  1.6074  1.0939 -1.3097
10442SOL     OW31903   2.316   2.571   1.512 -0.0261 -0.3421 -0.4126
10442SOL    HW131904   2.326   2.538   1.423 -1.9203 -1.2033 -0.3595
10442SOL    HW231905   2.403   2.561   1.552  0.2741 -2.1397 -1.4407
10443SOL     OW31906   0.650   2.745   1.098  0.2443  0.4522  0.1272
10443SOL    HW131907   0.634   2.691   1.020 -1.2310  1.4859 -0.3365
10443SOL    HW231908   0.745   2.745   1.108  0.3921 -0.6501 -0.9869
10444SOL     OW31909   8.144   5.442   4.532  0.8772  0.0996  0.4566
10444SOL    HW131910   8.104   5.386   4.599 -3.2750  1.4931 -0.5600
10444SOL    HW231911   8.146   5.387   4.454  1.5578 -0.1393  0.6332
10445SOL     OW31912   9.050   9.833   3.881  0.3534 -0.3093  0.5199
10445SOL    HW131913   8.988   9.774   3.926  1.2027  0.0213  2.1970
10445SOL    HW231914   9.096   9.776   3.820 -0.7432 -0.8080  0.1151
10446SOL     OW31915   8.912   9.499   0.601 -0.6012 -0.0449  0.4226
10446SOL    HW131916   8.885   9.423   0.652 -0.7025  0.2277  0.7801
10446SOL    HW231917   8.832   9.552   0.593 -0.3940  0.3090  0.6800
10447SOL     OW31918   7.782   5.143   4.408  0.1244 -0.1831  0.0949
10447SOL    HW131919   7.768   5.203   4.334  0.1346 -0.3974 -0.0840
10447SOL    HW231920   7.862   5.096   4.385  0.0196 -0.3882  0.1520
10448SOL     OW31921   6.341   6.750   7.086 -0.8773 -0.1381  0.9045
10448SOL    HW131922   6.281   6.772   7.157  0.4140 -0.2973  2.0731
10448SOL    HW231923   6.376   6.834   7.056  0.3917 -0.2041  2.1097
10449SOL     OW31924   7.139   1.018   2.990  0.0131  0.4780 -0.0074
10449SOL    HW131925   7.053   0.976   2.985  0.6004 -1.2475  2.4272
10449SOL    HW231926   7.135   1.070   3.070  1.5633 -0.5998  0.8158
10450SOL     OW31927   2.602   2.950   9.572 -0.2493 -0.2762  0.0001
10450SOL    HW131928   2.684   2.941   9.622 -0.2479 -1.2613 -0.1494
10450SOL    HW231929   2.569   2.860   9.566 -1.1269  0.0654 -0.3078
10451SOL     OW31930   5.937   1.346   3.403 -0.0021 -0.6352  0.2039
10451SOL    HW131931   5.890   1.424   3.374 -0.8903 -1.0654  0.4635
10451SOL    HW231932   5.973   1.308   3.323 -0.5388 -0.5893 -0.0602
10452SOL     OW31933   6.706   2.915   9.152 -0.1375 -0.1220  0.5035
10452SOL    HW131934   6.697   2.897   9.059 -1.4562  2.6857 -0.0414
10452SOL    HW231935   6.753   2.840   9.187  0.9081 -1.0093 -2.5042
10453SOL     OW31936   6.347   1.716   3.024  0.0796 -0.1078 -0.2819
10453SOL    HW131937   6.288   1.701   2.950  0.4121  1.4287 -0.8925
10453SOL    HW231938   6.407   1.641   3.022  0.2609  0.0401 -1.7791
10454SOL     OW31939   2.165   5.849   9.231  0.0850  0.0351 -0.2001
10454SOL    HW131940   2.182   5.830   9.139 -0.2618 -0.2543 -0.2053
10454SOL    HW231941   2.252   5.861   9.270  0.2871 -1.0075 -0.3197
10455SOL     OW31942   9.876   0.073   8.078  0.4756  0.2893  0.1840
10455SOL    HW131943   9.961   0.097   8.113  2.1161  1.7675 -4.1572
10455SOL    HW231944   9.893  -0.001   8.021 -0.8430  1.2800 -1.6181
10456SOL     OW31945   5.837   5.549   0.162 -0.7157  0.7056 -0.7327
10456SOL    HW131946   5.774   5.609   0.201  0.3484  1.3726  0.0035
10456SOL    HW231947   5.919   5.597   0.161  0.3825 -1.0069  0.6908
10457SOL     OW31948   4.837   3.556   4.651  0.3088 -0.4014 -0.1915
10457SOL    HW131949   4.789   3.524   4.575  0.8296  0.1998 -0.7895
10457SOL    HW231950   4.796   3.640   4.671  2.2898  1.0857 -1.9257
10458SOL     OW31951   8.572   6.534   2.270  0.3276  0.0387  0.3011
10458SOL    HW131952   8.568   6.612   2.215  2.2736  0.4974  0.7129
10458SOL    HW231953   8.656   6.495   2.249  0.4879 -0.5564  1.8932
10459SOL     OW31954   5.044   6.050   2.518  0.1038 -0.4102  0.6770
10459SOL    HW131955   5.099   6.017   2.448  0.0526  1.5236 -0.3179
10459SOL    HW231956   5.026   5.973   2.572  1.1313 -1.6994 -0.7413
10460SOL     OW31957   6.704   5.747   5.456 -0.1591  0.1479 -0.2589
10460SOL    HW131958   6.631   5.716   5.510  0.8180 -1.7362  0.0775
10460SOL    HW231959   6.663   5.801   5.389 -1.7364  0.0258  0.5489
10461SOL     OW31960   1.087   6.804   9.764 -0.4833 -0.3791  0.8351
10461SOL    HW131961   1.049   6.872   9.819 -1.1837 -0.8496  0.9518
10461SOL    HW231962   1.068   6.722   9.810 -0.5630 -0.7312  0.1942
10462SOL     OW31963   0.887   5.760   8.186 -0.0621 -0.1968 -0.0828
10462SOL    HW131964   0.966   5.811   8.170  0.2323 -0.9062 -0.9539
10462SOL    HW231965   0.823   5.796   8.123  0.3108 -1.2352 -1.0914
10463SOL     OW31966   3.402   2.314   5.610 -0.5880  0.1353  0.3144
10463SOL    HW131967   3.454   2.391   5.632  0.3269  0.0584 -1.3964
10463SOL    HW231968   3.312   2.346   5.606 -0.2719  1.0042  0.0735
10464SOL     OW31969   8.689   3.333   6.918 -0.1566  0.2372  0.5352
10464SOL    HW131970   8.774   3.301   6.948 -0.2175 -1.5514 -1.0314
10464SOL    HW231971   8.629   3.261   6.933 -1.0648  0.8850  0.1280
10465SOL     OW31972   7.482   1.222   3.450  0.4869  0.1654 -0.0408
10465SOL    HW131973   7.410   1.284   3.440  0.6149 -0.0761 -4.1562
10465SOL    HW231974   7.559   1.277   3.466  0.1481  0.8582 -0.7298
10466SOL     OW31975   3.324   5.268   1.866  0.2820 -0.1840 -0.3266
10466SOL    HW131976   3.277   5.341   1.906 -1.3033 -1.0157 -0.5804
10466SOL    HW231977   3.413   5.301   1.852 -0.3490  1.6359 -0.3114
10467SOL     OW31978   0.796   9.090   3.752 -0.4224 -0.1215 -0.4900
10467SOL    HW131979   0.812   9.179   3.723 -1.4835  0.4779  0.6591
10467SOL    HW231980   0.859   9.037   3.704  0.1842  1.2318 -1.2348
10468SOL     OW31981   8.208   1.973   1.430  0.4931 -0.0583 -0.0497
10468SOL    HW131982   8.296   1.955   1.464  0.7647  0.5378 -0.4368
10468SOL    HW231983   8.160   2.008   1.505  1.3096  1.9689 -0.4231
10469SOL     OW31984   2.960   4.999   0.398  0.5530  0.2631 -0.1073
10469SOL    HW131985   2.921   5.080   0.367  2.3291  0.9188 -0.7932
10469SOL    HW231986   2.888   4.949   0.435 -0.5246  2.3522  0.7613
10470SOL     OW31987   5.333   6.988   4.118 -0.0367  0.4761  0.0855
10470SOL    HW131988   5.340   6.928   4.045  0.4518  1.6605 -0.8703
10470SOL    HW231989   5.323   6.932   4.195 -0.1188 -0.7912 -0.8286
10471SOL     OW31990   9.941   5.554   3.540 -0.3632  0.0821 -0.0765
10471SOL    HW131991  10.011   5.489   3.542 -0.3145  0.0621 -1.4640
10471SOL    HW231992   9.886   5.533   3.615  0.7817 -0.2792  0.6740
10472SOL     OW31993   3.628   6.009   9.078  0.0312 -0.1212 -0.1937
10472SOL    HW131994   3.613   5.957   8.999 -0.0668  0.4477 -0.5515
10472SOL    HW231995   3.605   6.098   9.054  0.2893  0.1131  0.3904
10473SOL     OW31996   3.048   5.857   3.363  0.8418  0.3184 -0.1629
10473SOL    HW131997   3.090   5.938   3.336  0.7197  0.6505  0.6219
10473SOL    HW231998   2.972   5.885   3.414  1.0664 -0.2869  0.5188
10474SOL     OW31999   8.479   4.361   8.652 -0.0225  0.1751 -0.3962
10474SOL    HW132000   8.489   4.266   8.643  0.4923  0.1395  0.5203
10474SOL    HW232001   8.553   4.389   8.706  1.0318  1.4130 -2.3716
10475SOL     OW32002   7.318   8.862   0.271 -0.0726 -0.3183  0.2917
10475SOL    HW132003   7.232   8.851   0.313 -0.1959 -1.4475 -0.2160
10475SOL    HW232004   7.297   8.885   0.180  0.1859  1.1973  0.5961
10476SOL     OW32005   2.019   6.540   9.967 -0.1610 -0.5526 -0.0485
10476SOL    HW132006   1.938   6.495   9.941 -0.4145  0.3307 -0.8579
10476SOL    HW232007   2.068   6.549   9.885 -0.1257  0.6479  0.0980
10477SOL     OW32008   6.570   0.717   8.296  0.0242 -0.3041  0.8547
10477SOL    HW132009   6.555   0.672   8.379  1.3588 -0.4346  1.0470
10477SOL    HW232010   6.651   0.766   8.310  0.9049 -1.2457 -0.7352
10478SOL     OW32011   7.479   1.860   4.154  0.0593 -0.1214  0.1784
10478SOL    HW132012   7.510   1.770   4.146  0.6884  0.1768 -0.8170
10478SOL    HW232013   7.550   1.906   4.200  0.8170  0.3949 -1.4504
10479SOL     OW32014   4.521   6.197   6.682 -0.0433 -0.1645 -0.0557
10479SOL    HW132015   4.428   6.189   6.665 -0.0457  1.3480 -0.9385
10479SOL    HW232016   4.528   6.209   6.777 -0.6764 -0.9924  0.0973
10480SOL     OW32017   1.609   6.878   4.904 -0.0250  0.1737  0.4157
10480SOL    HW132018   1.593   6.909   4.993 -2.7476 -0.1556  0.1043
10480SOL    HW232019   1.651   6.953   4.861 -1.0296  1.2710  1.2839
10481SOL     OW32020   8.220   1.723   4.321 -0.0082 -0.1305 -0.4293
10481SOL    HW132021   8.178   1.688   4.243 -1.8821 -1.0111  0.8880
10481SOL    HW232022   8.189   1.813   4.327  1.4430  0.4831 -1.5293
10482SOL     OW32023   6.507   9.958   7.724 -0.4437  0.0359 -0.1521
10482SOL    HW132024   6.494   9.886   7.786 -1.4386  0.5717  0.2932
10482SOL    HW232025   6.507   9.916   7.638 -2.8460 -0.3363 -0.0311
10483SOL     OW32026   2.935   6.652   1.820 -0.0740 -0.4230 -0.2255
10483SOL    HW132027   2.962   6.652   1.912 -1.3668 -0.1147  0.1822
10483SOL    HW232028   2.935   6.745   1.795 -1.3304 -0.3395 -0.0054
10484SOL     OW32029   1.508   6.181   3.190  0.1684  0.2698 -0.3873
10484SOL    HW132030   1.487   6.098   3.232  1.8595 -0.2376 -0.4661
10484SOL    HW232031   1.466   6.177   3.104 -0.0274 -0.3677 -0.2593
10485SOL     OW32032   9.117   5.885   4.696  0.0169  0.1453 -0.2253
10485SOL    HW132033   9.071   5.949   4.750  0.4202  1.4371 -1.3451
10485SOL    HW232034   9.148   5.935   4.620  0.6251 -1.3195 -0.9949
10486SOL     OW32035   1.371   4.396   7.641 -0.6480 -0.0819 -0.4481
10486SOL    HW132036   1.359   4.342   7.719 -1.4764 -1.0932 -1.2388
10486SOL    HW232037   1.307   4.467   7.650 -0.0764  0.3633  0.2299
10487SOL     OW32038   5.796   0.115   6.148 -0.3570 -0.1362  0.7835
10487SOL    HW132039   5.722   0.150   6.198  0.1699  1.7292  0.3664
10487SOL    HW232040   5.783   0.148   6.059  1.5074  1.2027  0.9434
10488SOL     OW32041   5.851   7.966   7.014  0.4796 -0.6509  0.1372
10488SOL    HW132042   5.764   7.989   7.048  1.1199  1.2736  0.6106
10488SOL    HW232043   5.881   7.895   7.070  0.2580  0.4237  1.6636
10489SOL     OW32044   0.049   4.291   9.492 -0.0782  0.3066 -0.0866
10489SOL    HW132045   0.120   4.252   9.441  0.7058  2.5615 -0.8301
10489SOL    HW232046   0.029   4.373   9.447 -1.3438  1.0074  1.6251
10490SOL     OW32047   9.825   2.515   2.404 -0.6229 -0.1607  0.2551
10490SOL    HW132048   9.730   2.503   2.408 -0.6519  0.0793  0.3283
10490SOL    HW232049   9.843   2.582   2.470 -0.4153 -0.1378  0.1745
10491SOL     OW32050   8.047   3.130   5.192  0.0737 -0.6893 -0.7218
10491SOL    HW132051   8.093   3.076   5.257  2.8575  2.2382 -0.0145
10491SOL    HW232052   7.955   3.126   5.219  0.7218 -1.9578  1.5893
10492SOL     OW32053   8.924   3.268   7.049  0.0321 -1.0479 -0.1077
10492SOL    HW132054   8.953   3.194   6.996  1.1512  0.3297 -1.5043
10492SOL    HW232055   8.983   3.339   7.026 -2.4559  1.0153 -0.6835
10493SOL     OW32056   9.576   5.175   8.703  0.2073 -0.4130  0.4875
10493SOL    HW132057   9.617   5.208   8.623 -0.0606  1.1235  0.9627
10493SOL    HW232058   9.617   5.089   8.717  0.7693 -0.3910 -0.9023
10494SOL     OW32059   7.789   1.317   8.275 -0.1613  0.3884  0.0389
10494SOL    HW132060   7.725   1.366   8.223 -1.2561  0.1519  1.1034
10494SOL    HW232061   7.755   1.322   8.364  0.0323 -1.7579  0.2732
10495SOL     OW32062   6.896   3.094   4.849 -0.0419 -0.5417  0.0492
10495SOL    HW132063   6.921   3.047   4.929  0.5512 -0.3571 -0.0218
10495SOL    HW232064   6.922   3.185   4.865 -1.9555 -0.0422  0.5176
10496SOL     OW32065   5.173   9.525   7.490  0.2084 -0.2138 -0.5986
10496SOL    HW132066   5.248   9.560   7.538 -0.2070  0.7439 -0.6292
10496SOL    HW232067   5.211   9.473   7.420  0.8377 -2.3301  1.2093
10497SOL     OW32068   0.848   8.627   2.829 -0.3147  0.3402 -0.2588
10497SOL    HW132069   0.829   8.534   2.816  2.5947 -0.5223  0.8415
10497SOL    HW232070   0.885   8.655   2.745 -0.8593  0.4274 -0.4747
10498SOL     OW32071   3.998   6.608   6.437  0.0478 -0.1669 -0.3530
10498SOL    HW132072   3.944   6.606   6.357  0.2969  0.8927 -0.5687
10498SOL    HW232073   4.036   6.521   6.442 -2.0297 -1.1223  0.0527
10499SOL     OW32074   3.819   0.493   1.466 -0.7816  0.1216  0.1779
10499SOL    HW132075   3.793   0.584   1.475  0.8591  0.4707  1.8976
10499SOL    HW232076   3.788   0.450   1.546  0.2831 -0.3419  0.3598
10500SOL     OW32077   3.809   5.917   5.826 -0.3331  0.0966 -0.5111
10500SOL    HW132078   3.853   5.832   5.827 -0.3346  0.0974  0.0250
10500SOL    HW232079   3.737   5.907   5.888  0.5170  0.9272  0.6375
10501SOL     OW32080   1.280   4.870   8.142 -0.1220 -0.3344 -0.3878
10501SOL    HW132081   1.333   4.950   8.143  1.1078 -1.1212 -0.7598
10501SOL    HW232082   1.199   4.895   8.187  0.3387  1.0450 -0.2658
10502SOL     OW32083   2.190   1.455   0.577 -0.1754 -0.2593 -0.0465
10502SOL    HW132084   2.226   1.543   0.584 -0.1985 -0.3706  1.9649
10502SOL    HW232085   2.249   1.410   0.516  1.6152  0.2977  1.2005
10503SOL     OW32086   8.177   5.268   7.541  0.1909  0.3842  0.2856
10503SOL    HW132087   8.229   5.266   7.461  1.0158  0.1953  0.8125
10503SOL    HW232088   8.097   5.315   7.517  0.3430  0.1641 -0.6918
10504SOL     OW32089   3.482   7.552   3.836 -0.2854 -0.2177 -0.2290
10504SOL    HW132090   3.442   7.602   3.907  0.4594  1.0741 -0.6822
10504SOL    HW232091   3.412   7.495   3.804 -1.2741  0.7943  0.0743
10505SOL     OW32092   8.973   1.606   4.086 -0.4155 -0.0144  0.3157
10505SOL    HW132093   9.015   1.524   4.060 -0.2901  0.7577 -2.2145
10505SOL    HW232094   9.037   1.650   4.141  0.4818 -0.5955 -0.2391
10506SOL     OW32095   5.992   9.517   0.367  0.2750 -0.1935  0.1228
10506SOL    HW132096   5.964   9.596   0.414  2.8984  0.1723  1.2092
10506SOL    HW232097   5.939   9.518   0.287 -0.1156  2.4104  0.3178
10507SOL     OW32098   8.113   2.753   9.172  0.3332  0.1083  0.2680
10507SOL    HW132099   8.100   2.706   9.089 -1.7659 -1.0622  1.2042
10507SOL    HW232100   8.154   2.689   9.230 -2.3513 -0.6546  1.4855
10508SOL     OW32101   2.591   1.482   7.857  0.5741  0.5492 -0.0379
10508SOL    HW132102   2.544   1.471   7.940 -0.0037 -0.8548 -0.5218
10508SOL    HW232103   2.676   1.516   7.883  0.4163  0.1200  1.1462
10509SOL     OW32104   2.687   4.646   8.240  0.3455 -0.6366  0.0705
10509SOL    HW132105   2.606   4.626   8.193  0.5735  1.1625 -1.1960
10509SOL    HW232106   2.668   4.727   8.287  0.3890 -1.9773  2.5322
10510SOL     OW32107   9.439   3.240   3.884 -0.4229  0.3341 -0.0849
10510SOL    HW132108   9.406   3.238   3.974  0.6058  1.1697  0.3345
10510SOL    HW232109   9.524   3.196   3.889 -1.4331 -1.9399 -1.1724
10511SOL     OW32110   6.426   5.042   9.439 -0.3276  0.0114 -0.5219
10511SOL    HW132111   6.350   5.027   9.495 -1.4542 -1.8448 -2.3824
10511SOL    HW232112   6.428   5.137   9.427 -0.4830  0.4029  1.9494
10512SOL     OW32113   8.352   2.454   8.207 -0.3682  0.0004 -0.2180
10512SOL    HW132114   8.396   2.516   8.265 -1.1163 -0.3066  0.7215
10512SOL    HW232115   8.340   2.501   8.125  0.9874  0.3447 -0.2287
10513SOL     OW32116   9.020   0.323   2.709 -0.2919  0.5695 -0.0006
10513SOL    HW132117   8.952   0.385   2.681 -0.4965  0.6918  0.7419
10513SOL    HW232118   9.103   0.369   2.694 -0.3442  0.2994 -1.2068
10514SOL     OW32119   5.483   2.727   8.115 -0.2079 -0.1968 -0.2364
10514SOL    HW132120   5.509   2.754   8.203 -1.0964 -3.1246  1.0267
10514SOL    HW232121   5.391   2.752   8.109 -0.3034 -0.5285 -0.1259
10515SOL     OW32122   1.347   2.426   6.645 -0.2164 -0.3352  0.6467
10515SOL    HW132123   1.388   2.369   6.581 -2.2595 -1.4945  0.3029
10515SOL    HW232124   1.344   2.512   6.602  0.0051 -0.6997 -0.1113
10516SOL     OW32125   1.170   9.868   5.426 -0.1082 -0.1592 -0.0977
10516SOL    HW132126   1.108   9.878   5.498 -2.1385  0.5787 -1.8112
10516SOL    HW232127   1.117   9.834   5.354  1.9866 -1.5719 -1.0580
10517SOL     OW32128   4.228   9.159   0.814 -0.1320  0.8394 -0.2773
10517SOL    HW132129   4.136   9.139   0.793 -0.8330  2.4081  1.1036
10517SOL    HW232130   4.251   9.230   0.754  0.3968  0.0736 -1.0110
10518SOL     OW32131   3.485   1.184   9.142  0.4067  0.7025  0.2203
10518SOL    HW132132   3.550   1.200   9.073  0.2041 -2.2716 -0.8211
10518SOL    HW232133   3.405   1.161   9.094 -0.7929  2.0289  1.4970
10519SOL     OW32134   5.173   4.643   0.131  0.1788 -0.0896  0.0557
10519SOL    HW132135   5.201   4.655   0.040  1.7652  2.6865  0.7782
10519SOL    HW232136   5.098   4.702   0.140  0.4010  0.1075  0.6571
10520SOL     OW32137   8.860   1.415   2.175  0.2931  0.7029 -0.1879
10520SOL    HW132138   8.837   1.353   2.106  2.6013 -0.5532  0.0946
10520SOL    HW232139   8.817   1.381   2.253  1.2846 -0.4135 -0.1015
10521SOL     OW32140   4.204   8.655   1.609 -0.1053  0.2311  0.1794
10521SOL    HW132141   4.115   8.690   1.620  0.8270  2.2255  2.2055
10521SOL    HW232142   4.234   8.692   1.527 -1.1141 -0.4972 -0.5528
10522SOL     OW32143   8.973   4.585   0.472  0.5113  0.3497  0.0128
10522SOL    HW132144   9.018   4.503   0.454 -0.2004 -0.7436  2.7846
10522SOL    HW232145   9.031   4.632   0.532  0.1039  1.1075 -0.1612
10523SOL     OW32146   2.599   0.648   5.314  0.0812  0.3999 -0.1001
10523SOL    HW132147   2.523   0.657   5.256  0.2289 -0.2253 -0.3982
10523SOL    HW232148   2.658   0.588   5.268  0.3891  0.2306  0.5012
10524SOL     OW32149   3.365   5.343   0.990 -0.6439 -0.2138 -0.5015
10524SOL    HW132150   3.371   5.416   1.051 -2.3785 -0.3999 -0.0613
10524SOL    HW232151   3.438   5.356   0.930 -0.3955  1.3811  0.1044
10525SOL     OW32152   4.553   9.920   6.841 -0.3211 -0.3131 -0.5271
10525SOL    HW132153   4.479   9.953   6.790 -1.0441 -0.6964  0.2629
10525SOL    HW232154   4.542   9.959   6.927  0.5615 -0.1500 -0.4816
10526SOL     OW32155   4.969   7.352   0.774 -0.3647 -0.1341 -0.8469
10526SOL    HW132156   4.892   7.305   0.744 -0.5991 -0.6497  0.4868
10526SOL    HW232157   4.967   7.343   0.869  0.6839  0.8762 -0.7077
10527SOL     OW32158   2.111   6.560   5.103 -0.0983 -0.3047  0.1006
10527SOL    HW132159   2.139   6.496   5.038 -0.8176 -0.8035  0.2713
10527SOL    HW232160   2.017   6.547   5.111  0.1673 -1.3670  2.4040
10528SOL     OW32161   1.957   6.178   7.248 -0.2054  0.1046 -0.1971
10528SOL    HW132162   2.001   6.252   7.207 -1.4373  0.5510 -0.7813
10528SOL    HW232163   1.882   6.160   7.191 -2.5242  1.3123  2.2097
10529SOL     OW32164   0.337   0.423   9.506  0.1173 -0.4034  0.2255
10529SOL    HW132165   0.424   0.387   9.490 -0.4277 -0.8686 -2.0330
10529SOL    HW232166   0.328   0.421   9.601  2.2446 -1.1072  0.4688
10530SOL     OW32167   8.970   9.000   9.792  0.0034  0.7581 -0.2033
10530SOL    HW132168   9.001   9.085   9.762 -0.1792  0.3270 -1.7379
10530SOL    HW232169   8.879   8.996   9.761 -0.1437  0.2131  0.2964
10531SOL     OW32170   2.044   3.041   0.467 -0.1007  0.0813 -0.2365
10531SOL    HW132171   2.039   2.961   0.414  0.7854 -0.0386 -0.1437
10531SOL    HW232172   2.088   3.015   0.547 -1.3452  0.2857  0.5532
10532SOL     OW32173   0.395   6.422   7.228  0.3781  0.7366  0.2887
10532SOL    HW132174   0.478   6.436   7.183  0.3791 -2.1821 -0.8233
10532SOL    HW232175   0.331   6.474   7.179  1.2607  1.8711  0.2917
10533SOL     OW32176   0.062   8.170   4.597 -0.4921 -0.2865 -0.1546
10533SOL    HW132177   0.020   8.112   4.534 -0.0685 -1.2809  0.4481
10533SOL    HW232178   0.115   8.229   4.545 -0.0682 -1.1579 -0.7257
10534SOL     OW32179   5.687   2.062   8.049  0.0463  0.2815  0.1357
10534SOL    HW132180   5.620   1.995   8.034  0.9267 -0.8337  0.9668
10534SOL    HW232181   5.752   2.047   7.979  0.3282  0.1331  0.4239
10535SOL     OW32182   5.192   1.165   4.847 -0.0433 -0.5635  0.2783
10535SOL    HW132183   5.271   1.208   4.881 -0.0822 -1.8732  2.1678
10535SOL    HW232184   5.132   1.237   4.827 -0.1280  0.3331  3.3852
10536SOL     OW32185   0.622   2.259   4.712  0.4683  0.7055  0.5188
10536SOL    HW132186   0.681   2.323   4.752  0.6771  0.5125  0.5170
10536SOL    HW232187   0.675   2.181   4.700 -0.0912  0.1371  1.6035
10537SOL     OW32188   8.248   7.387   7.188 -0.7040  0.8341 -0.2547
10537SOL    HW132189   8.320   7.363   7.246 -1.3611 -1.4476 -0.3053
10537SOL    HW232190   8.208   7.463   7.230  1.7125  2.2420 -0.2644
10538SOL     OW32191   5.887   3.738   6.102  0.0640 -0.3122  0.1120
10538SOL    HW132192   5.840   3.676   6.046  0.7790  0.4099 -1.3295
10538SOL    HW232193   5.845   3.729   6.188 -1.1744 -1.3163 -0.5659
10539SOL     OW32194   5.724   7.215   4.861 -0.0647  0.0068  0.4951
10539SOL    HW132195   5.740   7.163   4.940 -0.9365 -1.0868 -0.0214
10539SOL    HW232196   5.631   7.204   4.843 -0.0066  0.7335 -0.3600
10540SOL     OW32197   5.323   9.172   3.906  0.2612 -0.5600 -0.1280
10540SOL    HW132198   5.247   9.165   3.849 -0.1546 -1.2124  0.4808
10540SOL    HW232199   5.348   9.264   3.902 -1.7779  0.1177  1.1756
10541SOL     OW32200   0.585   6.399   0.836 -0.0768 -0.1838 -0.0508
10541SOL    HW132201   0.573   6.482   0.790  1.1983  0.0300 -0.0460
10541SOL    HW232202   0.634   6.422   0.915 -0.4949 -0.8238  0.4074
10542SOL     OW32203   2.814   9.495   3.640 -0.2895  0.8519  0.3866
10542SOL    HW132204   2.809   9.560   3.569  1.6967  0.3698 -0.2599
10542SOL    HW232205   2.737   9.440   3.627 -0.3204  1.1757 -1.0005
10543SOL     OW32206   2.172   7.625   6.105 -0.2031  0.6261 -0.1902
10543SOL    HW132207   2.175   7.548   6.162 -1.5815  0.4116 -0.3803
10543SOL    HW232208   2.165   7.588   6.017  1.7365  0.9553 -0.5274
10544SOL     OW32209   5.927   9.159   9.388 -0.0910  0.9637  0.5913
10544SOL    HW132210   5.927   9.068   9.361  0.9535  0.7318  1.3344
10544SOL    HW232211   5.853   9.166   9.449  0.3564  0.4052  1.2063
10545SOL     OW32212   7.940   6.084   1.336 -0.0800 -0.3594 -0.3915
10545SOL    HW132213   7.894   6.034   1.404  0.9398 -0.9184 -0.0865
10545SOL    HW232214   7.978   6.018   1.279 -0.1187  0.1006 -0.9653
10546SOL     OW32215   0.161   9.352   2.009 -0.0141 -0.4143 -0.1388
10546SOL    HW132216   0.200   9.408   1.942 -0.4597 -1.3657 -1.2486
10546SOL    HW232217   0.112   9.287   1.959 -2.0080 -0.0040  1.1516
10547SOL     OW32218   5.082   4.696   6.979 -0.3165  0.3250 -0.1898
10547SOL    HW132219   4.994   4.690   6.940 -0.7272  1.8928  0.4107
10547SOL    HW232220   5.136   4.640   6.924 -1.7462 -0.8978 -0.4132
10548SOL     OW32221   0.018   8.161   8.600  0.0352 -0.0222  0.0441
10548SOL    HW132222   0.081   8.185   8.668 -0.4258  0.8527  0.1874
10548SOL    HW232223  -0.028   8.243   8.581 -0.1994 -0.3685 -0.9538
10549SOL     OW32224   9.167   6.825   0.211 -0.7770  0.0005 -0.3411
10549SOL    HW132225   9.237   6.840   0.148 -0.7562 -0.6343 -0.4683
10549SOL    HW232226   9.203   6.858   0.294 -0.8205  0.8683 -0.6592
10550SOL     OW32227   3.007   2.113   4.993  0.1572 -0.2319 -0.1485
10550SOL    HW132228   2.997   2.112   4.898  0.0969 -0.6448 -0.1373
10550SOL    HW232229   3.007   2.206   5.016 -1.1829 -0.1544 -0.4078
10551SOL     OW32230   5.872   8.546   1.088  0.1493  0.4760 -0.6420
10551SOL    HW132231   5.965   8.527   1.096  0.4086  1.7599 -0.4619
10551SOL    HW232232   5.833   8.507   1.167  0.6363  0.5764 -0.3491
10552SOL     OW32233   2.665   4.997   7.431 -0.1094 -0.3544 -0.0097
10552SOL    HW132234   2.722   4.939   7.381  0.5163  0.1842  0.0625
10552SOL    HW232235   2.721   5.033   7.500 -0.3031  0.8604 -0.4671
10553SOL     OW32236   9.256   9.268   3.068  0.1185 -0.2599 -0.0030
10553SOL    HW132237   9.239   9.326   3.142  0.2642  0.4354 -0.5109
10553SOL    HW232238   9.288   9.325   2.998  0.3781 -0.9631 -0.4751
10554SOL     OW32239   8.021   0.589   4.753 -0.8712 -0.3499 -0.5596
10554SOL    HW132240   7.995   0.680   4.766 -1.5421 -0.6495  0.2584
10554SOL    HW232241   8.058   0.562   4.837  0.1001 -0.6011 -1.0422
10555SOL     OW32242   5.720   8.655   1.522 -0.2762  0.0701 -0.3642
10555SOL    HW132243   5.779   8.601   1.575 -0.1110 -1.2514 -1.8400
10555SOL    HW232244   5.777   8.701   1.461 -0.6446 -0.1600 -0.8903
10556SOL     OW32245   3.665   6.959   6.944  0.0498  0.1621  0.1423
10556SOL    HW132246   3.632   7.018   7.012 -0.7181 -0.8172  0.6301
10556SOL    HW232247   3.679   6.876   6.989 -1.4219 -0.8007 -1.0825
10557SOL     OW32248   6.643   6.543   2.934  0.0078 -0.0289 -0.6282
10557SOL    HW132249   6.581   6.581   2.996 -0.6556 -1.1284 -0.6012
10557SOL    HW232250   6.631   6.593   2.853 -0.8404 -0.1668 -0.5903
10558SOL     OW32251   5.206   4.564   6.757  0.5471 -0.4588  0.0096
10558SOL    HW132252   5.146   4.490   6.755  1.0919 -0.9076 -0.2340
10558SOL    HW232253   5.163   4.632   6.707 -0.2651 -0.3659  0.8165
10559SOL     OW32254   1.049   0.539   3.692  0.3903 -0.3995 -0.4813
10559SOL    HW132255   1.043   0.443   3.690 -0.4748 -0.3554 -0.3627
10559SOL    HW232256   0.986   0.569   3.627  0.2029  0.1080 -0.0727
10560SOL     OW32257   8.559   7.815   9.736 -0.0807  0.7973  0.2363
10560SOL    HW132258   8.507   7.737   9.715 -0.2163  0.8778  0.2696
10560SOL    HW232259   8.567   7.861   9.653 -1.6758  1.7544  0.5653
10561SOL     OW32260   0.017   0.540   2.762 -0.9395  0.0525  0.0817
10561SOL    HW132261   0.057   0.603   2.822 -1.2868 -1.5377  2.0782
10561SOL    HW232262   0.062   0.458   2.779 -3.4092 -1.2532  0.7443
10562SOL     OW32263   6.952   0.076   4.502  0.1447 -0.1870  0.1850
10562SOL    HW132264   6.986   0.042   4.420  0.7732  2.1557 -0.5956
10562SOL    HW232265   7.030   0.090   4.556 -0.1124 -0.1884  0.5589
10563SOL     OW32266   5.954   3.848   2.269 -0.3396  0.3418 -0.1754
10563SOL    HW132267   5.993   3.767   2.302  0.5474  1.0947  0.6915
10563SOL    HW232268   5.985   3.915   2.330  0.0914  1.5545 -1.6902
10564SOL     OW32269   1.432   8.972   3.668  0.5958  0.0712 -0.0813
10564SOL    HW132270   1.524   8.975   3.694 -0.3467  0.3923  3.8803
10564SOL    HW232271   1.404   9.063   3.666 -0.1044 -0.0866  1.0713
10565SOL     OW32272   9.951   8.102   5.758  0.0463 -0.6683  0.0507
10565SOL    HW132273   9.975   8.024   5.708 -2.4357 -1.2968 -0.3313
10565SOL    HW232274   9.864   8.125   5.725  0.7646  2.4213  0.0370
10566SOL     OW32275   1.931   2.001   7.346 -0.0475 -0.3900 -0.3781
10566SOL    HW132276   1.980   1.988   7.265  0.6200  0.4449 -0.1169
10566SOL    HW232277   1.997   2.027   7.411 -0.6842 -0.2654  0.2338
10567SOL     OW32278   0.744   0.677   7.147 -0.4038 -0.6879  0.5001
10567SOL    HW132279   0.679   0.711   7.208 -0.7083 -0.8078  0.2429
10567SOL    HW232280   0.787   0.755   7.111  0.1248 -0.6256  1.2351
10568SOL     OW32281   9.669   1.839   8.822  0.2433  0.7300  0.4311
10568SOL    HW132282   9.750   1.842   8.872 -0.0859  1.7120  0.9254
10568SOL    HW232283   9.650   1.930   8.801 -1.0806  0.5836  0.8913
10569SOL     OW32284   8.055   0.434   2.347 -0.0882 -0.3059  0.1681
10569SOL    HW132285   7.984   0.493   2.322 -0.5857 -1.4652 -1.2503
10569SOL    HW232286   8.126   0.453   2.286  0.5846  0.3332  1.1139
10570SOL     OW32287   3.258   6.520   4.860 -0.0824 -0.2948 -0.1510
10570SOL    HW132288   3.227   6.450   4.917  1.3151 -0.0934  0.9131
10570SOL    HW232289   3.189   6.530   4.795 -0.7065 -2.0534  0.1838
10571SOL     OW32290   9.353   5.439   6.531  0.7110  0.3482 -0.9741
10571SOL    HW132291   9.377   5.363   6.584 -1.0947  0.5394  0.2123
10571SOL    HW232292   9.425   5.501   6.544  1.1920 -0.3452 -0.2234
10572SOL     OW32293   6.116   9.452   2.723  0.5451 -0.3651 -0.3213
10572SOL    HW132294   6.075   9.445   2.637 -2.2965 -1.4342  1.0050
10572SOL    HW232295   6.177   9.378   2.727  3.1557  1.4646 -2.4707
10573SOL     OW32296   8.106   0.510   5.008 -0.6411  0.2391 -0.3873
10573SOL    HW132297   8.168   0.438   4.999  0.9466  1.5636 -0.4278
10573SOL    HW232298   8.131   0.554   5.089 -1.7924  0.5801 -0.1919
10574SOL     OW32299   7.550   1.559   7.063 -0.4287 -0.4359 -0.2061
10574SOL    HW132300   7.611   1.632   7.075  1.5152 -1.9991 -0.1891
10574SOL    HW232301   7.531   1.559   6.969  0.9111 -0.9406 -0.4834
10575SOL     OW32302   4.260   7.032   7.981  0.3030 -0.2075  0.8511
10575SOL    HW132303   4.218   7.112   8.014 -0.4323 -0.4635  0.5358
10575SOL    HW232304   4.352   7.057   7.973  0.2017  0.4013  1.4100
10576SOL     OW32305   7.340   4.958   7.842  0.0586 -0.1007 -0.0535
10576SOL    HW132306   7.327   5.028   7.778 -0.0684 -0.9459 -0.9821
10576SOL    HW232307   7.333   5.001   7.927 -0.2089  0.9734 -0.6054
10577SOL     OW32308   4.819   3.583   1.517 -0.2440  0.6171 -0.1832
10577SOL    HW132309   4.753   3.648   1.494 -0.6053  1.5724  3.1110
10577SOL    HW232310   4.892   3.633   1.552  1.0249 -0.6117 -0.9296
10578SOL     OW32311   2.151   6.917   7.640 -0.0538  0.2178 -0.2517
10578SOL    HW132312   2.112   6.935   7.554 -0.7494 -2.1964 -0.5301
10578SOL    HW232313   2.077   6.911   7.700  0.2431 -0.1965  0.0843
10579SOL     OW32314   0.061   1.782   4.059 -0.2094 -0.0405 -0.3985
10579SOL    HW132315   0.149   1.818   4.069 -0.2407  0.3776 -1.5170
10579SOL    HW232316   0.012   1.818   4.132  0.1350  1.0469 -0.6861
10580SOL     OW32317   3.516   4.613   0.719 -0.3603 -0.1127 -0.1364
10580SOL    HW132318   3.423   4.593   0.714 -0.5019 -0.3439  2.3311
10580SOL    HW232319   3.541   4.591   0.809  1.3629  2.9244  0.2722
10581SOL     OW32320   3.384   3.328   6.934 -0.1946  0.6815  1.1304
10581SOL    HW132321   3.456   3.300   6.990 -0.3745 -0.9237  0.6371
10581SOL    HW232322   3.328   3.250   6.928 -2.3686  2.0616  2.0732
10582SOL     OW32323   4.898   4.303   1.596 -0.0300  0.0339  0.0135
10582SOL    HW132324   4.937   4.388   1.577  0.2011 -0.2293 -0.7435
10582SOL    HW232325   4.907   4.292   1.690 -0.6688  1.1374  0.2139
10583SOL     OW32326   2.316   5.380   2.868 -0.0556 -0.3899  0.2878
10583SOL    HW132327   2.345   5.386   2.959 -1.7656 -0.6913  0.8815
10583SOL    HW232328   2.222   5.368   2.873 -0.3009  0.3555 -1.5525
10584SOL     OW32329   7.326   4.978   5.583 -0.3365  0.2506  0.3237
10584SOL    HW132330   7.315   4.898   5.634 -0.5936 -0.3393 -0.6374
10584SOL    HW232331   7.266   5.041   5.623 -2.0716 -0.8195 -0.4965
10585SOL     OW32332   9.298   3.825   0.617 -0.0810 -0.0470  0.1296
10585SOL    HW132333   9.321   3.887   0.686 -1.1831  1.8916 -1.1678
10585SOL    HW232334   9.289   3.741   0.663  3.2581  0.2692  1.6462
10586SOL     OW32335   0.470   8.242   5.168  0.1840 -0.1178 -0.4980
10586SOL    HW132336   0.489   8.203   5.254 -0.0157 -0.5532 -0.6502
10586SOL    HW232337   0.376   8.260   5.170  0.7024  2.9634  0.6350
10587SOL     OW32338   5.912   7.660   0.589  0.1930 -0.0228 -0.1889
10587SOL    HW132339   5.993   7.644   0.542 -0.4576  1.9822 -2.1445
10587SOL    HW232340   5.849   7.598   0.552  0.0300  0.6476 -1.0732
10588SOL     OW32341   8.678   6.506   5.047 -0.4906 -0.2094 -0.0077
10588SOL    HW132342   8.646   6.430   4.999 -3.0281  0.2512  0.7830
10588SOL    HW232343   8.666   6.483   5.139 -0.7909  0.9012  0.2527
10589SOL     OW32344   9.332   0.885   7.044 -0.1365  0.1805  0.3106
10589SOL    HW132345   9.400   0.819   7.056 -0.6481 -1.0795 -2.9188
10589SOL    HW232346   9.369   0.945   6.978 -0.3704  2.2440  1.9351
10590SOL     OW32347   6.250   2.675   2.173 -0.5203 -0.4581  0.0122
10590SOL    HW132348   6.232   2.765   2.201 -1.3459 -0.6943  0.2715
10590SOL    HW232349   6.221   2.621   2.247 -1.8525 -1.0330 -0.8969
10591SOL     OW32350   8.689   1.304   8.500 -0.3206  0.4516 -0.2873
10591SOL    HW132351   8.688   1.254   8.582 -1.3933 -2.0709 -1.7140
10591SOL    HW232352   8.598   1.333   8.489 -0.4850 -0.3191 -1.1345
10592SOL     OW32353   1.874   1.170   0.201  0.2703 -0.3520  0.4561
10592SOL    HW132354   1.932   1.225   0.149  0.5549  0.7482  1.8683
10592SOL    HW232355   1.849   1.099   0.143  1.0370  0.5101 -0.9729
10593SOL     OW32356   4.494   0.515   7.073 -0.2540 -0.0850 -0.6587
10593SOL    HW132357   4.526   0.519   6.983 -2.7237 -1.0536 -1.6522
10593SOL    HW232358   4.569   0.542   7.126  1.2015  0.7489 -2.9954
10594SOL     OW32359   1.906   1.605   1.651  0.3556 -0.2440  0.2963
10594SOL    HW132360   1.984   1.635   1.604 -0.2255 -0.5271 -0.8687
10594SOL    HW232361   1.927   1.515   1.676  0.5351 -0.1988  0.3136
10595SOL     OW32362   7.772   2.247   2.382 -0.4493 -0.2235 -0.1949
10595SOL    HW132363   7.718   2.168   2.384 -0.4119 -0.2354  0.3390
10595SOL    HW232364   7.743   2.293   2.302 -1.0982 -0.3359 -0.0314
10596SOL     OW32365   7.363   7.925   0.766  0.0497 -0.2908 -0.2670
10596SOL    HW132366   7.298   7.951   0.832  0.9758  0.9237  0.1927
10596SOL    HW232367   7.387   7.836   0.790 -0.3074 -0.1931  0.4925
10597SOL     OW32368   5.287   8.005   0.196  0.0684 -0.2516 -0.0012
10597SOL    HW132369   5.284   7.991   0.291  1.1619  0.6011  0.1946
10597SOL    HW232370   5.225   7.943   0.160  1.8032 -2.7686  1.0381
10598SOL     OW32371   2.489  -0.018   4.860  0.2489 -0.2579 -0.1515
10598SOL    HW132372   2.401  -0.014   4.897  0.9215  1.0325  1.4124
10598SOL    HW232373   2.497   0.063   4.810  0.3771 -0.6156 -0.7162
10599SOL     OW32374   3.772   0.685   8.746 -0.3982  0.2160 -0.6943
10599SOL    HW132375   3.857   0.659   8.781  0.4354  0.8521 -2.1528
10599SOL    HW232376   3.710   0.622   8.783  0.7582 -0.4933  0.0878
10600SOL     OW32377   1.738   2.975   0.426  0.2506 -0.2499  0.2513
10600SOL    HW132378   1.674   2.908   0.404  1.5798 -1.0345 -1.5077
10600SOL    HW232379   1.812   2.926   0.462  1.2364  0.2273 -1.0443
10601SOL     OW32380   2.091   2.812   0.340  0.1312 -0.1265  0.0170
10601SOL    HW132381   2.163   2.782   0.396  1.9112  2.0900 -0.9302
10601SOL    HW232382   2.112   2.777   0.253  1.3401  2.3039 -0.7378
10602SOL     OW32383   5.292   2.784   2.870 -0.3235 -0.2888  0.1373
10602SOL    HW132384   5.213   2.731   2.875  0.2372 -1.1555 -0.0187
10602SOL    HW232385   5.285   2.831   2.787 -0.7225 -0.2748  0.1766
10603SOL     OW32386   3.544   3.138   3.124  0.0917  0.3637 -0.0160
10603SOL    HW132387   3.484   3.097   3.187 -0.3569 -1.2605 -1.4151
10603SOL    HW232388   3.621   3.081   3.124  0.2488  0.5663 -0.6543
10604SOL     OW32389   0.048   5.666   5.217  0.1014  0.3394  0.2037
10604SOL    HW132390   0.136   5.640   5.188  0.0554  0.5995 -0.1841
10604SOL    HW232391   0.044   5.760   5.198 -0.6672  0.1071 -0.8624
10605SOL     OW32392   1.581   0.507   5.091  0.0432 -0.4431 -0.3279
10605SOL    HW132393   1.648   0.567   5.122 -0.2563 -0.2384 -0.0734
10605SOL    HW232394   1.610   0.420   5.120 -0.6235 -0.1779  1.2459
10606SOL     OW32395   1.125   7.873   8.299 -0.4472 -0.7528 -0.3624
10606SOL    HW132396   1.199   7.838   8.349 -0.8703 -1.6186 -0.3325
10606SOL    HW232397   1.127   7.826   8.216 -0.1983  0.1470 -0.8783
10607SOL     OW32398   0.383   7.463   3.045 -0.5376  0.2924  0.0147
10607SOL    HW132399   0.460   7.464   2.988  0.5492 -1.3912  1.3595
10607SOL    HW232400   0.407   7.519   3.119  0.3506 -1.8887  1.4917
10608SOL     OW32401   5.284   8.895   8.302  0.2122 -0.5816  0.2813
10608SOL    HW132402   5.306   8.929   8.389 -1.0754 -0.5950  0.6309
10608SOL    HW232403   5.194   8.863   8.311  0.0054 -0.4377 -1.1034
10609SOL     OW32404   3.242   0.485   7.239  0.3868 -0.1104  0.3816
10609SOL    HW132405   3.171   0.451   7.294 -0.2936 -0.1645 -0.5044
10609SOL    HW232406   3.305   0.522   7.301  0.8268 -2.3328  1.3369
10610SOL     OW32407   9.125   4.020   7.530 -0.1562  0.2022 -0.4279
10610SOL    HW132408   9.119   4.088   7.598 -0.5055 -1.1350  0.9470
10610SOL    HW232409   9.147   3.941   7.579 -0.3283 -0.7887 -1.9169
10611SOL     OW32410   7.314   8.438   3.908  0.0198  0.0797 -0.3822
10611SOL    HW132411   7.300   8.497   3.834  1.7909 -0.1802 -0.9641
10611SOL    HW232412   7.242   8.375   3.902 -0.2046  0.4224 -1.5295
10612SOL     OW32413   6.603   4.565   3.350  0.0122  0.1421  0.2583
10612SOL    HW132414   6.558   4.480   3.345 -1.1438  0.6211  1.6062
10612SOL    HW232415   6.626   4.585   3.260 -1.0644 -0.9054 -0.2862
10613SOL     OW32416   2.108   0.555   3.082  0.5115 -0.3330  0.1607
10613SOL    HW132417   2.043   0.555   3.152  0.5807 -1.8548  0.2542
10613SOL    HW232418   2.192   0.560   3.127  0.5177 -0.0232  0.1178
10614SOL     OW32419   6.926   0.119   3.433 -0.1730  0.3821  0.1028
10614SOL    HW132420   6.971   0.179   3.374 -1.4930  0.2770 -1.0538
10614SOL    HW232421   6.947   0.032   3.399 -0.7358  0.3150 -0.0952
10615SOL     OW32422   1.926   7.434   7.814 -0.3608 -0.4259  0.5068
10615SOL    HW132423   1.922   7.527   7.790 -2.2639 -0.6249 -0.1648
10615SOL    HW232424   2.003   7.427   7.869  2.4066  0.7073 -2.8441
10616SOL     OW32425   9.847   8.351   4.721  0.0271  0.1002  0.2670
10616SOL    HW132426   9.896   8.289   4.667 -1.1105  0.0018 -0.7018
10616SOL    HW232427   9.894   8.353   4.804  0.3749 -1.6750  0.1471
10617SOL     OW32428   5.340   7.101   1.423  0.0989  0.1479  0.7389
10617SOL    HW132429   5.380   7.046   1.489  0.2469  1.8226  2.1167
10617SOL    HW232430   5.393   7.181   1.422 -1.3667  1.1729  0.4147
10618SOL     OW32431   6.071   2.168   4.567 -0.3424  0.0270  0.4658
10618SOL    HW132432   6.075   2.191   4.474 -0.7246 -0.6949  0.2597
10618SOL    HW232433   5.978   2.152   4.584 -0.1800 -0.7041  0.7446
10619SOL     OW32434   0.885   3.792   6.355  0.4207 -0.3807 -0.5135
10619SOL    HW132435   0.838   3.875   6.350 -0.2039 -0.7871 -1.6836
10619SOL    HW232436   0.816   3.726   6.364  0.7353 -0.9900 -2.3276
10620SOL     OW32437   6.175   0.473   7.022  0.4645 -0.6141  0.4871
10620SOL    HW132438   6.141   0.558   7.050  0.2425 -0.4648 -0.2107
10620SOL    HW232439   6.216   0.436   7.100  0.5102  0.1115  0.8117
10621SOL     OW32440   9.359   5.459   1.570  0.5469  0.4276 -0.3215
10621SOL    HW132441   9.332   5.544   1.535 -2.1527 -0.3656 -0.3386
10621SOL    HW232442   9.408   5.482   1.649 -1.9057  2.0589  0.8670
10622SOL     OW32443   9.446   1.569   2.880 -0.8081 -0.0606 -0.9948
10622SOL    HW132444   9.401   1.602   2.957 -1.2720 -1.0929 -0.8077
10622SOL    HW232445   9.393   1.599   2.806 -0.5202  0.6815 -0.9155
10623SOL     OW32446   9.176   8.590   2.989  0.0863 -0.2125 -0.3395
10623SOL    HW132447   9.083   8.613   2.989  0.1734  0.1304 -0.3886
10623SOL    HW232448   9.181   8.513   3.046 -0.0045  0.6754  0.8996
10624SOL     OW32449   8.856   2.036   2.005  0.0518  0.3186 -0.9301
10624SOL    HW132450   8.931   1.979   1.989  0.2627  0.6157 -1.0231
10624SOL    HW232451   8.779   1.981   1.991  0.2566 -0.1468 -0.2469
10625SOL     OW32452   6.662   7.228   0.544 -0.0934  0.1692  0.2446
10625SOL    HW132453   6.639   7.179   0.623 -2.0090  1.3518  0.4931
10625SOL    HW232454   6.753   7.253   0.557  0.4624 -1.9188  0.8133
10626SOL     OW32455   0.371   4.290   4.650 -0.5003  0.1386 -0.2806
10626SOL    HW132456   0.340   4.264   4.737  3.4620  0.5750  1.4891
10626SOL    HW232457   0.343   4.381   4.640 -0.1888  0.4034  1.0470
10627SOL     OW32458   1.928   3.069   3.561  0.2644  0.2003  0.2661
10627SOL    HW132459   1.868   3.080   3.635 -0.0946  1.1392 -0.1445
10627SOL    HW232460   1.883   3.005   3.504  0.0911  0.2001  0.4003
10628SOL     OW32461   6.367   8.638   0.985  0.0805  0.1344 -0.1885
10628SOL    HW132462   6.399   8.720   1.022 -0.7001  0.4473 -0.1920
10628SOL    HW232463   6.356   8.656   0.891  0.1512 -0.0574 -0.2358
10629SOL     OW32464   0.814   8.535   6.713  0.0111 -0.5553  0.5024
10629SOL    HW132465   0.782   8.445   6.708  0.3167 -0.7189  1.3731
10629SOL    HW232466   0.890   8.531   6.770 -0.4436  0.3849  1.2081
10630SOL     OW32467   2.782   6.402   3.644  0.5213 -0.4506  0.3662
10630SOL    HW132468   2.866   6.370   3.678  1.0907  0.2305 -0.3793
10630SOL    HW232469   2.772   6.357   3.560 -0.3147 -1.2292  0.8681
10631SOL     OW32470   9.031   9.858   9.352  0.0461  0.1183  0.0352
10631SOL    HW132471   9.069   9.941   9.381 -1.9178  0.8310  0.6956
10631SOL    HW232472   9.075   9.840   9.269  1.1346  1.3646  0.3096
10632SOL     OW32473   3.168   2.055   8.115 -0.2329  0.5895 -0.3583
10632SOL    HW132474   3.084   2.094   8.088 -1.6871 -0.9806  1.5267
10632SOL    HW232475   3.191   1.996   8.043 -0.8580  0.9018 -0.8316
10633SOL     OW32476   5.462   8.272   7.275  0.3428  0.5095 -0.1177
10633SOL    HW132477   5.555   8.252   7.263  0.3728  0.3930  0.2816
10633SOL    HW232478   5.443   8.244   7.365 -0.6965 -1.7856 -0.9726
10634SOL     OW32479   5.634   7.374   8.181 -0.1889 -0.2750 -0.4809
10634SOL    HW132480   5.665   7.288   8.208 -2.0186 -1.1038 -0.8229
10634SOL    HW232481   5.646   7.376   8.086  3.2064  1.3498 -0.1559
10635SOL     OW32482   9.470   4.846   9.719  0.1027 -0.9804 -0.2899
10635SOL    HW132483   9.484   4.821   9.810 -0.1180  0.0308  0.0364
10635SOL    HW232484   9.400   4.788   9.688 -0.6336 -0.5507  0.5417
10636SOL     OW32485   2.384   9.009   7.255  0.1953  0.5909  0.2778
10636SOL    HW132486   2.395   8.972   7.167  1.8694 -2.1337  1.5238
10636SOL    HW232487   2.302   8.971   7.287  0.2651  0.5492  0.4039
10637SOL     OW32488   1.440   0.248   5.469  0.0397 -0.2601 -0.8350
10637SOL    HW132489   1.347   0.237   5.485 -0.3801  1.8895 -1.3880
10637SOL    HW232490   1.470   0.309   5.537  0.9336 -0.5924 -0.9114
10638SOL     OW32491   7.578   4.945   1.882  0.6013  0.3492  0.1475
10638SOL    HW132492   7.566   4.852   1.902 -0.4831  0.5385  0.4382
10638SOL    HW232493   7.533   4.990   1.953 -1.4951  1.0653 -1.5594
10639SOL     OW32494   5.751   6.475   5.531 -0.0785 -0.4917 -0.5452
10639SOL    HW132495   5.684   6.537   5.503 -0.0091 -0.3889 -0.4850
10639SOL    HW232496   5.792   6.445   5.450  0.0623 -0.2620 -0.5608
10640SOL     OW32497   9.959   6.749   6.970  0.3596 -0.6556  0.1299
10640SOL    HW132498   9.999   6.775   7.053 -0.0406 -1.3982  0.5746
10640SOL    HW232499   9.933   6.658   6.984 -0.3818 -0.5640 -0.5612
10641SOL     OW32500   6.151   2.935   4.110 -0.1415  0.5244  0.0135
10641SOL    HW132501   6.135   2.898   4.197 -1.7259  2.4203  0.5970
10641SOL    HW232502   6.243   2.960   4.110  0.6503 -2.1107  0.0420
10642SOL     OW32503   3.308   3.021   7.243  0.8134  0.2760  0.1720
10642SOL    HW132504   3.307   2.954   7.174 -2.4596 -2.0666  2.2048
10642SOL    HW232505   3.282   3.101   7.198 -1.3942 -1.1911 -1.4397
10643SOL     OW32506   6.096   7.731   7.889  0.8968  0.5011 -0.0189
10643SOL    HW132507   6.134   7.652   7.850 -0.2434 -0.1423  0.1404
10643SOL    HW232508   6.130   7.732   7.978  1.5101  0.6083 -0.2480
10644SOL     OW32509   6.888   3.622   7.403  0.3480 -0.7935 -0.3141
10644SOL    HW132510   6.853   3.588   7.486  1.8510 -1.3792  0.1085
10644SOL    HW232511   6.819   3.679   7.370 -0.4692 -0.8925  1.1269
10645SOL     OW32512   7.969   0.833   2.498 -0.6236  0.1836 -0.2404
10645SOL    HW132513   8.054   0.863   2.465  0.1268  0.4889  1.8346
10645SOL    HW232514   7.990   0.783   2.577 -2.3996  0.6187  0.5556
10646SOL     OW32515   5.802   3.556   5.892 -0.3600  0.6942 -0.0411
10646SOL    HW132516   5.829   3.613   5.820 -1.9792  0.7570 -0.6267
10646SOL    HW232517   5.880   3.504   5.911  0.1214  0.7177 -1.7900
10647SOL     OW32518   4.681   4.249   5.337 -0.3199 -0.1563  0.6960
10647SOL    HW132519   4.772   4.244   5.307 -0.4029 -0.4432  0.4822
10647SOL    HW232520   4.634   4.285   5.262  0.2368  4.0487  2.1447
10648SOL     OW32521   0.083   9.204   2.379  0.0750 -0.0627 -0.4430
10648SOL    HW132522   0.075   9.148   2.302 -0.3963 -0.6293  0.0106
10648SOL    HW232523   0.105   9.144   2.450  1.7240  0.6061 -0.3500
10649SOL     OW32524   2.484   4.806   5.590  0.1056 -0.6124  0.3239
10649SOL    HW132525   2.503   4.728   5.642  0.8864  0.3177  1.4859
10649SOL    HW232526   2.570   4.845   5.573 -0.2962  0.1641  0.0334
10650SOL     OW32527   6.980   3.600   4.093 -1.2709 -0.3391 -0.7659
10650SOL    HW132528   6.967   3.522   4.148 -1.6903  0.5411  0.4205
10650SOL    HW232529   7.075   3.606   4.082 -1.1912 -0.5887 -0.2394
10651SOL     OW32530   1.574   4.941   2.008 -0.3317 -1.0478  0.4234
10651SOL    HW132531   1.502   4.944   1.945  0.9998  1.4416 -1.1274
10651SOL    HW232532   1.649   4.911   1.957  0.8985  1.5362  0.5693
10652SOL     OW32533   2.695   0.791   0.968  0.7306 -0.5496 -0.9573
10652SOL    HW132534   2.668   0.824   1.054 -0.6205 -2.0950 -0.7331
10652SOL    HW232535   2.709   0.869   0.915  1.6856  0.4485  0.6749
10653SOL     OW32536   9.076   7.939   9.020  0.4917 -0.0909  0.0491
10653SOL    HW132537   9.089   7.851   8.983 -1.3625 -1.3842  2.2126
10653SOL    HW232538   9.005   7.976   8.968  0.5753 -0.2833 -0.2069
10654SOL     OW32539   8.326   9.348   2.992  0.0429  0.2808  0.6053
10654SOL    HW132540   8.249   9.295   2.969 -1.1516  1.5481  1.5515
10654SOL    HW232541   8.290   9.428   3.030  1.8517  0.8378  1.2479
10655SOL     OW32542   3.821   9.699   0.402  0.7403 -0.3528  0.3383
10655SOL    HW132543   3.853   9.622   0.449 -0.7373 -1.2687 -0.1037
10655SOL    HW232544   3.769   9.747   0.466  1.1548 -0.0405  0.4427
10656SOL     OW32545   0.411   2.130   2.373  0.3134  0.0092 -0.3166
10656SOL    HW132546   0.358   2.196   2.419 -0.6824 -0.6343 -0.5042
10656SOL    HW232547   0.400   2.051   2.426  2.2954  0.2068  0.4576
10657SOL     OW32548   0.558   2.487   1.918  0.2107 -0.0087 -0.2723
10657SOL    HW132549   0.468   2.518   1.904  0.2940  0.6957  0.6430
10657SOL    HW232550   0.613   2.557   1.881  0.3984 -0.7569 -1.4632
10658SOL     OW32551   2.166   9.390   7.992  0.4075  0.1700 -0.4539
10658SOL    HW132552   2.131   9.334   7.923 -0.2831  0.2725 -0.1952
10658SOL    HW232553   2.254   9.357   8.008  0.2849 -0.3466 -0.8431
10659SOL     OW32554   0.640   8.844   5.549 -0.4329 -0.2501  0.1507
10659SOL    HW132555   0.679   8.856   5.636  0.4018  0.0557 -0.2522
10659SOL    HW232556   0.546   8.832   5.566 -0.3926  0.5669  1.0358
10660SOL     OW32557   7.823   7.251   0.626  1.2102 -0.3136  0.4392
10660SOL    HW132558   7.904   7.211   0.657  2.0459  0.6108 -0.4700
10660SOL    HW232559   7.817   7.226   0.534  0.4808 -0.3404  0.4871
10661SOL     OW32560   0.598   7.778   4.350 -0.5864 -0.2499  0.7166
10661SOL    HW132561   0.584   7.832   4.428  0.0511 -1.4135  1.6762
10661SOL    HW232562   0.693   7.766   4.347 -0.5639  0.1292 -0.5037
10662SOL     OW32563   4.732   0.407   1.253  0.4343 -0.0224 -0.0661
10662SOL    HW132564   4.764   0.497   1.254  1.3874 -0.3453  0.0466
10662SOL    HW232565   4.790   0.361   1.314  0.7202 -0.9476 -0.9997
10663SOL     OW32566   0.114   6.517   7.907  0.0617 -0.0701 -0.3056
10663SOL    HW132567   0.151   6.583   7.965  0.7792 -0.8873  0.2034
10663SOL    HW232568   0.020   6.521   7.922 -0.1832  2.4269 -2.0196
10664SOL     OW32569   5.343   0.946   7.261 -0.0147  0.0471  0.4293
10664SOL    HW132570   5.278   1.009   7.293 -0.5855  0.2173 -1.0282
10664SOL    HW232571   5.417   1.000   7.234  0.9741 -0.1729  2.5090
10665SOL     OW32572   3.465   6.168   3.492 -0.4801 -0.2207 -0.1730
10665SOL    HW132573   3.551   6.161   3.534  0.7585  1.4404 -2.2000
10665SOL    HW232574   3.424   6.083   3.505  0.7957 -0.5552  2.2004
10666SOL     OW32575   9.533   0.305   5.384  0.0802 -0.7162  0.5821
10666SOL    HW132576   9.561   0.324   5.474  0.3708 -1.6423  0.6974
10666SOL    HW232577   9.442   0.332   5.381  0.8461  2.2606  0.2490
10667SOL     OW32578   9.947   7.832   5.956 -0.5936 -0.0523  0.5308
10667SOL    HW132579   9.944   7.736   5.955 -2.3566 -0.0281 -0.0348
10667SOL    HW232580   9.890   7.858   5.883 -1.8293  1.4302  1.9553
10668SOL     OW32581   4.473   1.241   7.122 -0.2203 -0.4612 -0.3503
10668SOL    HW132582   4.430   1.320   7.089  1.7466  1.0094  0.3801
10668SOL    HW232583   4.566   1.262   7.118  0.3209 -2.4623  0.6400
10669SOL     OW32584   0.287   5.672   3.608  0.1338  0.1932 -0.0396
10669SOL    HW132585   0.285   5.753   3.557 -1.6672  0.3851  0.2644
10669SOL    HW232586   0.341   5.613   3.557  0.5432  1.2211 -0.8365
10670SOL     OW32587   1.738   5.581   7.558  0.2373 -0.5369 -0.5485
10670SOL    HW132588   1.804   5.636   7.598  1.9560 -1.4415 -2.0219
10670SOL    HW232589   1.742   5.601   7.464 -0.1382 -2.0299 -0.9233
10671SOL     OW32590   6.107   0.612   0.807 -0.1598 -0.7265 -0.8625
10671SOL    HW132591   6.011   0.610   0.815 -0.0467 -0.8422  1.2174
10671SOL    HW232592   6.134   0.686   0.862  1.0290 -1.9350  0.2523
10672SOL     OW32593   1.721   3.076   1.717  0.3110  0.0393 -0.1753
10672SOL    HW132594   1.757   3.143   1.775  0.4773 -0.9300  0.8662
10672SOL    HW232595   1.797   3.033   1.679  0.2919 -1.4057  1.3297
10673SOL     OW32596   1.757   6.501   4.549 -0.6078  0.1464 -0.2984
10673SOL    HW132597   1.704   6.554   4.489  0.6492  0.9875 -0.7160
10673SOL    HW232598   1.829   6.560   4.575 -0.1790 -0.7766  0.6710
10674SOL     OW32599   2.750   5.525   3.138  0.2608 -0.5320  0.2766
10674SOL    HW132600   2.729   5.432   3.143  0.1822 -0.5144  0.2881
10674SOL    HW232601   2.836   5.533   3.178  0.8467 -0.7929 -0.8935
10675SOL     OW32602   5.544   0.747   3.153  0.4752 -0.4338 -0.2925
10675SOL    HW132603   5.633   0.777   3.138  0.0942  1.3391  0.6510
10675SOL    HW232604   5.551   0.680   3.221  1.2873 -2.0731 -1.9224
10676SOL     OW32605   8.036   1.767   1.770  0.0806 -0.5455 -0.0823
10676SOL    HW132606   8.062   1.750   1.861 -0.8385 -1.0123  0.1058
10676SOL    HW232607   8.058   1.686   1.724  1.5947  0.0799 -0.5431
10677SOL     OW32608   7.589   9.050   3.983 -0.0452  0.5434 -0.1017
10677SOL    HW132609   7.628   9.072   4.067  0.3921 -1.2836  0.2086
10677SOL    HW232610   7.630   9.111   3.921 -0.6861  2.1913  1.0204
10678SOL     OW32611   3.107   1.074   5.987 -0.5344  0.2977  0.1714
10678SOL    HW132612   3.045   1.009   5.954  0.1059 -1.0935  1.6068
10678SOL    HW232613   3.128   1.045   6.076  1.7966  0.9785 -0.0931
10679SOL     OW32614   6.232   8.225   5.475  0.5623 -0.1387  0.2475
10679SOL    HW132615   6.206   8.277   5.399  0.9117 -0.6090 -0.2040
10679SOL    HW232616   6.193   8.271   5.550  0.6251  0.6062 -0.1625
10680SOL     OW32617   0.776   9.445   4.692 -0.8945  0.2381  0.2619
10680SOL    HW132618   0.767   9.354   4.720 -1.3051  0.2799  0.2685
10680SOL    HW232619   0.721   9.494   4.753 -0.4606  0.5216  0.4274
10681SOL     OW32620   3.808   3.100   1.632 -0.2462 -0.2455  0.4815
10681SOL    HW132621   3.742   3.164   1.605 -0.3961 -0.8016 -0.5358
10681SOL    HW232622   3.874   3.152   1.678 -1.0132  0.4335  0.8543
10682SOL     OW32623   1.052   5.969   2.684 -0.3457 -0.2388 -0.3030
10682SOL    HW132624   1.043   6.057   2.647 -1.0610 -0.7416 -1.4028
10682SOL    HW232625   0.964   5.931   2.675 -0.3489 -0.6607  1.2562
10683SOL     OW32626   7.034   7.951   6.459 -0.1448 -0.2719 -0.4610
10683SOL    HW132627   7.040   7.952   6.363 -0.4740  0.8539 -0.4920
10683SOL    HW232628   7.014   8.042   6.482  2.7036  0.1274  0.8647
10684SOL     OW32629   9.693   5.970   8.452 -0.0145 -0.2863 -0.4239
10684SOL    HW132630   9.637   6.046   8.442  0.9821  0.2593 -2.2548
10684SOL    HW232631   9.637   5.895   8.432 -0.4641  0.1425 -0.7789
10685SOL     OW32632   2.079   4.041   4.809 -0.3546  0.1113 -0.2298
10685SOL    HW132633   2.108   4.083   4.890  0.2458 -0.1083 -0.3277
10685SOL    HW232634   2.018   4.104   4.770 -1.2521 -0.1094  0.7643
10686SOL     OW32635   0.649   3.711   8.975  0.3709 -0.1117  0.2741
10686SOL    HW132636   0.593   3.744   9.044  0.2393  1.0250 -0.3492
10686SOL    HW232637   0.622   3.619   8.964  0.2580 -0.2497  1.5607
10687SOL     OW32638   4.143   0.711   7.555 -0.0339 -0.5713  0.3487
10687SOL    HW132639   4.200   0.724   7.480 -1.8682  0.3396 -0.9706
10687SOL    HW232640   4.064   0.761   7.535 -1.5282 -2.1454  1.8301
10688SOL     OW32641   4.147   8.265   7.759 -0.2653  0.2174  0.0529
10688SOL    HW132642   4.056   8.291   7.776  0.3210  2.3059  0.3082
10688SOL    HW232643   4.170   8.313   7.679  1.2274  1.4228  1.1515
10689SOL     OW32644   3.892   0.766   7.344  0.5367  0.5013 -0.0419
10689SOL    HW132645   3.816   0.709   7.356  1.0474 -0.3518 -0.7233
10689SOL    HW232646   3.931   0.736   7.262  0.6506  2.0421 -0.5812
10690SOL     OW32647   8.226   0.916   4.038  0.0258  0.9125 -0.5913
10690SOL    HW132648   8.228   0.914   3.943 -0.4700 -2.0842 -0.6569
10690SOL    HW232649   8.140   0.952   4.060 -0.5932 -0.0531 -1.3600
10691SOL     OW32650   7.723   5.213   9.945  0.0667 -0.0260  0.7676
10691SOL    HW132651   7.804   5.199   9.897 -0.7890  1.3143 -1.1510
10691SOL    HW232652   7.688   5.125   9.959  0.7520 -0.4844 -0.3325
10692SOL     OW32653   0.142   3.628   8.271 -0.3668 -0.0274  0.0201
10692SOL    HW132654   0.207   3.584   8.216  0.6958 -0.4371  1.5138
10692SOL    HW232655   0.185   3.710   8.297  0.0620 -0.7695  1.8674
10693SOL     OW32656   5.650   7.437   8.570  0.1721 -0.2082  0.0351
10693SOL    HW132657   5.626   7.498   8.500 -1.2447  0.2214  0.8568
10693SOL    HW232658   5.582   7.369   8.566 -0.1050 -0.0139  1.1790
10694SOL     OW32659   4.384   2.095   9.780  0.2751  0.3535  0.9685
10694SOL    HW132660   4.421   2.176   9.745  2.1656 -0.5197  0.8403
10694SOL    HW232661   4.395   2.102   9.875  0.9358  0.0251  0.9196
10695SOL     OW32662   7.596   5.072   5.436 -0.2557 -0.3937  0.0113
10695SOL    HW132663   7.653   5.130   5.486  0.7037  0.0912 -1.5691
10695SOL    HW232664   7.528   5.046   5.498  0.2952  0.9859  1.2596
10696SOL     OW32665   9.507   6.317   3.282  0.0458 -0.0739 -0.6601
10696SOL    HW132666   9.527   6.245   3.224 -1.2544 -2.0043  1.1392
10696SOL    HW232667   9.438   6.367   3.237  0.3548 -0.4460 -1.5534
10697SOL     OW32668   8.643   3.037   7.155  0.0366  0.2216  0.2850
10697SOL    HW132669   8.623   3.070   7.242 -2.5597 -0.6572  0.1192
10697SOL    HW232670   8.559   3.042   7.108  0.5532 -2.3473 -1.1043
10698SOL     OW32671   2.826   6.705   7.434  0.0815 -0.0367  0.0868
10698SOL    HW132672   2.861   6.724   7.347 -1.0534  1.5624 -0.0538
10698SOL    HW232673   2.756   6.642   7.418 -0.3166  0.4742 -0.2012
10699SOL     OW32674   5.086   9.862   2.173  0.1189 -0.0168  0.6071
10699SOL    HW132675   5.099   9.949   2.211  1.4448  0.3268 -0.5975
10699SOL    HW232676   5.047   9.811   2.245  0.6078  1.1817  1.7682
10700SOL     OW32677   7.297   8.802   2.895  0.4679 -0.1112  0.2671
10700SOL    HW132678   7.340   8.726   2.856  1.6198  0.5817  0.1230
10700SOL    HW232679   7.363   8.872   2.890 -0.3736  0.7554  0.8646
10701SOL     OW32680   7.664   1.849   7.086 -0.3658  0.3162  0.1498
10701SOL    HW132681   7.678   1.856   6.991  3.9989 -0.4577  0.5244
10701SOL    HW232682   7.666   1.939   7.117 -3.0678  0.6903 -0.4569
10702SOL     OW32683   0.827   1.565  -0.003  0.3948 -0.0897 -0.1044
10702SOL    HW132684   0.770   1.639   0.017  1.0154  0.3495  0.0278
10702SOL    HW232685   0.766   1.491  -0.013 -0.3299  0.6139 -1.2040
10703SOL     OW32686   3.693   6.115   5.496 -0.7020  0.0980 -0.3717
10703SOL    HW132687   3.700   6.197   5.446  1.3548 -0.4475 -1.1113
10703SOL    HW232688   3.769   6.064   5.467 -3.7940 -3.6678 -2.7994
10704SOL     OW32689   3.536   0.189   8.919  0.4673 -0.1379 -0.1803
10704SOL    HW132690   3.462   0.142   8.956  0.5043 -1.0539 -1.2249
10704SOL    HW232691   3.542   0.270   8.971 -1.1660 -0.1069 -0.0029
10705SOL     OW32692   8.235   1.381   1.311 -0.1984 -0.1094 -0.2771
10705SOL    HW132693   8.295   1.450   1.280  0.4792 -1.4279 -2.0776
10705SOL    HW232694   8.152   1.401   1.267  0.1555 -0.7315 -1.2565
10706SOL     OW32695   7.763   5.579   2.807 -0.3269  0.5318  0.0681
10706SOL    HW132696   7.779   5.660   2.759  2.4710  0.9829  1.5522
10706SOL    HW232697   7.701   5.603   2.875  0.7341  1.5768  0.7052
10707SOL     OW32698   2.331   9.656   9.197  0.6211 -0.1875  0.1547
10707SOL    HW132699   2.320   9.660   9.102 -0.1607 -0.8785  0.2045
10707SOL    HW232700   2.270   9.722   9.231  1.5540  0.6977  0.1489
10708SOL     OW32701   9.858   4.648   7.025  0.0698 -0.5169 -0.0033
10708SOL    HW132702   9.825   4.561   7.001  1.1275 -1.1279  0.6839
10708SOL    HW232703   9.944   4.654   6.984  0.7047 -0.4652  1.2665
10709SOL     OW32704   5.375   9.266   3.339  0.3465  0.1830 -0.2137
10709SOL    HW132705   5.407   9.317   3.266 -1.1233 -0.5442 -1.4250
10709SOL    HW232706   5.374   9.176   3.307 -2.0272  0.0645  0.0154
10710SOL     OW32707   9.330   9.589   1.740  0.2952 -0.2285  0.0934
10710SOL    HW132708   9.267   9.531   1.784  0.0697  0.0143  0.0939
10710SOL    HW232709   9.409   9.536   1.732 -0.3444 -1.0589 -1.1910
10711SOL     OW32710   3.090   9.184   1.134  0.0191 -0.4547  0.1524
10711SOL    HW132711   3.096   9.215   1.224  0.5454  0.3507 -0.1587
10711SOL    HW232712   3.048   9.255   1.086  0.2965 -0.6275 -0.3575
10712SOL     OW32713   2.649   7.471   5.317  0.2831  0.2323 -0.1346
10712SOL    HW132714   2.723   7.532   5.318  1.0627 -0.6850  0.0893
10712SOL    HW232715   2.613   7.475   5.405  0.5754  0.1073 -0.0048
10713SOL     OW32716   8.919   5.762   5.912 -0.0515 -0.4353  0.1663
10713SOL    HW132717   8.893   5.672   5.930 -0.0956 -0.4660 -0.0451
10713SOL    HW232718   9.004   5.754   5.870 -0.4285 -0.4321 -0.6252
10714SOL     OW32719   3.029   0.883   1.112  0.3950 -0.2362  0.2373
10714SOL    HW132720   3.029   0.956   1.173  0.9507 -1.1554  1.3791
10714SOL    HW232721   2.978   0.815   1.156 -0.1352 -0.5373 -0.8149
10715SOL     OW32722   7.526   7.139   5.644  0.1204 -0.1378  0.0973
10715SOL    HW132723   7.563   7.136   5.556  0.4932 -0.6852  0.2679
10715SOL    HW232724   7.579   7.078   5.694  0.7784  1.1627  1.0346
10716SOL     OW32725   9.067   3.129   9.131 -0.8822 -0.3623  0.2717
10716SOL    HW132726   9.079   3.037   9.157  1.6868 -0.1674  0.0084
10716SOL    HW232727   8.994   3.159   9.185 -2.2803 -2.7224 -0.1280
10717SOL     OW32728   6.482   4.428   5.012  0.2254  0.4430 -0.1847
10717SOL    HW132729   6.431   4.357   4.973  1.2923 -0.0577 -0.6865
10717SOL    HW232730   6.424   4.504   5.008 -0.2390  0.0395 -1.3595
10718SOL     OW32731   5.782   0.942   4.861 -0.7099 -0.9862 -0.3165
10718SOL    HW132732   5.712   0.883   4.888 -0.3899 -1.0819  0.3248
10718SOL    HW232733   5.844   0.886   4.814 -0.4538 -1.1417  0.2075
10719SOL     OW32734   1.949   5.451   5.275 -0.0574  0.2473  0.0581
10719SOL    HW132735   1.945   5.547   5.273  2.4955  0.3959 -1.1747
10719SOL    HW232736   2.037   5.430   5.243 -0.0617 -2.4790  1.5792
10720SOL     OW32737   8.826   9.998   4.142  0.1849 -0.3048  0.0815
10720SOL    HW132738   8.803   9.909   4.116 -0.1838 -0.8474  2.0480
10720SOL    HW232739   8.868   9.987   4.228  3.2969  1.1118 -1.0898
10721SOL     OW32740   0.553   6.568   7.650 -0.2960 -0.1058 -0.4383
10721SOL    HW132741   0.462   6.573   7.623 -0.4652  1.3098  0.2783
10721SOL    HW232742   0.557   6.491   7.707 -1.0319 -0.2135 -0.5226
10722SOL     OW32743   0.218   9.320   9.687  0.2530  0.0741 -0.2169
10722SOL    HW132744   0.262   9.273   9.757 -0.7675 -0.9621 -0.2481
10722SOL    HW232745   0.191   9.403   9.726  0.0181 -0.3433  0.5195
10723SOL     OW32746   7.316   4.910   6.247 -0.2169  0.2680 -0.2143
10723SOL    HW132747   7.237   4.953   6.279 -0.1267 -0.5650  1.1901
10723SOL    HW232748   7.388   4.966   6.276 -0.2117  0.2703 -0.2312
10724SOL     OW32749   7.672   9.632   6.659 -0.2637  0.0183  0.1752
10724SOL    HW132750   7.760   9.641   6.696 -0.0780 -0.3256 -0.1755
10724SOL    HW232751   7.679   9.671   6.571 -0.1968 -0.8989 -0.2382
10725SOL     OW32752   9.324   4.815   1.530  0.5306  0.2179 -0.4097
10725SOL    HW132753   9.348   4.803   1.438  2.5351 -0.4893  0.1400
10725SOL    HW232754   9.252   4.754   1.544  0.3161  0.2091 -1.4545
10726SOL     OW32755   9.683   7.273   0.172 -0.0491  0.4866 -0.2445
10726SOL    HW132756   9.776   7.256   0.189 -0.1836  0.6151  0.6248
10726SOL    HW232757   9.642   7.276   0.258 -1.0613 -0.6370 -0.6466
10727SOL     OW32758   6.050   4.919   6.601  0.7091 -0.4682  0.3385
10727SOL    HW132759   6.119   4.852   6.600  0.7290 -0.5325 -2.8397
10727SOL    HW232760   5.975   4.877   6.561  0.3620  1.0348 -0.6687
10728SOL     OW32761   1.430   5.560   1.986  0.5806 -0.0958 -0.1054
10728SOL    HW132762   1.371   5.604   1.925  0.6518 -1.8197 -1.4921
10728SOL    HW232763   1.516   5.565   1.945  0.9516  0.2163  0.6938
10729SOL     OW32764   1.235   6.112   5.920  0.3392 -0.4069 -0.1315
10729SOL    HW132765   1.243   6.018   5.903 -1.7875 -0.5494 -0.5505
10729SOL    HW232766   1.257   6.153   5.836  1.1495 -0.5217  0.0178
10730SOL     OW32767   8.543   4.301   5.002  0.0867 -0.2526 -0.5970
10730SOL    HW132768   8.622   4.273   5.050  0.5922  1.4538 -0.3692
10730SOL    HW232769   8.564   4.283   4.910  0.5615 -0.2650 -0.4921
10731SOL     OW32770   1.657   8.903   5.715  0.3949  0.0767  0.3840
10731SOL    HW132771   1.611   8.948   5.644  1.2209 -0.8117 -0.7802
10731SOL    HW232772   1.655   8.810   5.689  2.1250 -0.0787  0.6636
10732SOL     OW32773   3.760   9.296   2.329  0.6599 -0.0598  0.5892
10732SOL    HW132774   3.815   9.360   2.283  1.4250  0.5064  2.2169
10732SOL    HW232775   3.763   9.218   2.274  0.9300  0.8156 -0.6863
10733SOL     OW32776   0.683   9.811   6.734 -0.4425 -0.0965 -0.5475
10733SOL    HW132777   0.695   9.834   6.826 -1.5962  2.4979 -0.9407
10733SOL    HW232778   0.619   9.739   6.735 -1.5461  0.8430  0.6821
10734SOL     OW32779   3.712   7.086   6.165  0.3015 -0.0315  0.4548
10734SOL    HW132780   3.679   7.057   6.250 -1.1020 -1.8392 -0.6280
10734SOL    HW232781   3.697   7.180   6.164 -0.5810 -0.1341  1.8307
10735SOL     OW32782   1.892   0.823   5.377 -0.2041 -0.0025 -0.0367
10735SOL    HW132783   1.969   0.838   5.321  0.7363 -2.8403  0.3727
10735SOL    HW232784   1.904   0.883   5.451  1.8974 -0.7004  0.2528
10736SOL     OW32785   5.232   6.642   2.954  0.3258  0.2498  0.0215
10736SOL    HW132786   5.169   6.629   3.025 -0.9851 -1.0836 -1.2986
10736SOL    HW232787   5.200   6.586   2.883  1.2616  1.9201 -1.8287
10737SOL     OW32788   4.900   0.085   8.132  0.0494 -0.3320  0.4159
10737SOL    HW132789   4.908   0.010   8.191  0.1227  0.2418  1.1524
10737SOL    HW232790   4.933   0.053   8.048 -1.2882 -1.5606  0.3253
10738SOL     OW32791   3.966   0.536   0.061 -0.3485  0.3485  0.2895
10738SOL    HW132792   3.905   0.586   0.117 -1.4665  0.1093 -0.6781
10738SOL    HW232793   3.960   0.446   0.093  1.3554  0.6938  1.7616
10739SOL     OW32794   3.829   7.392   0.641 -0.1011 -0.3644 -0.3198
10739SOL    HW132795   3.839   7.466   0.701  2.7283 -0.0343 -1.0264
10739SOL    HW232796   3.779   7.427   0.567 -0.0481  0.4263  0.0089
10740SOL     OW32797   9.249   5.436   5.102 -0.6570 -0.1273 -0.2041
10740SOL    HW132798   9.182   5.451   5.169 -0.3217 -0.0916  0.1312
10740SOL    HW232799   9.275   5.344   5.115  0.3312  0.2383  0.5888
10741SOL     OW32800   3.305   1.175   5.785 -0.3029  0.0556 -0.2133
10741SOL    HW132801   3.244   1.126   5.840 -1.2273  0.0472 -1.2020
10741SOL    HW232802   3.253   1.200   5.708  0.6812  0.9035 -0.6305
10742SOL     OW32803   5.743   9.285   3.706  0.3237  0.2127  0.4265
10742SOL    HW132804   5.711   9.264   3.793  0.7570 -1.4825  0.2169
10742SOL    HW232805   5.668   9.270   3.648  0.3877  0.0780  0.3767
10743SOL     OW32806   9.403   7.714   1.290 -0.1479 -0.5631  0.1750
10743SOL    HW132807   9.453   7.633   1.287 -0.1289 -0.5408 -0.0971
10743SOL    HW232808   9.382   7.725   1.383  2.0585  0.4617  0.6353
10744SOL     OW32809   5.890   3.200   9.698  0.0924 -0.0151  0.1356
10744SOL    HW132810   5.966   3.247   9.664  0.4778 -0.9357 -0.3044
10744SOL    HW232811   5.819   3.264   9.695  0.3037  0.1945 -1.6222
10745SOL     OW32812   2.191   2.439   8.091 -0.2967  0.2431  0.1580
10745SOL    HW132813   2.119   2.391   8.131 -0.7247 -1.2179 -2.1261
10745SOL    HW232814   2.267   2.381   8.103 -0.2505  0.1980 -0.3039
10746SOL     OW32815   3.929   3.872   8.707 -0.4785  0.0685  0.0493
10746SOL    HW132816   3.976   3.942   8.752  0.6416  0.9916 -2.3625
10746SOL    HW232817   3.837   3.900   8.708 -0.3347  0.5392  0.8837
10747SOL     OW32818   2.204   8.411   9.097  0.5470 -0.2905 -0.4871
10747SOL    HW132819   2.130   8.450   9.051  0.8167  0.9238  0.0583
10747SOL    HW232820   2.281   8.438   9.045  0.7757  0.3010  0.1491
10748SOL     OW32821   0.445   4.941   6.523 -0.1835  0.1755 -0.1797
10748SOL    HW132822   0.383   5.011   6.544  0.6094  0.5909  0.8869
10748SOL    HW232823   0.527   4.969   6.565  0.1188 -1.4630  0.3644
10749SOL     OW32824   1.367   2.769   8.267 -0.4804 -0.0621  0.2134
10749SOL    HW132825   1.310   2.769   8.191  2.0194 -1.4357 -1.8258
10749SOL    HW232826   1.405   2.857   8.269  0.5304 -0.4441 -1.0729
10750SOL     OW32827   9.266   5.098   4.593 -0.3785  0.5405  0.3109
10750SOL    HW132828   9.343   5.041   4.599 -0.2822  0.5897 -0.4161
10750SOL    HW232829   9.280   5.148   4.513 -2.5364 -1.4717 -1.4513
10751SOL     OW32830   2.785   9.423   0.088 -0.0922  0.8893  0.3550
10751SOL    HW132831   2.690   9.429   0.079 -0.1436  0.1631  0.3981
10751SOL    HW232832   2.800   9.397   0.179  0.0041 -1.8510 -0.3543
10752SOL     OW32833   3.079   2.220   6.480  0.3162  0.1263  0.2414
10752SOL    HW132834   3.014   2.164   6.437  0.0586  1.6486 -1.5255
10752SOL    HW232835   3.049   2.225   6.571 -1.5084 -0.0263 -0.2943
10753SOL     OW32836   3.530   7.150   5.179  0.5870 -0.4577 -0.4613
10753SOL    HW132837   3.456   7.142   5.240  0.6522 -0.1478 -0.3390
10753SOL    HW232838   3.552   7.060   5.156 -1.1163 -0.5469 -2.0444
10754SOL     OW32839   2.355   6.958   5.446  0.0810  0.2074 -0.4563
10754SOL    HW132840   2.265   6.928   5.439 -0.3818  1.1160  1.0337
10754SOL    HW232841   2.350   7.035   5.503  1.9594 -0.5128  0.7657
10755SOL     OW32842   1.556   9.822   3.424 -0.6808  0.2172 -0.5380
10755SOL    HW132843   1.586   9.875   3.351 -0.3847  0.5897 -0.1487
10755SOL    HW232844   1.574   9.732   3.398  2.0063  0.4629  0.2047
10756SOL     OW32845   5.230   9.451   8.421  0.2606 -0.0503  0.1392
10756SOL    HW132846   5.304   9.413   8.372  0.1952 -0.4937  0.3779
10756SOL    HW232847   5.208   9.530   8.373  2.4899  1.4561  1.4045
10757SOL     OW32848   8.428   6.356   4.401 -0.0378 -0.1966  0.3285
10757SOL    HW132849   8.378   6.337   4.322 -2.2081 -0.5931  1.7390
10757SOL    HW232850   8.450   6.270   4.437  0.2370 -0.0130  0.6101
10758SOL     OW32851   1.750   6.726   0.327 -0.0839  0.1522  0.5576
10758SOL    HW132852   1.699   6.667   0.271 -0.6145  1.6762 -0.6202
10758SOL    HW232853   1.834   6.681   0.338 -0.4507 -0.8021 -0.3540
10759SOL     OW32854   7.512   6.143   3.872  0.4940  0.3195 -0.0399
10759SOL    HW132855   7.489   6.176   3.786  3.4595 -0.7503 -1.3864
10759SOL    HW232856   7.443   6.175   3.930 -2.6180 -0.3628 -3.0387
10760SOL     OW32857   7.837   4.588   3.302  0.3438  0.1581 -0.2203
10760SOL    HW132858   7.758   4.614   3.254  0.7262  0.9203 -0.4401
10760SOL    HW232859   7.868   4.511   3.255 -0.2602 -0.1494 -0.1360
10761SOL     OW32860   7.175   2.403   1.368 -0.1309  0.4959  0.4988
10761SOL    HW132861   7.242   2.456   1.326 -0.8884 -0.2967 -1.8773
10761SOL    HW232862   7.221   2.323   1.395  0.0052  0.0683 -0.8826
10762SOL     OW32863   8.608   4.506   8.210  0.7040  0.0940 -0.2851
10762SOL    HW132864   8.582   4.541   8.296 -2.5285 -0.0609 -1.0778
10762SOL    HW232865   8.623   4.584   8.156  1.6769  0.1862  0.0947
10763SOL     OW32866   8.569   9.663   7.300  0.2334 -0.1386 -0.0888
10763SOL    HW132867   8.510   9.710   7.358  0.1658 -1.2205  0.7711
10763SOL    HW232868   8.535   9.678   7.212  1.1339  2.6748 -0.0412
10764SOL     OW32869   3.975   1.160   3.142  0.0460 -0.0920 -0.0331
10764SOL    HW132870   4.016   1.122   3.064  0.9289 -4.0169  2.0823
10764SOL    HW232871   3.885   1.126   3.141 -0.3862  0.9881  0.0247
10765SOL     OW32872   3.025   7.810   5.827 -0.2806  0.2948  0.4538
10765SOL    HW132873   3.105   7.838   5.782 -0.3562 -0.1611  0.0221
10765SOL    HW232874   3.010   7.721   5.795  0.1671 -0.3922  2.0718
10766SOL     OW32875   4.780   2.416   3.914  0.3523 -0.2494  0.1148
10766SOL    HW132876   4.754   2.415   3.822  0.2027 -1.0586  0.1610
10766SOL    HW232877   4.813   2.505   3.928  0.3016 -0.0908 -0.6963
10767SOL     OW32878   5.874   6.249   9.509  0.2660  0.0922  0.0771
10767SOL    HW132879   5.817   6.175   9.528  0.8555 -0.8650 -1.6662
10767SOL    HW232880   5.945   6.242   9.574  0.5962 -1.2109 -0.3929
10768SOL     OW32881   4.771   4.136   0.217  0.2270 -0.3274 -0.8794
10768SOL    HW132882   4.785   4.043   0.233  0.5039 -0.2147 -0.4547
10768SOL    HW232883   4.730   4.139   0.131  1.5828 -0.7562 -1.5784
10769SOL     OW32884   7.605   0.418   9.263 -0.1895  0.3454 -0.0485
10769SOL    HW132885   7.573   0.462   9.184 -0.8087  0.9044  0.4954
10769SOL    HW232886   7.654   0.343   9.231 -1.0161  0.1724 -0.9532
10770SOL     OW32887   9.151   4.666   8.386  0.6316 -0.0600 -0.6433
10770SOL    HW132888   9.182   4.578   8.365  2.4579  0.8160 -1.9185
10770SOL    HW232889   9.089   4.686   8.316  1.9015  0.4427 -1.6874
10771SOL     OW32890   0.680   9.915   3.355  0.1688  0.1508  0.2783
10771SOL    HW132891   0.715   9.832   3.323 -0.3133 -0.1540  0.5305
10771SOL    HW232892   0.708   9.919   3.446 -0.5900 -0.1748  0.5281
10772SOL     OW32893   0.746   9.937   8.583 -0.3538  0.6720  0.2494
10772SOL    HW132894   0.838   9.919   8.567 -0.2983  1.3275 -0.2094
10772SOL    HW232895   0.703   9.852   8.575 -0.0503  0.6509 -1.4701
10773SOL     OW32896   7.375   2.373   6.446  0.9073  0.0293  0.1200
10773SOL    HW132897   7.453   2.338   6.490 -0.3985 -1.6052  1.2456
10773SOL    HW232898   7.325   2.296   6.420  0.5196  1.0023 -2.2906
10774SOL     OW32899   5.752   5.804   9.604  0.3003 -0.0899  0.4860
10774SOL    HW132900   5.840   5.777   9.575 -0.0031 -0.1131 -0.4486
10774SOL    HW232901   5.748   5.777   9.696  0.7033 -1.5007  0.1140
10775SOL     OW32902   8.501   6.954   8.230  0.0272 -0.8114 -0.1161
10775SOL    HW132903   8.582   6.944   8.281 -0.5289 -1.7000  0.6341
10775SOL    HW232904   8.524   7.014   8.159  1.4598 -1.4107 -0.1811
10776SOL     OW32905   7.936   7.884   7.189  0.2931 -0.2341  0.2826
10776SOL    HW132906   7.954   7.888   7.283 -0.2721  0.9399  0.3634
10776SOL    HW232907   7.900   7.797   7.175  0.1219 -0.3202  1.2027
10777SOL     OW32908   8.677   5.969   2.969  0.0785  0.1086 -0.3705
10777SOL    HW132909   8.594   5.954   2.923 -0.4203  1.8290 -0.1119
10777SOL    HW232910   8.724   6.031   2.914  0.9359 -0.3482 -0.1832
10778SOL     OW32911   9.628   8.703   2.163  0.5765  0.0515 -0.9657
10778SOL    HW132912   9.558   8.762   2.190  1.4743  1.3973 -1.5261
10778SOL    HW232913   9.697   8.715   2.228  1.5369  1.0879 -2.1300
10779SOL     OW32914   3.315   0.081   1.145  0.0588  0.8656  0.4326
10779SOL    HW132915   3.399   0.082   1.190 -0.1576  1.3098  0.8413
10779SOL    HW232916   3.331   0.125   1.062  0.4861 -0.0554  0.0166
10780SOL     OW32917   4.490   9.667   0.756 -0.0281  0.1270  0.0021
10780SOL    HW132918   4.573   9.695   0.794 -0.4680 -0.3774  1.4005
10780SOL    HW232919   4.425   9.690   0.823 -0.8444 -0.6774 -0.5027
10781SOL     OW32920   4.935   9.752   8.562 -0.6175 -0.1110 -0.1014
10781SOL    HW132921   4.992   9.744   8.638  1.3732 -0.5726 -1.5449
10781SOL    HW232922   4.898   9.664   8.550  1.1770 -0.7775 -1.1535
10782SOL     OW32923   4.995   9.625   9.972  0.7427 -0.5150 -0.0133
10782SOL    HW132924   4.976   9.676  10.051  1.2538  0.1197 -0.2897
10782SOL    HW232925   5.012   9.691   9.905  0.2872 -1.0486 -0.6634
10783SOL     OW32926   6.794   3.654   4.718 -0.5451 -0.3073 -0.3508
10783SOL    HW132927   6.845   3.708   4.657  0.3134  1.3072  1.6644
10783SOL    HW232928   6.816   3.689   4.804 -0.1684 -3.7740  1.0948
10784SOL     OW32929   5.361   3.024   1.036  0.0436  0.3961 -0.3335
10784SOL    HW132930   5.340   2.948   0.981 -0.5313 -1.0313  1.7387
10784SOL    HW232931   5.451   3.008   1.066  0.1949  0.9281 -0.5010
10785SOL     OW32932   1.194   0.042   7.148 -0.7212  0.2296  0.1727
10785SOL    HW132933   1.259  -0.019   7.113 -0.4730  0.3958  0.3456
10785SOL    HW232934   1.141  -0.011   7.207 -0.1336  0.3095  0.7876
10786SOL     OW32935   3.922   0.179   4.156 -0.7885  0.8185  0.3590
10786SOL    HW132936   3.836   0.147   4.183 -0.3354 -0.3150  0.5004
10786SOL    HW232937   3.980   0.104   4.168  0.1234  1.4187 -0.2265
10787SOL     OW32938   2.960   7.889   0.685  0.1230  0.2207  0.8076
10787SOL    HW132939   3.032   7.825   0.686  0.9584  1.1345  0.4610
10787SOL    HW232940   2.931   7.891   0.594  2.6870  3.0994 -0.0997
10788SOL     OW32941   4.669   2.526   6.361  0.2285 -0.4875  0.3644
10788SOL    HW132942   4.714   2.570   6.433  2.4393 -0.3449 -0.9867
10788SOL    HW232943   4.740   2.497   6.303 -1.4228 -1.1125 -1.4665
10789SOL     OW32944   3.531   6.426   7.533  0.5506  0.4281 -0.8662
10789SOL    HW132945   3.528   6.512   7.489 -0.1488  0.6915 -0.3085
10789SOL    HW232946   3.536   6.363   7.461  1.9964  0.9578 -1.2776
10790SOL     OW32947   8.134   5.894   9.666  0.2977  0.2434  0.5194
10790SOL    HW132948   8.057   5.935   9.628 -0.1632  0.5665  1.7683
10790SOL    HW232949   8.192   5.967   9.689 -0.5386  0.2431  2.7752
10791SOL     OW32950   2.892   4.082   7.278 -0.4873  0.0244 -0.3209
10791SOL    HW132951   2.849   4.100   7.194 -0.3231  0.3506 -0.3358
10791SOL    HW232952   2.970   4.137   7.277 -0.7000  0.3458  0.2260
10792SOL     OW32953   3.339   6.098   8.759  0.4945  0.5501  0.3073
10792SOL    HW132954   3.396   6.123   8.832  1.3056  1.2966 -0.5415
10792SOL    HW232955   3.350   6.169   8.696  0.0429 -0.2279 -0.6701
10793SOL     OW32956   7.218   4.473   1.986 -0.1353  0.4334  0.1862
10793SOL    HW132957   7.294   4.418   2.005  0.3698  0.7460 -0.8237
10793SOL    HW232958   7.217   4.479   1.890 -1.8889 -0.1737  0.1446
10794SOL     OW32959   6.332   6.080   4.593 -0.6473  0.1044 -0.9885
10794SOL    HW132960   6.336   6.102   4.686 -1.9989  0.4160 -0.9857
10794SOL    HW232961   6.394   6.140   4.551  0.4899 -0.5028 -0.2328
10795SOL     OW32962   3.006   5.536   1.164 -0.0715  1.0116 -0.0876
10795SOL    HW132963   2.921   5.543   1.206 -0.0217 -1.9166  0.7064
10795SOL    HW232964   2.986   5.514   1.073 -0.1409  1.9098 -0.2989
10796SOL     OW32965   9.800   7.939   4.118  0.5038 -0.0939  0.3027
10796SOL    HW132966   9.865   7.967   4.183 -2.0609  3.4529  1.6706
10796SOL    HW232967   9.717   7.974   4.151 -1.8208 -2.5706 -2.3831
10797SOL     OW32968   9.613   1.584   0.670  0.6212  0.4995 -0.6039
10797SOL    HW132969   9.676   1.541   0.612  1.1573  0.6981 -0.1770
10797SOL    HW232970   9.667   1.626   0.737 -0.0361 -0.9973  0.9363
10798SOL     OW32971   1.858   0.774   0.403  0.1112  0.0796 -0.0808
10798SOL    HW132972   1.777   0.815   0.374 -0.2578  0.2717  1.1631
10798SOL    HW232973   1.842   0.750   0.494  1.1350 -0.7259 -0.0918
10799SOL     OW32974   0.446   9.883   5.668  0.0313  0.3674 -0.2867
10799SOL    HW132975   0.479   9.973   5.668  0.0160  0.4283 -2.4673
10799SOL    HW232976   0.353   9.892   5.689  0.3180  0.6709  0.9809
10800SOL     OW32977   5.043   2.657   3.590  0.3127 -0.2788 -0.6793
10800SOL    HW132978   5.100   2.598   3.639 -1.2428 -1.4820 -0.2603
10800SOL    HW232979   5.104   2.712   3.540  1.9740  0.6907  2.1445
10801SOL     OW32980   4.948   4.847   5.928  0.1183  0.1245  0.1914
10801SOL    HW132981   4.853   4.834   5.929  0.2003 -0.5009  1.5099
10801SOL    HW232982   4.961   4.931   5.973  0.1923  0.1775  0.0716
10802SOL     OW32983   8.042   2.789   3.928 -0.6070 -0.4737  0.4051
10802SOL    HW132984   8.107   2.721   3.909 -0.1810 -0.1914  0.8437
10802SOL    HW232985   7.972   2.773   3.864 -0.3393 -1.0903  0.2567
10803SOL     OW32986   2.403   9.319   2.437 -0.0343 -0.6764  0.0344
10803SOL    HW132987   2.469   9.341   2.370  1.2067 -1.5900  0.9077
10803SOL    HW232988   2.370   9.233   2.411  0.5716 -1.1095  0.6656
10804SOL     OW32989   2.591   8.773   8.702  0.1640  0.2164  0.2802
10804SOL    HW132990   2.651   8.730   8.763 -0.0673 -2.7867 -1.3859
10804SOL    HW232991   2.509   8.725   8.712 -0.4744  1.0220 -0.8947
10805SOL     OW32992   0.813   1.969   9.704  0.3160 -0.2342 -0.2009
10805SOL    HW132993   0.858   2.018   9.635  0.7131 -0.4204 -0.0745
10805SOL    HW232994   0.882   1.918   9.746 -0.1119 -0.9733 -0.3879
10806SOL     OW32995   6.941   6.712   7.632 -0.9554 -0.0006 -0.2784
10806SOL    HW132996   6.899   6.778   7.688 -0.7107 -0.5518  0.5880
10806SOL    HW232997   7.034   6.718   7.654 -0.3689  1.7722 -2.7720
10807SOL     OW32998   4.059   2.199   9.763 -0.0459 -0.2546 -0.1005
10807SOL    HW132999   4.049   2.280   9.814 -2.4886 -0.1091 -0.6496
10807SOL    HW233000   4.060   2.130   9.829  1.4813  0.1740  0.3452
10808SOL     OW33001   9.225   3.785   5.986  0.4148  0.0198 -0.8803
10808SOL    HW133002   9.300   3.747   6.033 -1.1505 -1.7194  0.3588
10808SOL    HW233003   9.243   3.879   5.984  2.2413 -0.2618  0.0989
10809SOL     OW33004   6.294   2.648   5.166  0.4946 -0.0408  0.5085
10809SOL    HW133005   6.297   2.587   5.093  0.8747 -1.2919  1.5290
10809SOL    HW233006   6.312   2.734   5.127 -0.8789 -0.4326 -1.0858
10810SOL     OW33007   6.897   8.514   6.751  0.1330  0.7532  0.8146
10810SOL    HW133008   6.910   8.607   6.734 -1.1523  0.8451  0.2913
10810SOL    HW233009   6.931   8.470   6.673  0.8325  0.7649  1.1045
10811SOL     OW33010   5.540   6.336   9.572 -0.1471 -0.2187 -0.0497
10811SOL    HW133011   5.571   6.327   9.662 -1.2722  0.2763  0.4049
10811SOL    HW233012   5.595   6.277   9.521 -0.4950 -1.6505  1.1918
10812SOL     OW33013   3.149   3.507   6.790  0.5375 -0.3916  0.3820
10812SOL    HW133014   3.121   3.528   6.879  0.3260 -0.6085  0.3699
10812SOL    HW233015   3.130   3.585   6.739  0.7672 -0.2246  0.5510
10813SOL     OW33016   0.424   7.151   6.365  0.0506 -0.5024 -0.5556
10813SOL    HW133017   0.343   7.125   6.410 -0.4938 -1.9486 -2.2402
10813SOL    HW233018   0.402   7.232   6.320  0.8567  1.4552  2.3206
10814SOL     OW33019   3.663   9.183   4.139  0.2827  0.3220 -0.2014
10814SOL    HW133020   3.673   9.214   4.229  1.5696 -0.7485  0.0493
10814SOL    HW233021   3.628   9.095   4.148 -1.6114  0.9520 -0.8549
10815SOL     OW33022   4.347   8.894   8.555 -0.5035  0.1925 -0.2218
10815SOL    HW133023   4.404   8.842   8.499  1.0848  2.0605 -0.4450
10815SOL    HW233024   4.262   8.850   8.550  0.8118 -2.5986 -0.0108
10816SOL     OW33025   5.305   8.002   0.722 -0.3014 -0.1115 -0.2708
10816SOL    HW133026   5.362   7.975   0.794  0.0062 -1.3263 -0.9465
10816SOL    HW233027   5.331   8.092   0.703 -2.0838  1.2047  2.7520
10817SOL     OW33028   9.679   1.329   0.153  0.0484 -0.1563  0.2075
10817SOL    HW133029   9.616   1.401   0.152 -2.5921 -2.2849 -1.4128
10817SOL    HW233030   9.677   1.294   0.063  2.8014 -1.0044  0.3697
10818SOL     OW33031   5.348   2.864   6.890  0.1616 -0.0290 -0.3330
10818SOL    HW133032   5.403   2.943   6.894  0.7609 -0.4928  1.6747
10818SOL    HW233033   5.371   2.823   6.807  3.6510 -0.6865  0.7799
10819SOL     OW33034   5.712   4.805   3.800  0.1064 -0.6984  0.3074
10819SOL    HW133035   5.658   4.841   3.729  0.8181 -3.0866 -1.5954
10819SOL    HW233036   5.758   4.881   3.836 -1.3154  0.7885 -0.8533
10820SOL     OW33037   5.163   7.351   2.963 -0.0882  0.1297 -0.3069
10820SOL    HW133038   5.104   7.300   3.019 -0.5925 -0.0043 -0.9482
10820SOL    HW233039   5.108   7.421   2.928  0.6014  1.1349  0.5710
10821SOL     OW33040   6.356   2.427   4.993 -0.1354 -0.3888  0.5031
10821SOL    HW133041   6.374   2.361   4.926  0.6231  0.2706  0.0364
10821SOL    HW233042   6.381   2.385   5.075 -2.2155 -1.6466  0.5585
10822SOL     OW33043   6.284   2.092   3.722  0.2806  0.3686 -0.4271
10822SOL    HW133044   6.357   2.033   3.742  0.0256 -1.3866 -3.8618
10822SOL    HW233045   6.325   2.172   3.689  0.6794  0.1589 -0.4409
10823SOL     OW33046   7.954   0.012   1.609 -0.1807  0.2318  0.1613
10823SOL    HW133047   8.023  -0.054   1.607  0.2386  0.5599  2.0976
10823SOL    HW233048   7.973   0.068   1.534  1.1154 -0.2191  0.1305
10824SOL     OW33049   3.581   5.750   4.984  0.3382 -0.1521 -0.4574
10824SOL    HW133050   3.493   5.755   5.021 -0.9234 -0.9416 -3.0758
10824SOL    HW233051   3.624   5.681   5.034 -1.0980 -0.8673 -0.1351
10825SOL     OW33052   4.601   5.038   7.755 -0.0679 -0.1090  0.6042
10825SOL    HW133053   4.574   5.116   7.803 -0.9523 -0.3358  0.4893
10825SOL    HW233054   4.615   4.972   7.823  0.5474  0.0999  0.6898
10826SOL     OW33055  -0.005   5.080   9.303 -0.1469 -0.5960  0.0204
10826SOL    HW133056  -0.058   5.147   9.259 -0.4479  0.4446  1.8875
10826SOL    HW233057   0.071   5.127   9.336  0.2812 -1.4361  0.2594
10827SOL     OW33058   7.326   3.872   7.456 -0.2078 -0.7476 -0.4546
10827SOL    HW133059   7.325   3.871   7.552  2.5914 -0.5037 -0.3621
10827SOL    HW233060   7.252   3.816   7.431 -1.2743 -0.4650  1.7958
10828SOL     OW33061   6.245   2.451   2.345 -0.9437 -0.0575  0.3635
10828SOL    HW133062   6.329   2.426   2.382 -1.5647 -1.9712  0.5735
10828SOL    HW233063   6.198   2.369   2.334 -2.7712  0.9601  0.1945
10829SOL     OW33064   8.501   8.793   7.507  0.8252  0.4826  0.2771
10829SOL    HW133065   8.430   8.768   7.448  0.8662 -0.5086  0.6234
10829SOL    HW233066   8.499   8.889   7.509 -1.3407  0.4634  1.2812
10830SOL     OW33067   2.966   6.107   4.154  0.0242  0.9574  0.3527
10830SOL    HW133068   2.937   6.193   4.124 -0.8144  0.7165  0.4357
10830SOL    HW233069   3.049   6.092   4.108 -0.3330  1.3654 -0.4564
10831SOL     OW33070   3.576   6.474   2.834 -0.1793  0.4027  1.0945
10831SOL    HW133071   3.506   6.465   2.899 -0.6185  0.2663  0.6105
10831SOL    HW233072   3.590   6.386   2.800 -0.3396  0.5587  0.6106
10832SOL     OW33073   2.121   7.769   0.876 -0.2553  0.0919 -0.0772
10832SOL    HW133074   2.094   7.757   0.785  1.4471 -0.6391 -0.5355
10832SOL    HW233075   2.144   7.681   0.906  1.7814  0.6487  0.1454
10833SOL     OW33076   8.552   1.527   8.239  0.2842  0.1173  0.1904
10833SOL    HW133077   8.457   1.516   8.244  0.1801 -0.4880 -1.9719
10833SOL    HW233078   8.587   1.438   8.247  0.2160 -0.6196 -4.5608
10834SOL     OW33079   7.157   0.204   9.679 -0.5376  0.1501  0.3787
10834SOL    HW133080   7.154   0.293   9.643  0.4115  0.1442  0.2555
10834SOL    HW233081   7.144   0.216   9.773 -0.2841  0.4376  0.3785
10835SOL     OW33082   1.903   6.807   1.661 -0.0920 -0.8198  0.4746
10835SOL    HW133083   1.812   6.835   1.667  0.1207  0.2032 -0.5867
10835SOL    HW233084   1.898   6.717   1.629 -0.7436 -0.0938 -1.6859
10836SOL     OW33085   5.656   6.782   5.682 -0.3050  0.8038 -0.6250
10836SOL    HW133086   5.615   6.696   5.684  1.3491 -0.0094  0.1219
10836SOL    HW233087   5.598   6.838   5.733 -0.9779 -0.0602 -0.4328
10837SOL     OW33088   6.137   6.502   2.453  0.5040  0.0615  0.0485
10837SOL    HW133089   6.062   6.476   2.400  0.3086  0.3417  0.1855
10837SOL    HW233090   6.108   6.581   2.499  0.6804 -0.1643  0.5548
10838SOL     OW33091   8.442   1.244   3.452  0.0156  0.2524  0.4298
10838SOL    HW133092   8.483   1.168   3.410 -2.1679 -2.0471  2.1429
10838SOL    HW233093   8.368   1.265   3.395  0.8793  1.5042 -0.2905
10839SOL     OW33094   7.791   9.289   9.462 -0.0294  0.2493 -0.0419
10839SOL    HW133095   7.703   9.314   9.434  0.2188 -0.9174 -1.9755
10839SOL    HW233096   7.849   9.336   9.403  0.6292  0.0410  0.4337
10840SOL     OW33097   8.944   2.823   5.127 -0.0050 -0.2092  0.6691
10840SOL    HW133098   8.964   2.831   5.220  0.5711 -2.9785  0.8572
10840SOL    HW233099   8.890   2.900   5.108 -0.4876  0.2218  3.3549
10841SOL     OW33100   2.616   7.171   4.031 -0.7394 -0.4822 -0.0347
10841SOL    HW133101   2.611   7.188   3.937 -2.2111 -0.8488 -0.0449
10841SOL    HW233102   2.612   7.258   4.071  0.6784 -0.2722 -0.3187
10842SOL     OW33103   3.944   6.843   3.521  0.4103 -0.1919  0.5620
10842SOL    HW133104   4.037   6.822   3.525  0.1927 -1.3830 -0.2569
10842SOL    HW233105   3.935   6.898   3.443  0.1200 -1.9827 -0.7344
10843SOL     OW33106   2.013   4.633   8.665  0.0575  0.5995 -0.2027
10843SOL    HW133107   1.934   4.662   8.619  0.4898 -0.0055 -1.3789
10843SOL    HW233108   2.015   4.538   8.650  0.1233  0.3544  1.2510
10844SOL     OW33109   7.576   0.736   8.606 -0.7396  0.0531  0.4138
10844SOL    HW133110   7.561   0.656   8.555  2.9356 -0.0682 -0.7910
10844SOL    HW233111   7.589   0.705   8.696  0.6261 -0.7500 -0.0376
10845SOL     OW33112   8.713   3.251   1.667 -0.0434  0.4337  0.3984
10845SOL    HW133113   8.718   3.286   1.578  0.6555 -1.4330 -0.3566
10845SOL    HW233114   8.783   3.297   1.715  0.1657  0.8159 -0.2576
10846SOL     OW33115   1.446   4.176   1.738 -0.3228 -0.3638  0.5489
10846SOL    HW133116   1.524   4.165   1.684  0.2577  0.7270  1.1423
10846SOL    HW233117   1.422   4.268   1.729 -1.6919 -0.7265  0.1970
10847SOL     OW33118   2.524   9.043   3.000 -0.3095 -0.2386  0.1709
10847SOL    HW133119   2.491   9.133   3.002  0.0051 -0.1287  0.4675
10847SOL    HW233120   2.516   9.017   2.908  0.0084  0.2456  0.0003
10848SOL     OW33121   1.676   1.104   9.690  0.6503  0.0309 -0.1261
10848SOL    HW133122   1.677   1.097   9.594 -1.1249  1.5222 -0.3199
10848SOL    HW233123   1.732   1.179   9.708  0.1713  0.3872 -0.0987
10849SOL     OW33124   7.916   6.497   1.300  0.1239  0.4722  0.3877
10849SOL    HW133125   7.941   6.408   1.274  1.1654  0.8442  0.1106
10849SOL    HW233126   7.877   6.535   1.222 -1.3499 -0.0847  0.8025
10850SOL     OW33127   0.809   3.736   0.374  0.1704  0.1080 -0.5599
10850SOL    HW133128   0.759   3.750   0.294 -0.1210 -0.5213 -0.4983
10850SOL    HW233129   0.891   3.696   0.344 -0.0911 -0.4675 -0.5185
10851SOL     OW33130   6.080   6.423   3.608 -0.2795  0.1948  0.1364
10851SOL    HW133131   6.041   6.510   3.618 -0.2302  0.2821 -0.4003
10851SOL    HW233132   6.127   6.408   3.690 -1.0978  0.2591  0.6281
10852SOL     OW33133   6.909   3.171   5.482  0.0217  0.1758 -0.0733
10852SOL    HW133134   6.870   3.194   5.567 -0.4668  0.1551 -0.2916
10852SOL    HW233135   6.956   3.089   5.500 -0.2510  0.0609  0.1305
10853SOL     OW33136   9.423   4.587   3.195  0.2459  0.2913 -0.5687
10853SOL    HW133137   9.475   4.582   3.114  1.2657  0.8753  0.0226
10853SOL    HW233138   9.400   4.496   3.213  0.2119  0.1248 -1.3816
10854SOL     OW33139   2.599   3.146   4.239 -0.1062 -0.3977 -0.1903
10854SOL    HW133140   2.628   3.178   4.154  2.8127 -0.7435  0.5470
10854SOL    HW233141   2.514   3.105   4.222 -1.1383  2.3298 -2.2683
10855SOL     OW33142   8.514   6.653   6.500 -0.0840 -0.1841 -0.1708
10855SOL    HW133143   8.554   6.739   6.511 -1.3663  0.2726  1.2333
10855SOL    HW233144   8.430   6.671   6.459 -0.0876 -0.8513 -0.4697
10856SOL     OW33145   6.529   4.820   7.353 -0.4141  0.6790 -0.3235
10856SOL    HW133146   6.622   4.809   7.334 -0.2925  0.8017  0.1803
10856SOL    HW233147   6.484   4.771   7.284  0.0486 -0.4542  0.1520
10857SOL     OW33148   0.147   2.642   7.794 -0.6450  0.1300  0.1900
10857SOL    HW133149   0.242   2.647   7.782 -0.8156  0.1966 -1.2377
10857SOL    HW233150   0.126   2.721   7.844 -0.0458  0.5085 -0.1366
10858SOL     OW33151   6.001   4.467   2.138  0.3490 -0.2153  0.6649
10858SOL    HW133152   5.919   4.464   2.088 -0.3092 -0.0007  1.7020
10858SOL    HW233153   6.068   4.445   2.074 -0.3512  1.0200 -0.5585
10859SOL     OW33154   1.394   1.854   9.276 -0.2759  0.0878  0.0777
10859SOL    HW133155   1.321   1.826   9.221 -0.1317 -0.0558 -0.0445
10859SOL    HW233156   1.399   1.949   9.262 -2.5476  0.7037  2.6571
10860SOL     OW33157   1.803   8.327   7.002 -0.4987  0.2452  0.5193
10860SOL    HW133158   1.739   8.301   6.936  1.4690 -0.3975 -1.2406
10860SOL    HW233159   1.816   8.249   7.056 -0.3484  0.0132  0.1488
10861SOL     OW33160   4.885   4.503   5.984  0.4881 -1.1412 -0.2886
10861SOL    HW133161   4.852   4.516   5.895  0.0089 -0.2261  0.0093
10861SOL    HW233162   4.806   4.495   6.038  0.7713 -1.1324  0.1321
10862SOL     OW33163   1.336   5.692   6.507  0.3815 -0.0022  0.0029
10862SOL    HW133164   1.360   5.762   6.446 -0.0508 -0.6311 -0.8906
10862SOL    HW233165   1.328   5.614   6.453 -0.6943 -0.4303  0.7500
10863SOL     OW33166   8.781   9.676   7.793 -0.3403 -0.0375 -0.3811
10863SOL    HW133167   8.809   9.754   7.840  0.2255 -0.7784  0.5626
10863SOL    HW233168   8.730   9.626   7.858 -0.4636 -0.5767 -0.8803
10864SOL     OW33169   6.896   0.980   2.011  0.1188 -0.4227  0.5053
10864SOL    HW133170   6.913   0.886   2.003  0.3440 -0.5585  2.0938
10864SOL    HW233171   6.977   1.022   1.984 -0.6341 -0.5275 -2.2403
10865SOL     OW33172   3.877   0.168   6.925 -0.5476 -0.4678  0.3442
10865SOL    HW133173   3.898   0.256   6.893  2.7070 -0.0132  3.1702
10865SOL    HW233174   3.932   0.110   6.871  0.0780 -0.3580  0.8523
10866SOL     OW33175   1.705   6.272   2.066  0.2260 -0.1160 -0.0508
10866SOL    HW133176   1.715   6.194   2.010 -0.2900 -0.6077  0.5209
10866SOL    HW233177   1.794   6.298   2.088  0.4768  0.4290 -1.5480
10867SOL     OW33178   6.259   6.125   0.420 -0.4163  0.5514 -0.4303
10867SOL    HW133179   6.220   6.047   0.459  0.4693  0.0074 -0.5854
10867SOL    HW233180   6.190   6.191   0.422 -1.6452 -0.6640 -1.6148
10868SOL     OW33181   6.184   2.347   4.761  0.3476  0.6848 -0.3079
10868SOL    HW133182   6.120   2.358   4.690 -1.0449  1.0776  0.9616
10868SOL    HW233183   6.252   2.412   4.742  0.1365  0.6180 -1.3969
10869SOL     OW33184   4.634   2.210   6.985  0.3360 -0.6464  0.0899
10869SOL    HW133185   4.723   2.208   7.019  0.4907 -0.0999 -0.2692
10869SOL    HW233186   4.624   2.298   6.949  0.4440 -1.4172 -1.9565
10870SOL     OW33187   5.070   1.586   5.014 -0.3735  0.1279 -0.0379
10870SOL    HW133188   5.047   1.671   4.975 -1.0922  0.4507  1.0679
10870SOL    HW233189   5.015   1.523   4.967  1.7762 -0.1196 -2.4998
10871SOL     OW33190   5.910   8.397   5.488 -0.3021  0.2564 -0.1921
10871SOL    HW133191   5.893   8.371   5.397 -1.3003 -0.0372  0.0629
10871SOL    HW233192   5.839   8.357   5.538  0.0745  0.6503  0.6837
10872SOL     OW33193   9.756   1.412   0.493  0.0663  0.3132 -0.6948
10872SOL    HW133194   9.795   1.334   0.533  1.6193  1.4629  0.1227
10872SOL    HW233195   9.801   1.421   0.410  1.2221  1.3435  0.0164
10873SOL     OW33196   7.041   6.267   9.388  0.4287 -0.1233  0.2155
10873SOL    HW133197   7.112   6.325   9.360  0.3319 -0.5976 -1.0417
10873SOL    HW233198   7.083   6.182   9.401 -0.1148 -0.7602 -1.8953
10874SOL     OW33199   0.521   5.498   0.474  0.0946  0.0686  0.3308
10874SOL    HW133200   0.540   5.512   0.567 -1.0628  1.1167  0.4318
10874SOL    HW233201   0.498   5.406   0.468  2.7823 -0.7164  0.5770
10875SOL     OW33202   6.865   2.620   0.547 -0.0819 -0.0079 -0.6166
10875SOL    HW133203   6.803   2.579   0.486 -0.6735 -1.0723  0.6497
10875SOL    HW233204   6.908   2.547   0.591  0.5204  0.7292  0.0616
10876SOL     OW33205   9.053   6.673   8.072 -0.3719 -0.3535 -0.0925
10876SOL    HW133206   9.028   6.719   8.151 -1.6039 -0.3202 -0.4873
10876SOL    HW233207   9.057   6.740   8.004  0.1907 -0.4583 -0.1709
10877SOL     OW33208   8.962   0.384   9.745 -0.7547 -0.7499 -0.0706
10877SOL    HW133209   8.933   0.403   9.656  2.3363 -2.6387 -1.6589
10877SOL    HW233210   8.996   0.295   9.741  1.6375 -0.0977  2.3567
10878SOL     OW33211   1.537   1.577   4.517 -0.5809 -0.4303  0.7450
10878SOL    HW133212   1.487   1.655   4.542  0.4729  0.1727  1.0334
10878SOL    HW233213   1.510   1.559   4.427 -1.4469 -0.2417  0.9554
10879SOL     OW33214   9.593   6.978   4.228 -0.0689 -0.2190  0.3471
10879SOL    HW133215   9.667   6.947   4.177 -0.6996 -1.3861  0.1128
10879SOL    HW233216   9.582   7.069   4.201 -0.1055 -0.6774 -1.2857
10880SOL     OW33217   9.117   4.373   0.371  0.1609 -0.1546  0.7621
10880SOL    HW133218   9.190   4.409   0.321 -0.8785 -0.2441 -0.9247
10880SOL    HW233219   9.147   4.287   0.399  0.8263 -0.0614  0.3516
10881SOL     OW33220   1.470   1.114   2.799  0.3219 -0.4558 -0.1061
10881SOL    HW133221   1.565   1.103   2.797  0.2869 -0.7703 -0.1278
10881SOL    HW233222   1.456   1.192   2.852  0.5234 -1.2902  1.2301
10882SOL     OW33223   3.793   5.945   1.798 -0.2771 -0.2462 -0.4098
10882SOL    HW133224   3.808   5.936   1.704  2.5382 -1.7469  0.0894
10882SOL    HW233225   3.793   5.856   1.832  0.5060  0.3238  1.2174
10883SOL     OW33226   2.142   7.240   8.664 -0.2132  0.0728 -0.1805
10883SOL    HW133227   2.206   7.215   8.731  1.1804 -0.4503 -1.6636
10883SOL    HW233228   2.153   7.175   8.595 -3.0763 -0.6533 -0.0890
10884SOL     OW33229   4.719   9.682   3.321 -0.1572  0.0630  0.2782
10884SOL    HW133230   4.748   9.728   3.399 -1.9258  1.6623  0.0549
10884SOL    HW233231   4.624   9.676   3.331 -0.4093  0.2328 -1.7100
10885SOL     OW33232   5.299   2.171   4.365  0.0378 -0.0889 -0.3889
10885SOL    HW133233   5.324   2.264   4.364 -0.2529 -0.0011 -1.8731
10885SOL    HW233234   5.310   2.145   4.456  0.4437  1.3179  0.0016
10886SOL     OW33235   4.117   0.505   2.445 -0.0524 -0.5338  0.3752
10886SOL    HW133236   4.209   0.482   2.456  0.1722  0.4573  0.6671
10886SOL    HW233237   4.119   0.596   2.414 -0.8933 -0.9294 -0.8849
10887SOL     OW33238   0.487   5.714   8.110 -0.2915  0.0705  0.0079
10887SOL    HW133239   0.462   5.734   8.020  0.1117  1.6289  0.2151
10887SOL    HW233240   0.445   5.629   8.129 -0.6387 -0.1185 -1.5207
10888SOL     OW33241   6.393   4.344   2.952  0.1088 -0.5149  0.6423
10888SOL    HW133242   6.361   4.276   2.894 -0.1178  0.4521 -0.4119
10888SOL    HW233243   6.458   4.300   3.007 -0.6271 -1.7488  0.5553
10889SOL     OW33244   2.886   4.098   0.051  0.5189 -0.0820  0.9035
10889SOL    HW133245   2.942   4.160   0.097  1.8098 -0.5778  0.0560
10889SOL    HW233246   2.893   4.124  -0.041 -0.6950 -0.1312  0.7820
10890SOL     OW33247   5.748   4.221   5.875 -0.0743  0.8089 -0.4021
10890SOL    HW133248   5.689   4.253   5.807  0.1949 -2.5525 -2.4501
10890SOL    HW233249   5.692   4.174   5.936  0.1472  0.2515 -0.6273
10891SOL     OW33250   6.698   8.111   1.464  0.2079  0.0375 -0.0700
10891SOL    HW133251   6.669   8.161   1.388 -2.5177  0.3386  1.0491
10891SOL    HW233252   6.792   8.103   1.453  0.1263  1.5116 -2.5925
10892SOL     OW33253   4.449   5.100   3.846  0.1014  0.7484 -0.3514
10892SOL    HW133254   4.426   5.012   3.817  0.0601  1.4161 -2.5126
10892SOL    HW233255   4.366   5.148   3.847  0.3261  1.1527 -0.6628
10893SOL     OW33256   5.997   8.906   8.764 -0.2629 -0.0831  0.0013
10893SOL    HW133257   6.074   8.850   8.776 -0.1195  0.0030 -0.4634
10893SOL    HW233258   5.986   8.910   8.669 -0.1805  0.7883  0.0165
10894SOL     OW33259   8.896   4.446   6.146  0.3021 -0.5026 -0.4390
10894SOL    HW133260   8.911   4.490   6.229 -0.0536 -1.1174 -0.0356
10894SOL    HW233261   8.965   4.380   6.141 -0.3085 -1.1833 -0.1094
10895SOL     OW33262   6.145   1.948   2.400 -0.5245 -0.2380 -0.2492
10895SOL    HW133263   6.191   1.930   2.482 -0.8387 -2.3434 -0.4871
10895SOL    HW233264   6.113   2.038   2.410  1.5072  0.4078  0.9059
10896SOL     OW33265   1.446   0.400   7.441 -0.0177  0.1171  0.2347
10896SOL    HW133266   1.484   0.326   7.489  2.5412  0.2118 -1.4077
10896SOL    HW233267   1.387   0.360   7.378  0.0862 -0.3996  0.4627
10897SOL     OW33268   0.941   0.883   5.138  0.4797 -0.2175 -0.3798
10897SOL    HW133269   0.911   0.972   5.118  1.8395 -0.0544 -1.9395
10897SOL    HW233270   0.949   0.841   5.053  1.5329 -1.2606  0.1991
10898SOL     OW33271   1.279   2.445   9.085 -0.1846  0.3024 -0.2059
10898SOL    HW133272   1.348   2.510   9.087 -0.4721  0.6125  1.6847
10898SOL    HW233273   1.203   2.489   9.124 -0.1876 -1.3017  1.7839
10899SOL     OW33274   2.795   8.809   4.468  0.2451  0.2363 -0.7050
10899SOL    HW133275   2.810   8.716   4.484  1.3037  0.1257 -2.1985
10899SOL    HW233276   2.701   8.816   4.449 -0.0033 -0.3746  0.2303
10900SOL     OW33277   6.863   6.643   4.102  0.1981 -0.1472  0.1786
10900SOL    HW133278   6.821   6.603   4.025 -0.9148  0.1843  0.6009
10900SOL    HW233279   6.926   6.705   4.065 -0.6108  0.3018 -0.4806
10901SOL     OW33280   9.943   6.876   7.985  0.7946 -0.1899  0.5808
10901SOL    HW133281   9.934   6.799   8.041 -0.5679 -0.9280 -0.5746
10901SOL    HW233282   9.872   6.867   7.921  0.5646  2.0677  0.4520
10902SOL     OW33283   7.705   7.107   5.878  0.1811  0.1055 -0.3325
10902SOL    HW133284   7.767   7.171   5.912  0.5785 -0.3826 -0.1275
10902SOL    HW233285   7.634   7.106   5.941  0.7339 -0.5158  0.2976
10903SOL     OW33286   0.912   5.490   2.261 -0.1307 -0.3357  0.1642
10903SOL    HW133287   0.988   5.459   2.311  1.2115  1.3760 -0.7267
10903SOL    HW233288   0.900   5.580   2.290 -0.2981  0.1851 -1.4741
10904SOL     OW33289   2.704   8.138   6.902  0.1000  0.2375  0.0015
10904SOL    HW133290   2.700   8.233   6.907  1.3449  0.2413  2.4542
10904SOL    HW233291   2.784   8.120   6.853  0.9829  0.5026  1.3053
10905SOL     OW33292   1.483   7.552   6.287 -0.1149 -0.2288  0.1680
10905SOL    HW133293   1.473   7.540   6.382  4.0045  2.9232  1.3218
10905SOL    HW233294   1.534   7.477   6.258  0.1517 -0.3023  0.8195
10906SOL     OW33295   8.486   7.457   2.857 -0.4935  0.0720  0.1207
10906SOL    HW133296   8.558   7.425   2.803 -1.0370 -1.0540  0.0408
10906SOL    HW233297   8.414   7.471   2.796 -0.9417 -0.6840  0.4598
10907SOL     OW33298   1.005   5.377   6.017  0.2799 -0.4520  0.0360
10907SOL    HW133299   1.071   5.317   5.982  3.6227  1.8502  1.7406
10907SOL    HW233300   1.030   5.463   5.982 -2.4776  0.4233 -0.0003
10908SOL     OW33301   6.581   6.417   8.725 -0.3913  0.5910 -0.5053
10908SOL    HW133302   6.499   6.457   8.694 -0.0343  2.7738  1.1429
10908SOL    HW233303   6.560   6.384   8.813  0.2072  0.0564 -0.5553
10909SOL     OW33304   7.450   3.614   9.503  0.7159  0.3122 -0.4364
10909SOL    HW133305   7.512   3.572   9.443 -0.5321 -1.5381 -0.5052
10909SOL    HW233306   7.369   3.622   9.452 -0.2169 -0.8152  0.8119
10910SOL     OW33307   6.303   8.124   4.876 -0.3108  0.4132  0.3459
10910SOL    HW133308   6.263   8.201   4.834 -0.6162 -0.3801 -0.8721
10910SOL    HW233309   6.341   8.075   4.803  0.8746 -0.0245  1.2340
10911SOL     OW33310   4.289   2.280   8.347  0.2613  0.3817  0.6742
10911SOL    HW133311   4.367   2.257   8.297 -0.9337 -0.7247 -0.7496
10911SOL    HW233312   4.301   2.237   8.432  1.1752  0.1849  0.4519
10912SOL     OW33313   4.483   7.222   4.222  0.1389  0.0414 -0.1738
10912SOL    HW133314   4.454   7.270   4.144  0.1439  1.0674  0.4306
10912SOL    HW233315   4.402   7.195   4.264  0.1375 -1.2366 -0.9366
10913SOL     OW33316   0.542   2.165   1.335  0.2252 -0.6754 -0.3425
10913SOL    HW133317   0.562   2.073   1.319  0.4358 -0.7563  0.3523
10913SOL    HW233318   0.447   2.171   1.327  0.2844 -0.7979 -1.1566
10914SOL     OW33319   4.344   8.471   1.979  0.2619 -0.6605 -0.1799
10914SOL    HW133320   4.291   8.489   2.057 -0.1845 -0.3112 -0.5561
10914SOL    HW233321   4.428   8.513   1.998 -0.1484  0.2379 -0.2602
10915SOL     OW33322   9.855   7.360   0.694 -0.0574 -0.5694 -0.1612
10915SOL    HW133323   9.823   7.450   0.701  0.7216 -0.3978  1.9632
10915SOL    HW233324   9.883   7.351   0.603  0.1706  1.4682 -0.3333
10916SOL     OW33325   5.229   5.137   4.763  0.0018 -0.6802  0.0955
10916SOL    HW133326   5.179   5.067   4.723 -0.2077 -0.0947 -0.6936
10916SOL    HW233327   5.162   5.200   4.791  0.1129 -1.2398  1.7192
10917SOL     OW33328   4.564   1.295   6.210  0.2961  0.5794 -0.0713
10917SOL    HW133329   4.577   1.231   6.140 -1.0810  0.7943 -0.5550
10917SOL    HW233330   4.549   1.242   6.288  0.8783  0.3330 -0.1209
10918SOL     OW33331   8.912   6.047   5.282  0.3234 -0.3175  0.5816
10918SOL    HW133332   9.006   6.032   5.268  0.1630 -0.3586 -0.5713
10918SOL    HW233333   8.870   5.969   5.246 -0.1692 -0.2078  0.9078
10919SOL     OW33334   3.176   6.308   7.950  0.1321 -0.4856 -0.6025
10919SOL    HW133335   3.167   6.234   8.011 -1.4813  0.3235  0.1936
10919SOL    HW233336   3.102   6.298   7.889 -0.2454  0.5847 -0.3430
10920SOL     OW33337   4.286   4.982   0.837 -0.1211  0.9280  0.3240
10920SOL    HW133338   4.237   4.950   0.913 -1.6582  1.0400 -0.5790
10920SOL    HW233339   4.327   4.905   0.800  0.3344  0.8148  1.0368
10921SOL     OW33340   1.648   0.981   5.246 -0.3087 -0.5654  0.2775
10921SOL    HW133341   1.731   0.964   5.201 -0.2090 -0.0495  0.2614
10921SOL    HW233342   1.591   1.018   5.179 -0.5923 -1.0387  0.2593
10922SOL     OW33343   1.365   8.504   3.108  0.2312  0.1181  0.2593
10922SOL    HW133344   1.305   8.577   3.128  0.1749  0.9412 -2.4336
10922SOL    HW233345   1.450   8.546   3.097  0.6251 -0.5439  0.7695
10923SOL     OW33346   5.647   1.474   0.283  0.3938  0.2311 -0.2497
10923SOL    HW133347   5.725   1.424   0.258  0.1007 -0.3368 -0.0434
10923SOL    HW233348   5.682   1.549   0.332  0.8781  0.6053 -1.1517
10924SOL     OW33349   8.260   8.980   4.258 -0.2482 -0.2338  0.5679
10924SOL    HW133350   8.210   9.045   4.209 -0.8959  0.9566  2.6469
10924SOL    HW233351   8.205   8.901   4.256 -0.6183  0.0282  0.0478
10925SOL     OW33352   2.097   2.859   3.396 -0.2465  0.0212 -0.2431
10925SOL    HW133353   2.073   2.946   3.430 -1.6915 -0.9706  1.4172
10925SOL    HW233354   2.034   2.800   3.435  3.3804 -2.5133  2.5096
10926SOL     OW33355   8.614   7.391   1.374  0.3770  0.3672  0.0162
10926SOL    HW133356   8.586   7.461   1.433  1.4542  1.1167 -0.3262
10926SOL    HW233357   8.685   7.347   1.422  0.5563  0.3209 -0.2926
10927SOL     OW33358   1.468   9.057   8.605 -0.2866  0.1088 -0.1753
10927SOL    HW133359   1.561   9.057   8.582 -0.4271  0.0364 -0.7675
10927SOL    HW233360   1.465   9.025   8.695  0.2197 -0.4391 -0.3470
10928SOL     OW33361   4.022   3.114   5.437 -0.0864  0.2082  0.5389
10928SOL    HW133362   4.063   3.189   5.394 -0.0759  0.2525  0.6271
10928SOL    HW233363   4.068   3.104   5.520  1.2493 -1.1103 -0.3068
10929SOL     OW33364   1.582   0.626   0.436 -0.2393  0.3358 -0.3259
10929SOL    HW133365   1.653   0.593   0.491  0.0469 -0.6309 -1.2582
10929SOL    HW233366   1.504   0.580   0.467 -0.5346  1.5586  0.8457
10930SOL     OW33367   5.790   8.127   9.472  0.1286 -0.7452 -0.0171
10930SOL    HW133368   5.769   8.096   9.384  0.3450  0.5799 -0.5556
10930SOL    HW233369   5.812   8.047   9.520 -1.5483 -1.6919 -0.6999
10931SOL     OW33370   7.505   4.846   1.139 -1.1366  0.3261  0.0505
10931SOL    HW133371   7.457   4.838   1.222 -1.8605 -0.5397 -0.4296
10931SOL    HW233372   7.583   4.791   1.151 -0.6692  1.0780  0.5379
10932SOL     OW33373   0.854   7.279   2.088 -0.6920  0.5811  0.1293
10932SOL    HW133374   0.896   7.311   2.008 -2.7832  1.8286 -0.5455
10932SOL    HW233375   0.910   7.207   2.117 -0.1447 -0.3054 -2.7746
10933SOL     OW33376   6.023   2.698   2.743 -0.0990  0.6549 -0.5383
10933SOL    HW133377   6.052   2.620   2.696  2.9251  1.6154 -0.4870
10933SOL    HW233378   6.043   2.770   2.683 -0.5619  1.5847  0.3901
10934SOL     OW33379   6.643   2.198   0.378 -0.1204  0.5487 -0.6248
10934SOL    HW133380   6.706   2.149   0.325 -0.1958 -1.1248  0.7654
10934SOL    HW233381   6.566   2.142   0.381  0.1600  0.1799  1.8917
10935SOL     OW33382   0.424   6.462   0.393 -0.1768  0.4719 -0.3082
10935SOL    HW133383   0.411   6.410   0.472  1.7979  0.4754  0.0884
10935SOL    HW233384   0.337   6.493   0.369 -0.8063  0.6851  2.0074
10936SOL     OW33385   5.833   2.582   1.999  0.2935  0.1136  0.3223
10936SOL    HW133386   5.764   2.620   2.053  0.6679  2.3863 -0.7030
10936SOL    HW233387   5.793   2.568   1.914  0.4308 -0.9612  0.4215
10937SOL     OW33388   2.055   5.280   1.497  0.0250 -0.2091 -0.5765
10937SOL    HW133389   2.080   5.252   1.585  1.2347 -0.0777 -0.8579
10937SOL    HW233390   1.976   5.333   1.510  0.8008  0.7187  0.5649
10938SOL     OW33391   6.380   3.797   9.559  0.1442  0.4186 -0.0905
10938SOL    HW133392   6.444   3.784   9.489 -0.6307 -0.9390 -0.5848
10938SOL    HW233393   6.417   3.868   9.612  3.0837 -1.5320  0.7700
10939SOL     OW33394   9.031   1.780   2.554  0.3348  0.9947  0.3067
10939SOL    HW133395   8.997   1.691   2.543  0.4548  0.8973  0.7085
10939SOL    HW233396   9.051   1.808   2.465 -0.3752  0.8895  0.0992
10940SOL     OW33397   7.806   5.700   3.722  0.0329 -0.8225  0.0430
10940SOL    HW133398   7.798   5.723   3.629  3.0366 -0.3865 -0.1958
10940SOL    HW233399   7.742   5.757   3.766  0.0480  0.5058 -1.5519
10941SOL     OW33400   1.668   6.313   8.249  0.6234  0.3864 -0.0344
10941SOL    HW133401   1.649   6.328   8.342 -0.6061 -1.8950  0.1748
10941SOL    HW233402   1.600   6.361   8.203 -0.0435 -0.1469  0.3659
10942SOL     OW33403   3.521   0.792   3.210  0.2068 -0.5056 -0.3343
10942SOL    HW133404   3.447   0.810   3.152 -1.0265  0.7185  1.5310
10942SOL    HW233405   3.506   0.702   3.239 -0.1339 -0.5244 -0.5531
10943SOL     OW33406   2.505   9.408   4.190  0.1051 -0.5730  0.2040
10943SOL    HW133407   2.415   9.440   4.191  0.7752  1.6665 -1.7961
10943SOL    HW233408   2.513   9.360   4.108  0.7615 -0.6120  0.2834
10944SOL     OW33409   0.953   8.292   1.293 -0.1612  0.2449 -0.3886
10944SOL    HW133410   1.027   8.294   1.354 -1.0649 -0.7876  0.8032
10944SOL    HW233411   0.928   8.384   1.283  1.2331  0.5995 -0.7638
10945SOL     OW33412   8.949   4.203   4.688  0.0577 -0.5560  0.7225
10945SOL    HW133413   8.935   4.253   4.607  0.9592 -0.6775  0.4764
10945SOL    HW233414   9.037   4.228   4.716  0.3409 -1.6421  0.8527
10946SOL     OW33415   6.216   0.024   5.563 -0.5479  0.1197  0.5107
10946SOL    HW133416   6.272   0.013   5.486 -0.6627 -0.3181  0.4842
10946SOL    HW233417   6.273   0.002   5.637  0.3580  3.0914  0.8120
10947SOL     OW33418   8.559   1.463   4.733 -0.7556  0.3154 -0.2709
10947SOL    HW133419   8.611   1.542   4.748 -2.5806  2.0813 -2.5217
10947SOL    HW233420   8.573   1.441   4.641 -2.1475 -0.5383 -0.3209
10948SOL     OW33421   5.834   7.480   9.080 -0.1251  0.4832 -0.1548
10948SOL    HW133422   5.923   7.446   9.074  0.1371  1.2878 -1.0289
10948SOL    HW233423   5.782   7.406   9.112  0.5967 -0.4322 -1.0395
10949SOL     OW33424   5.176   6.769   0.548  0.2704 -0.2282 -0.2633
10949SOL    HW133425   5.200   6.850   0.503  0.6964  0.8109  1.7329
10949SOL    HW233426   5.235   6.764   0.622 -0.9253 -1.4550  0.6644
10950SOL     OW33427   3.117   4.405   6.177  0.2352  0.3903 -0.0691
10950SOL    HW133428   3.115   4.397   6.081 -0.1920 -1.8877  0.0773
10950SOL    HW233429   3.209   4.403   6.200  0.3262  0.6441 -0.3965
10951SOL     OW33430   3.074   4.884   1.286  0.2619  0.1235  0.8725
10951SOL    HW133431   3.106   4.922   1.368 -0.1988 -1.0552  1.6195
10951SOL    HW233432   3.000   4.829   1.312  0.9809 -1.3919 -0.1307
10952SOL     OW33433   4.937   9.027   1.613 -0.1509  0.3343  0.0144
10952SOL    HW133434   5.020   9.068   1.639  0.2084 -0.6105  0.4082
10952SOL    HW233435   4.963   8.945   1.571 -0.8971 -0.2322  0.6254
10953SOL     OW33436   4.399   6.447   6.506  0.2021  0.2131 -0.3594
10953SOL    HW133437   4.339   6.517   6.482 -0.0455 -0.7383 -2.7485
10953SOL    HW233438   4.343   6.379   6.543  0.6096  1.7879  3.7084
10954SOL     OW33439   3.993   4.301   1.167  0.1427 -0.4716  0.0393
10954SOL    HW133440   4.002   4.241   1.242  0.9455 -1.6165 -0.9401
10954SOL    HW233441   4.031   4.253   1.093 -0.1381  0.8535 -0.9991
10955SOL     OW33442   5.005   0.697   0.685 -0.5016  0.3536  0.2590
10955SOL    HW133443   5.035   0.784   0.660 -0.3829  0.4487  0.7056
10955SOL    HW233444   5.005   0.647   0.604 -0.5025  0.7498  0.0115
10956SOL     OW33445   5.587   9.812   2.764 -0.2095  0.3540  0.1284
10956SOL    HW133446   5.597   9.729   2.719  0.1039  0.5535 -0.1767
10956SOL    HW233447   5.627   9.798   2.850 -1.1450 -0.1395  0.4948
10957SOL     OW33448   6.378   0.459   9.895 -0.1572 -0.0878  0.1144
10957SOL    HW133449   6.412   0.434   9.981  0.0296  2.5216  0.8755
10957SOL    HW233450   6.434   0.530   9.867 -1.1549  0.1112 -1.4918
10958SOL     OW33451   4.602   6.685   2.926  0.1542  0.5909  0.0395
10958SOL    HW133452   4.571   6.628   2.996  1.2663  1.9332  1.7411
10958SOL    HW233453   4.525   6.734   2.898 -0.4264 -0.4033 -0.1060
10959SOL     OW33454   0.409   4.232   6.967  0.1759  0.3266  0.5045
10959SOL    HW133455   0.382   4.143   6.987  1.8783 -0.4718 -0.5469
10959SOL    HW233456   0.394   4.241   6.873  1.0007  0.7819  0.4042
10960SOL     OW33457   3.387   3.785   8.025 -0.4753  0.1490 -0.2845
10960SOL    HW133458   3.413   3.868   8.065  0.2696  0.3015 -1.0668
10960SOL    HW233459   3.330   3.744   8.091 -0.3736  1.0020  0.3560
10961SOL     OW33460   3.128   4.998   2.734 -0.4429  0.1055  0.4484
10961SOL    HW133461   3.065   5.009   2.805 -2.0779  2.1152 -1.2079
10961SOL    HW233462   3.083   5.028   2.656  1.9985 -0.0371 -1.1362
10962SOL     OW33463   9.468   5.472   8.035 -0.1704 -0.1244  0.1583
10962SOL    HW133464   9.404   5.433   8.094 -1.6772  1.4635 -0.3615
10962SOL    HW233465   9.551   5.464   8.081 -0.7247 -2.0299  0.9552
10963SOL     OW33466   1.715   9.457   7.809 -0.1694  0.0568 -0.0832
10963SOL    HW133467   1.652   9.528   7.824 -0.6554 -0.1610 -1.0344
10963SOL    HW233468   1.721   9.413   7.894 -0.0937  1.0330  0.4427
10964SOL     OW33469   7.907   6.104   2.867 -0.2317 -0.0535  0.6751
10964SOL    HW133470   7.942   6.042   2.931 -1.2657 -1.8488 -0.4136
10964SOL    HW233471   7.815   6.078   2.856 -0.1673  0.3814 -1.3068
10965SOL     OW33472   2.981   0.178   8.236  0.0107 -0.2861 -0.0864
10965SOL    HW133473   3.023   0.226   8.164  0.0673  0.3939  0.3857
10965SOL    HW233474   3.037   0.102   8.250  2.2105  1.5076  1.7298
10966SOL     OW33475   2.359   8.873   1.510  0.0158  0.4648 -0.8282
10966SOL    HW133476   2.289   8.926   1.472 -0.4244  1.8054  1.6540
10966SOL    HW233477   2.415   8.935   1.556  1.0465 -0.9284 -0.1073
10967SOL     OW33478   4.676   2.195   2.756 -0.4566  0.1695  0.2373
10967SOL    HW133479   4.728   2.238   2.689 -1.7313  0.4407 -0.6075
10967SOL    HW233480   4.698   2.102   2.748 -0.6894  0.1852 -0.6438
10968SOL     OW33481   4.688   2.019   3.315 -0.3097  0.0735  0.4299
10968SOL    HW133482   4.761   2.016   3.253  0.8820  2.0260  1.6386
10968SOL    HW233483   4.713   1.959   3.385 -0.4472 -0.1481  0.2940
10969SOL     OW33484   2.921   9.552   2.340 -0.0786 -0.3898  0.5428
10969SOL    HW133485   2.984   9.593   2.399 -0.9183  1.4964  0.2130
10969SOL    HW233486   2.870   9.493   2.396 -1.0177  1.5331  1.8132
10970SOL     OW33487   7.025   0.474   5.986  0.1949 -0.7003  0.0050
10970SOL    HW133488   6.945   0.464   6.039  0.2864  1.1185  0.5535
10970SOL    HW233489   7.008   0.551   5.932  2.4287  1.2588  1.8600
10971SOL     OW33490   6.602  10.000   1.457  0.3519 -0.1131 -0.1461
10971SOL    HW133491   6.610   9.935   1.527  0.8348 -0.3164 -0.3784
10971SOL    HW233492   6.684   9.992   1.408  0.2925  0.4744 -0.3516
10972SOL     OW33493   9.381   8.914   4.365 -0.4184 -0.3961 -0.4557
10972SOL    HW133494   9.322   8.849   4.404 -0.6674  0.9412  1.5025
10972SOL    HW233495   9.414   8.964   4.439 -0.4182  1.8830 -1.9175
10973SOL     OW33496   0.237   8.799   6.214  0.1567  0.1186  0.5308
10973SOL    HW133497   0.270   8.869   6.270  0.4633 -0.3738  0.9696
10973SOL    HW233498   0.309   8.781   6.153 -1.3306  3.0569 -2.4217
10974SOL     OW33499   2.197   8.767   2.315 -0.0714 -0.4537  0.1705
10974SOL    HW133500   2.213   8.694   2.375 -0.6762  1.2431  2.5684
10974SOL    HW233501   2.101   8.776   2.313  0.0111  0.7148  0.5506
10975SOL     OW33502   7.247   0.895   3.867 -0.2457  0.5730  0.3223
10975SOL    HW133503   7.332   0.883   3.910  0.3895 -0.2573 -1.0906
10975SOL    HW233504   7.189   0.833   3.911 -0.0604  0.9214  1.0851
10976SOL     OW33505   3.310   7.827   1.277 -0.3266 -0.2180  0.4227
10976SOL    HW133506   3.392   7.850   1.234 -0.1730 -0.1472  0.7510
10976SOL    HW233507   3.269   7.764   1.218  0.2630 -0.7507  0.5720
10977SOL     OW33508   6.556   5.151   3.321 -0.1641 -0.2543  0.8109
10977SOL    HW133509   6.467   5.187   3.326 -0.5883 -1.3444  1.7110
10977SOL    HW233510   6.568   5.107   3.405  0.8696 -0.9290  0.3300
10978SOL     OW33511   3.374   9.732   7.214  0.1875  0.3306  0.4539
10978SOL    HW133512   3.466   9.756   7.228 -0.0677  1.3957  0.4296
10978SOL    HW233513   3.362   9.737   7.119  0.0971  0.1964  0.4576
10979SOL     OW33514   9.085   0.494   3.043  0.5022  0.5789  0.5770
10979SOL    HW133515   9.010   0.532   2.998  0.6313 -0.3793 -0.5028
10979SOL    HW233516   9.047   0.431   3.103  0.4305 -0.0927 -0.1532
10980SOL     OW33517   7.925   3.656   9.310  0.6339 -0.4582  0.2372
10980SOL    HW133518   7.839   3.688   9.284  1.2408  0.3814 -0.8660
10980SOL    HW233519   7.962   3.727   9.363  0.6694 -0.7979  0.6730
10981SOL     OW33520   6.424   2.172   8.328 -0.3593  0.4603 -0.0095
10981SOL    HW133521   6.406   2.093   8.277  1.2409  0.6151 -0.8859
10981SOL    HW233522   6.478   2.141   8.401 -0.0009  0.6850 -0.1758
10982SOL     OW33523   3.933   3.888   3.323 -0.0483 -0.3544  0.5024
10982SOL    HW133524   3.936   3.910   3.230  1.2040  1.3225  0.9064
10982SOL    HW233525   4.009   3.831   3.336 -1.2823 -2.1711  0.1755
10983SOL     OW33526   1.992   6.754   8.774 -0.0164 -0.1596 -0.2724
10983SOL    HW133527   1.910   6.781   8.731 -0.0889  0.9079  0.4963
10983SOL    HW233528   1.978   6.774   8.867  1.0750 -0.0956 -0.1120
10984SOL     OW33529   0.210   8.132   3.507 -0.2102  0.3399  0.3186
10984SOL    HW133530   0.260   8.208   3.536  0.2408 -0.5813  2.0770
10984SOL    HW233531   0.186   8.087   3.588 -2.6803 -0.0272 -0.5282
10985SOL     OW33532   8.377   2.605   2.961 -0.0471 -0.3885  0.5483
10985SOL    HW133533   8.298   2.641   2.919 -0.4040 -1.8305 -0.1093
10985SOL    HW233534   8.449   2.637   2.907 -0.4099 -1.1914 -0.4575
10986SOL     OW33535   5.406   1.284   4.152 -0.3408 -0.1734 -0.4276
10986SOL    HW133536   5.333   1.244   4.198  0.0990 -0.1581  0.2951
10986SOL    HW233537   5.437   1.217   4.092  0.9292 -1.2567  1.3660
10987SOL     OW33538   9.984   3.163   7.944  0.1773 -0.0361 -0.3321
10987SOL    HW133539   9.952   3.134   8.030 -0.1846 -0.4186 -0.5951
10987SOL    HW233540   9.908   3.203   7.902 -0.1008 -1.3814 -1.1485
10988SOL     OW33541   9.521   9.538   8.463  0.2966  0.4524  0.2865
10988SOL    HW133542   9.515   9.454   8.509  1.4247 -0.2972 -0.8620
10988SOL    HW233543   9.431   9.559   8.440  0.1676 -1.7233 -1.5659
10989SOL     OW33544   3.001   4.551   5.411 -0.5841  0.0507  0.1236
10989SOL    HW133545   2.999   4.525   5.319  0.2614  0.7186 -0.1017
10989SOL    HW233546   3.089   4.586   5.424 -0.9648  0.7393  0.9700
10990SOL     OW33547   3.003   4.467   8.848  0.5043  0.2091  0.0833
10990SOL    HW133548   3.087   4.444   8.808  1.1362  0.0931  1.4210
10990SOL    HW233549   3.027   4.506   8.933 -0.5858  3.7770 -1.0727
10991SOL     OW33550   7.762   8.707   0.709 -0.7521 -0.2684  0.0183
10991SOL    HW133551   7.717   8.789   0.729 -3.2909 -1.1956 -1.4489
10991SOL    HW233552   7.714   8.640   0.758 -1.7981 -1.4337 -2.4117
10992SOL     OW33553   7.888   0.380   4.655 -0.4653  0.5731  0.4978
10992SOL    HW133554   7.807   0.416   4.619 -0.4296 -1.0892 -1.4832
10992SOL    HW233555   7.929   0.453   4.701 -2.0377  2.0429 -0.3159
10993SOL     OW33556   7.600   8.004   8.674 -0.1385  0.0485  0.7151
10993SOL    HW133557   7.514   8.039   8.698 -0.7712 -0.6758 -0.3976
10993SOL    HW233558   7.583   7.913   8.650  1.0028 -0.1953  0.7647
10994SOL     OW33559   4.570   1.251   9.341 -0.1745 -0.1243  0.4109
10994SOL    HW133560   4.571   1.155   9.337 -1.0075 -0.1295  0.2644
10994SOL    HW233561   4.499   1.277   9.283  1.3646  0.6913 -1.2077
10995SOL     OW33562   3.825   6.374   4.093 -0.1511  0.3031  0.5508
10995SOL    HW133563   3.843   6.351   4.184 -0.4507 -0.3793  0.4437
10995SOL    HW233564   3.735   6.406   4.093 -1.0905 -2.0873  0.1243
10996SOL     OW33565   1.440   9.735   9.942  0.7296  0.3019  0.1433
10996SOL    HW133566   1.466   9.683   9.867 -1.6646 -0.2354 -0.4166
10996SOL    HW233567   1.476   9.822   9.925  0.6852  0.0470 -1.3752
10997SOL     OW33568   0.808   9.021   4.010 -0.8074 -0.3285  0.1445
10997SOL    HW133569   0.834   8.929   4.005  0.7311  0.0757  0.0507
10997SOL    HW233570   0.801   9.049   3.918 -1.7899 -0.4713  0.1660
10998SOL     OW33571   1.934   1.952   6.044 -0.3048  0.3850  0.0302
10998SOL    HW133572   1.925   1.891   6.117 -0.2026 -1.0844 -1.1317
10998SOL    HW233573   1.896   1.905   5.970 -0.7474  1.9878 -0.7945
10999SOL     OW33574   7.702   9.235   5.971 -0.0043  0.1350  0.0679
10999SOL    HW133575   7.704   9.270   5.882 -0.6855 -0.1626 -0.0657
10999SOL    HW233576   7.612   9.245   5.999  0.4869  1.4899  1.2524
11000SOL     OW33577   1.854   0.374   6.018  0.0732 -0.1730  0.4142
11000SOL    HW133578   1.833   0.465   6.036  2.2532  0.4673  0.0723
11000SOL    HW233579   1.894   0.342   6.100 -1.4713 -1.1252  0.8389
11001SOL     OW33580   8.435   2.951   5.465  0.7215  0.1852  0.0084
11001SOL    HW133581   8.367   2.947   5.398 -1.1383  0.9654  1.7427
11001SOL    HW233582   8.425   2.870   5.515  0.7098  0.5620  0.6196
11002SOL     OW33583   6.916   0.489   7.707 -0.0965  0.0483  0.6450
11002SOL    HW133584   6.888   0.405   7.744  0.7976 -0.2533  0.6663
11002SOL    HW233585   6.884   0.555   7.769 -1.6776 -0.1903  0.1191
11003SOL     OW33586   1.764   6.172   6.356  0.2386  0.1962  0.4898
11003SOL    HW133587   1.735   6.154   6.446  1.5435  1.3549  1.1882
11003SOL    HW233588   1.713   6.111   6.302 -0.8095 -0.3148  1.9702
11004SOL     OW33589   2.258   4.933   5.901 -0.3686 -0.0562  0.0889
11004SOL    HW133590   2.251   4.885   5.983 -4.0025 -0.8423 -0.4929
11004SOL    HW233591   2.236   4.868   5.834  0.7364  1.0071 -1.3637
11005SOL     OW33592   8.159   8.837   8.705  0.0949  0.1642  0.2677
11005SOL    HW133593   8.118   8.778   8.769  1.1047 -0.3399  0.4690
11005SOL    HW233594   8.128   8.805   8.621 -0.1607 -0.0268  0.4323
11006SOL     OW33595   1.651   2.100   6.752  0.2964  0.2399  0.2051
11006SOL    HW133596   1.743   2.074   6.754  0.0229 -0.8257 -0.6440
11006SOL    HW233597   1.636   2.129   6.662  0.2060  1.9938  0.7490
11007SOL     OW33598   0.530   6.068   9.521 -0.3086 -0.0779 -0.0553
11007SOL    HW133599   0.562   6.095   9.607 -0.0842  0.3810 -0.2824
11007SOL    HW233600   0.568   5.981   9.507 -0.6409 -0.3083  0.4638
11008SOL     OW33601   9.798   3.865   0.154  0.5300  0.0808  0.2552
11008SOL    HW133602   9.882   3.868   0.201  0.9175 -0.1219 -0.4058
11008SOL    HW233603   9.732   3.858   0.223  1.0634  0.1370  0.7823
11009SOL     OW33604   8.027   6.902   4.266 -0.2173  0.2660 -0.0673
11009SOL    HW133605   8.066   6.989   4.263 -1.4767  0.8343 -0.4504
11009SOL    HW233606   8.094   6.844   4.228  0.4699  1.1131 -0.1727
11010SOL     OW33607   9.112   0.292   7.745 -0.0340  0.6734 -0.2966
11010SOL    HW133608   9.033   0.329   7.785 -0.2800  0.3392 -0.4686
11010SOL    HW233609   9.133   0.353   7.673  0.0854  0.9672 -0.0144
11011SOL     OW33610   7.545   5.723   3.899 -0.1370  0.2638 -0.2100
11011SOL    HW133611   7.489   5.646   3.900  1.4204 -0.9865 -1.8429
11011SOL    HW233612   7.630   5.691   3.928  0.5058  1.3824 -0.7777
11012SOL     OW33613   5.254   4.892   5.448 -0.2008  0.4751 -0.3054
11012SOL    HW133614   5.293   4.908   5.362 -0.5776  0.4743 -0.4787
11012SOL    HW233615   5.328   4.896   5.509  0.0985  0.2850 -0.6491
11013SOL     OW33616   6.877   9.837   4.125  0.4613  0.7081  0.3264
11013SOL    HW133617   6.797   9.882   4.152  1.1594  1.5389  1.0827
11013SOL    HW233618   6.855   9.744   4.128 -0.5023  0.9296  0.4078
11014SOL     OW33619   5.068   6.736   5.870  0.4765 -0.7004 -0.4554
11014SOL    HW133620   5.092   6.677   5.799 -0.9037 -0.8233 -0.8595
11014SOL    HW233621   4.973   6.726   5.878  0.5124 -0.1458  0.9240
11015SOL     OW33622   4.044   8.348   9.511 -0.5654 -0.9069 -0.2260
11015SOL    HW133623   3.984   8.422   9.500 -0.1086 -0.4122  0.5629
11015SOL    HW233624   4.049   8.308   9.423 -0.3007  0.3834 -0.8159
11016SOL     OW33625   4.746   0.197   1.066  0.0033  0.3367 -0.5615
11016SOL    HW133626   4.785   0.239   0.989 -2.5479  2.5499 -0.8035
11016SOL    HW233627   4.708   0.269   1.116 -2.4569 -1.4156  0.3280
11017SOL     OW33628   2.026   3.904   1.758 -0.2946 -0.2199 -0.4513
11017SOL    HW133629   2.097   3.911   1.822  0.9479  1.3167 -1.9014
11017SOL    HW233630   2.031   3.814   1.726 -0.5150 -0.8146  1.0536
11018SOL     OW33631   2.805   8.333   0.135 -0.3842  0.5472  0.3597
11018SOL    HW133632   2.895   8.349   0.104 -0.6649  2.0895  0.2740
11018SOL    HW233633   2.769   8.420   0.148 -1.2381 -0.0590  2.2957
11019SOL     OW33634   1.581   3.583   2.552 -0.1651 -1.0043  0.0451
11019SOL    HW133635   1.517   3.644   2.589  1.7408  1.0063  0.2460
11019SOL    HW233636   1.530   3.507   2.526 -2.5881  0.4274  0.3519
11020SOL     OW33637   6.656   7.345   4.061  0.4786 -0.0187 -0.0506
11020SOL    HW133638   6.623   7.434   4.073  1.0747  0.5368 -2.1502
11020SOL    HW233639   6.584   7.298   4.019  1.2520  0.4257 -1.9958
11021SOL     OW33640   7.690   4.490   4.819 -0.0395  0.1036  0.1579
11021SOL    HW133641   7.722   4.507   4.730  0.7977 -1.4910  0.1169
11021SOL    HW233642   7.734   4.554   4.874  0.7484  0.0211 -0.3647
11022SOL     OW33643   2.169   3.774   0.259  0.0731  0.5590  0.3106
11022SOL    HW133644   2.128   3.793   0.174 -0.6307  0.8168  0.7014
11022SOL    HW233645   2.262   3.764   0.238 -0.3673 -1.6963 -0.8715
11023SOL     OW33646   2.570   7.968   0.835  0.4246  0.2812 -0.0741
11023SOL    HW133647   2.620   8.036   0.881 -0.7963  1.2922 -0.1978
11023SOL    HW233648   2.524   8.015   0.765 -1.8762 -0.3186  0.9591
11024SOL     OW33649   7.426   4.377   4.080 -0.3902 -0.2623  0.1803
11024SOL    HW133650   7.406   4.454   4.133  0.2683  1.7572 -2.2989
11024SOL    HW233651   7.341   4.339   4.060 -0.9504  1.1572 -0.3254
11025SOL     OW33652   1.542   0.591   9.017  0.0172  0.1838 -0.3242
11025SOL    HW133653   1.484   0.620   9.089  1.3373  1.4240  0.2846
11025SOL    HW233654   1.507   0.634   8.940 -0.9675 -0.5660 -0.3242
11026SOL     OW33655   9.714   3.938   1.822  0.3530  0.6289 -0.1840
11026SOL    HW133656   9.749   3.896   1.743 -0.4656 -0.6501  0.0991
11026SOL    HW233657   9.771   4.014   1.836  0.1631  1.2457 -2.3370
11027SOL     OW33658   0.266   4.666   4.099 -0.1937 -0.8143  0.2899
11027SOL    HW133659   0.178   4.647   4.132  0.2258 -1.4097  1.0933
11027SOL    HW233660   0.319   4.677   4.177  0.2247  0.7238 -0.1767
11028SOL     OW33661   6.806   0.439   6.145 -0.4885  0.6098 -0.0128
11028SOL    HW133662   6.836   0.374   6.208  0.7434  0.7124 -0.4740
11028SOL    HW233663   6.796   0.519   6.196 -0.6889  0.3946  0.2884
11029SOL     OW33664   1.198   4.583   4.332 -0.4607  0.4937 -0.6546
11029SOL    HW133665   1.233   4.578   4.420  0.8242 -0.7040 -1.1901
11029SOL    HW233666   1.237   4.662   4.295  0.3013  0.1240 -0.6632
11030SOL     OW33667   0.199   4.844   2.966 -0.4712 -0.1690 -0.2204
11030SOL    HW133668   0.133   4.779   2.944  0.2077 -0.8898 -0.1797
11030SOL    HW233669   0.167   4.926   2.926 -0.6283 -0.8384 -1.5305
11031SOL     OW33670   8.187   3.563   1.414  0.2600  0.0022  0.4216
11031SOL    HW133671   8.150   3.643   1.378  0.4042 -1.2753 -2.8976
11031SOL    HW233672   8.113   3.519   1.457 -0.8329  0.0253 -1.3516
11032SOL     OW33673   0.277   4.669   0.952 -0.3250 -0.5617  0.1863
11032SOL    HW133674   0.339   4.613   0.905  0.6424  0.1429  0.5974
11032SOL    HW233675   0.253   4.736   0.888 -0.1961 -0.4916  0.2105
11033SOL     OW33676   8.795   5.717   5.634  0.0121  0.0103 -0.2515
11033SOL    HW133677   8.738   5.699   5.709 -0.6187  0.1743 -0.6820
11033SOL    HW233678   8.786   5.811   5.619  2.1494  0.4969  1.0685
11034SOL     OW33679   7.679   9.831   6.421 -0.3139 -0.4672 -0.4196
11034SOL    HW133680   7.635   9.915   6.435  2.4047  0.7247  2.0897
11034SOL    HW233681   7.724   9.841   6.338 -0.5957  0.2926 -0.4892
11035SOL     OW33682   7.622   0.744   2.443 -0.3469 -0.2689 -0.2514
11035SOL    HW133683   7.641   0.737   2.536 -0.6912 -0.1884 -0.1718
11035SOL    HW233684   7.703   0.719   2.399 -0.8473 -2.5322  0.0311
11036SOL     OW33685   2.577   4.105   7.595  0.0644  0.2750 -0.5463
11036SOL    HW133686   2.616   4.025   7.560  0.2116 -0.4719  1.1794
11036SOL    HW233687   2.504   4.125   7.536 -0.2963 -1.4424 -0.7389
11037SOL     OW33688   5.171   9.282   7.931 -0.2620 -0.1058  0.7124
11037SOL    HW133689   5.139   9.338   7.861 -1.0532  0.6798  1.6583
11037SOL    HW233690   5.121   9.309   8.008  0.9202 -0.6042  1.6950
11038SOL     OW33691   7.667   2.606   9.783  0.0642  0.1709  0.3093
11038SOL    HW133692   7.700   2.536   9.838  0.5394  0.8868  0.9617
11038SOL    HW233693   7.652   2.565   9.698  1.9161 -0.3490  0.1984
11039SOL     OW33694   4.713   7.904   4.068  0.1193 -0.3128  0.4135
11039SOL    HW133695   4.676   7.822   4.035  1.3936 -0.4292 -0.7928
11039SOL    HW233696   4.677   7.972   4.010  0.9974 -0.3186 -0.1541
11040SOL     OW33697   8.697   6.363   7.291  0.2106 -0.4485 -0.2704
11040SOL    HW133698   8.729   6.275   7.311  0.0903 -0.9376 -2.0837
11040SOL    HW233699   8.690   6.366   7.195 -0.5900  1.2554 -0.2106
11041SOL     OW33700   5.411   8.939   6.645 -0.0204  0.2075 -0.3573
11041SOL    HW133701   5.456   8.862   6.681  0.8193  0.7853 -0.1448
11041SOL    HW233702   5.481   8.996   6.615 -0.6751  0.3300 -1.7226
11042SOL     OW33703   7.583   5.422   7.338 -0.1570  0.1629  0.0346
11042SOL    HW133704   7.542   5.463   7.413  2.1189 -1.7448  2.5219
11042SOL    HW233705   7.664   5.471   7.324 -0.5787  0.5385 -1.2736
11043SOL     OW33706   8.013   9.790   6.399 -0.8309  0.8784 -0.4040
11043SOL    HW133707   7.974   9.708   6.368  0.1481  0.4598 -0.5519
11043SOL    HW233708   7.991   9.793   6.492  0.0742 -0.1221 -0.1404
11044SOL     OW33709   0.671   3.549   4.547 -0.6998  0.7335  0.0620
11044SOL    HW133710   0.747   3.597   4.515 -0.0132 -0.3890 -0.0433
11044SOL    HW233711   0.680   3.550   4.642 -0.6344  0.7116  0.0555
11045SOL     OW33712   1.712   1.181   4.834  0.0477  0.0225  0.2374
11045SOL    HW133713   1.777   1.127   4.879 -0.8899 -1.9363 -0.6294
11045SOL    HW233714   1.720   1.157   4.742 -0.2084  1.6241 -0.2335
11046SOL     OW33715   7.125   6.614   2.647  0.1447 -0.1152 -0.1914
11046SOL    HW133716   7.133   6.531   2.600  1.3340  1.1062 -2.2888
11046SOL    HW233717   7.143   6.592   2.738  0.1612 -2.2006 -0.6581
11047SOL     OW33718   2.688   6.322   6.326  0.6650  0.0644 -0.4148
11047SOL    HW133719   2.626   6.392   6.345  1.8179  0.7951  0.7582
11047SOL    HW233720   2.681   6.309   6.231 -2.7717 -1.3288 -0.0943
11048SOL     OW33721   8.431   5.661   3.508 -0.1043 -0.1527 -0.6907
11048SOL    HW133722   8.374   5.737   3.495 -0.8185 -0.3669  0.9567
11048SOL    HW233723   8.513   5.698   3.543 -0.2007 -0.0813 -0.5414
11049SOL     OW33724   6.506   9.803   7.115 -0.1849  0.1282 -0.1149
11049SOL    HW133725   6.577   9.867   7.123 -0.8093  1.0108 -1.3429
11049SOL    HW233726   6.539   9.726   7.162  1.0994  0.9024  0.3311
11050SOL     OW33727   8.994   5.267   7.448 -0.3029  0.2543  0.5395
11050SOL    HW133728   8.950   5.295   7.367  0.4311  1.2898  0.4913
11050SOL    HW233729   9.003   5.172   7.438 -1.2766  0.2096 -0.0659
11051SOL     OW33730   3.513   3.645   9.427 -0.3033 -0.0776  0.1000
11051SOL    HW133731   3.439   3.680   9.478 -0.4482 -1.0040  0.5510
11051SOL    HW233732   3.570   3.605   9.493 -0.1041 -0.6036 -0.3818
11052SOL     OW33733   8.996   0.689   5.500  0.5602 -0.2415 -0.5363
11052SOL    HW133734   8.954   0.744   5.434  1.2275 -1.0386 -1.6741
11052SOL    HW233735   9.090   0.703   5.486  0.7268 -1.2405 -0.4995
11053SOL     OW33736   6.404   3.063   1.716 -0.2542 -0.1269 -0.4877
11053SOL    HW133737   6.392   2.968   1.718 -0.1884 -0.1283  1.1879
11053SOL    HW233738   6.317   3.099   1.734  0.1686  0.0520  1.3943
11054SOL     OW33739   3.238   8.139   4.712 -0.1360 -0.4219  0.1754
11054SOL    HW133740   3.222   8.044   4.711  1.8214 -0.7883 -0.7511
11054SOL    HW233741   3.153   8.177   4.735 -1.0284 -2.3788  0.3471
11055SOL     OW33742   6.668   1.088   0.561  0.3548  0.1616  0.1911
11055SOL    HW133743   6.683   0.994   0.561  0.5523  0.1873 -0.9843
11055SOL    HW233744   6.728   1.123   0.496 -0.6232  0.9431 -0.3357
11056SOL     OW33745   3.144   9.860   1.170  1.0352  0.3551  0.2401
11056SOL    HW133746   3.166   9.820   1.254  0.0960 -1.1141 -0.1874
11056SOL    HW233747   3.216   9.921   1.154  2.3589 -0.9015  1.0903
11057SOL     OW33748   8.344   4.480   6.346  0.4888  0.3126  0.1492
11057SOL    HW133749   8.322   4.414   6.281 -3.2092  0.7321  0.7515
11057SOL    HW233750   8.432   4.456   6.377  1.3390 -1.3264 -3.1181
11058SOL     OW33751   2.096   9.478   7.587  0.2366  0.1085  0.5517
11058SOL    HW133752   2.040   9.428   7.528  0.5676 -0.9538  1.1103
11058SOL    HW233753   2.129   9.550   7.533 -0.2566 -0.2651 -0.2756
11059SOL     OW33754   6.553   3.047   8.153 -0.5505  0.4841  0.2445
11059SOL    HW133755   6.622   2.980   8.150 -0.3163  0.7609 -1.0084
11059SOL    HW233756   6.553   3.076   8.244  2.2384  1.7321 -0.0555
11060SOL     OW33757   7.143   4.216   0.492 -0.2298 -0.0917  0.5618
11060SOL    HW133758   7.207   4.216   0.564 -0.2387 -1.6879  0.6209
11060SOL    HW233759   7.061   4.246   0.533  0.3821  1.6920  0.5474
11061SOL     OW33760   7.109   1.651   7.031  0.3606  0.0982 -0.0563
11061SOL    HW133761   7.159   1.570   7.035  0.6420  0.2496 -0.4040
11061SOL    HW233762   7.142   1.704   7.104  1.1871  0.4591 -0.6709
11062SOL     OW33763   6.789   5.167   6.210 -0.2396  0.2299 -0.6027
11062SOL    HW133764   6.785   5.158   6.115 -1.0248  1.1450 -0.6726
11062SOL    HW233765   6.703   5.138   6.240 -0.2585  0.6557 -0.2400
11063SOL     OW33766   1.577   5.169   4.522 -0.0881 -0.2544  0.1120
11063SOL    HW133767   1.490   5.183   4.558 -0.1678  0.9407 -0.4840
11063SOL    HW233768   1.630   5.140   4.596 -0.8686 -0.4925  0.5849
11064SOL     OW33769   8.210   9.279   0.601  0.7110  0.8269 -0.4600
11064SOL    HW133770   8.300   9.310   0.589  1.1782  1.7513  3.7309
11064SOL    HW233771   8.155   9.352   0.573  1.2448  0.6628 -2.0415
11065SOL     OW33772   4.211   7.376   1.766 -0.1353 -0.3917 -0.2535
11065SOL    HW133773   4.125   7.371   1.807 -0.4009  0.7935 -0.6341
11065SOL    HW233774   4.273   7.371   1.840 -0.5676  0.0026  0.1451
11066SOL     OW33775   1.714   5.320   6.894  0.2414  0.5442  0.1840
11066SOL    HW133776   1.802   5.291   6.917  0.3125  0.8570  0.3147
11066SOL    HW233777   1.663   5.305   6.973  0.0469 -0.1557 -0.0685
11067SOL     OW33778   8.671   8.691   5.351 -0.1599  0.2384  0.7764
11067SOL    HW133779   8.698   8.746   5.425 -0.9871 -0.2202  1.4305
11067SOL    HW233780   8.725   8.722   5.278  0.9724  0.4323  1.6534
11068SOL     OW33781   1.595   1.632   0.811 -0.0649 -0.6591  0.5146
11068SOL    HW133782   1.589   1.627   0.715  0.4025 -2.0317  0.5428
11068SOL    HW233783   1.667   1.693   0.827 -1.6679  1.4792  0.0476
11069SOL     OW33784   7.908   7.467   4.302  0.3981 -0.0119 -0.2996
11069SOL    HW133785   7.840   7.503   4.359  1.7946 -0.5851  1.8101
11069SOL    HW233786   7.893   7.373   4.304  1.5107 -0.1787  0.5398
11070SOL     OW33787   6.563   9.578   2.776 -0.1280 -0.1450 -0.1945
11070SOL    HW133788   6.587   9.486   2.772  0.2299 -0.0667  0.1820
11070SOL    HW233789   6.520   9.589   2.861  1.1949  0.3594  0.4309
11071SOL     OW33790   0.998   7.400   1.134  0.8054  0.3505  0.6110
11071SOL    HW133791   1.056   7.474   1.153 -0.5432  0.9408  2.9677
11071SOL    HW233792   0.923   7.439   1.089  0.6987  0.1856  0.6437
11072SOL     OW33793   7.875   5.686   6.156 -0.1608  0.4513  1.1215
11072SOL    HW133794   7.916   5.721   6.234 -0.6848  0.8969  1.1998
11072SOL    HW233795   7.821   5.757   6.122  2.2914  1.3182 -1.3297
11073SOL     OW33796   8.442   8.381   4.147 -0.1425 -0.0353  0.2229
11073SOL    HW133797   8.371   8.417   4.201 -0.6474 -1.0069  0.2210
11073SOL    HW233798   8.521   8.392   4.200 -0.1770  1.6127 -0.0182
11074SOL     OW33799   3.392   9.561   8.450 -0.1918  0.3196 -0.4033
11074SOL    HW133800   3.307   9.559   8.494  0.2229  1.2349  0.4543
11074SOL    HW233801   3.422   9.470   8.452 -0.7099  0.1560  0.1378
11075SOL     OW33802   3.701   6.948   8.277  0.1900  0.2679  0.2833
11075SOL    HW133803   3.763   7.021   8.281  1.1530 -0.0935 -3.5674
11075SOL    HW233804   3.756   6.870   8.280 -0.4587 -0.1841  0.5365
11076SOL     OW33805   5.644   0.342   8.964 -0.1070 -0.1999 -0.2189
11076SOL    HW133806   5.685   0.294   9.036 -0.1944 -0.9003 -0.6270
11076SOL    HW233807   5.671   0.433   8.977  1.7080 -0.6592 -0.5714
11077SOL     OW33808   7.340   8.400   2.457 -0.4649 -0.2971 -0.5084
11077SOL    HW133809   7.345   8.355   2.372  2.6396 -1.0849 -0.0323
11077SOL    HW233810   7.256   8.373   2.493 -2.1241  0.4205 -3.4571
11078SOL     OW33811   0.562   1.159   8.482  0.4056 -0.1309  0.6940
11078SOL    HW133812   0.562   1.130   8.391  0.3639  2.6349 -0.2749
11078SOL    HW233813   0.655   1.170   8.504  0.4828 -2.0348  1.4717
11079SOL     OW33814   2.587   8.630   3.383  0.4611  0.5513 -0.1491
11079SOL    HW133815   2.575   8.536   3.371 -1.0674  0.7449 -0.3079
11079SOL    HW233816   2.589   8.642   3.478 -0.2894  0.4489 -0.1127
11080SOL     OW33817   9.827   0.443   8.021  0.4849  0.3767 -0.0267
11080SOL    HW133818   9.755   0.487   8.067 -0.6901 -1.7794  0.3238
11080SOL    HW233819   9.785   0.373   7.972  2.3548 -0.9593  0.1732
11081SOL     OW33820   7.456   6.392   2.137 -0.2294  0.3160  0.4129
11081SOL    HW133821   7.400   6.429   2.205 -0.0701  1.0128  0.1665
11081SOL    HW233822   7.431   6.299   2.134 -2.5404  0.9046 -0.7881
11082SOL     OW33823   7.965   1.094   8.656  0.1191  0.6093  0.1017
11082SOL    HW133824   7.892   1.039   8.686  0.3546  0.1471 -0.1567
11082SOL    HW233825   7.929   1.183   8.654 -0.5256  0.3497 -0.2815
11083SOL     OW33826   7.883   1.570   8.000  0.7298  0.7081  0.8643
11083SOL    HW133827   7.941   1.494   8.000  1.3545  1.1683  1.6656
11083SOL    HW233828   7.882   1.600   8.091 -1.9253 -0.1249  1.1801
11084SOL     OW33829   4.327   5.673   9.476 -0.5347 -0.5520 -0.4570
11084SOL    HW133830   4.273   5.594   9.476 -0.5180 -0.5671 -0.9010
11084SOL    HW233831   4.378   5.666   9.556  0.5347 -1.7539 -1.1876
11085SOL     OW33832   1.213   4.783   2.638 -0.0104  0.3140 -0.4003
11085SOL    HW133833   1.151   4.767   2.709  0.3153  0.4693 -0.0825
11085SOL    HW233834   1.157   4.805   2.563 -0.4626 -1.5758 -0.6735
11086SOL     OW33835   8.760   7.770   2.030 -0.1489  0.2560 -0.0134
11086SOL    HW133836   8.667   7.763   2.051  0.1170 -0.0106  1.1790
11086SOL    HW233837   8.791   7.845   2.081  1.2088 -2.3559  3.3893
11087SOL     OW33838   8.460   9.951  -0.020  0.7356 -0.8120 -0.6771
11087SOL    HW133839   8.441  10.035   0.023 -0.5024 -0.0738 -2.4940
11087SOL    HW233840   8.502   9.898   0.047 -0.8804  0.3165  1.3384
11088SOL     OW33841   0.072   4.370   8.651  0.5088  0.1628  0.3368
11088SOL    HW133842   0.134   4.353   8.722  0.0356 -1.5196  0.3817
11088SOL    HW233843   0.124   4.413   8.583  1.7759 -1.3490  0.3070
11089SOL     OW33844   3.353   9.064   5.421  0.2772 -0.4227 -0.4912
11089SOL    HW133845   3.445   9.083   5.441  0.2036 -1.1450  0.6186
11089SOL    HW233846   3.352   8.971   5.398 -0.3879 -0.8627  1.1515
11090SOL     OW33847   7.175   5.316   6.982  0.1879  0.1105 -0.8287
11090SOL    HW133848   7.247   5.253   6.990 -0.2897 -0.5592 -1.5981
11090SOL    HW233849   7.217   5.401   6.991  0.8883 -0.2951 -0.0031
11091SOL     OW33850   6.466   9.424   5.199  0.4353 -0.1701 -0.2857
11091SOL    HW133851   6.434   9.413   5.110 -0.4501  2.1622 -0.3345
11091SOL    HW233852   6.401   9.480   5.242  0.8816 -1.1436  1.8187
11092SOL     OW33853   2.832   7.149   0.581  0.8642 -0.5587  0.6804
11092SOL    HW133854   2.904   7.211   0.564  1.9235 -1.4708  1.6531
11092SOL    HW233855   2.782   7.190   0.652  0.0049  0.3912 -0.4404
11093SOL     OW33856   7.321   1.605   1.049 -0.1550 -0.4202  0.5763
11093SOL    HW133857   7.246   1.568   1.095 -1.6328  0.9898 -0.5861
11093SOL    HW233858   7.301   1.593   0.956  1.0471  0.0273  0.2355
11094SOL     OW33859   5.489   0.052   8.929  0.2181 -0.4904 -0.0900
11094SOL    HW133860   5.579   0.061   8.959  0.4005  0.3949 -0.8575
11094SOL    HW233861   5.488   0.092   8.842 -0.9899 -0.1869  0.0384
11095SOL     OW33862   2.665   1.253   8.696 -0.3814  0.2951  0.1311
11095SOL    HW133863   2.689   1.327   8.752 -0.9225  0.6476 -0.0898
11095SOL    HW233864   2.724   1.182   8.722  0.2283  0.8413  0.2639
11096SOL     OW33865   0.401   3.095   0.932 -0.1176  0.5489 -0.3061
11096SOL    HW133866   0.354   3.077   1.014 -1.6956  2.3539 -0.7361
11096SOL    HW233867   0.478   3.146   0.959  0.3171 -0.3538  0.1912
11097SOL     OW33868   7.940   0.141   8.946  0.3967  0.2532 -0.2440
11097SOL    HW133869   7.917   0.067   8.890 -0.4483  0.5846 -0.3419
11097SOL    HW233870   8.026   0.168   8.915  0.8144 -0.8145 -0.0720
11098SOL     OW33871   3.722   0.918   6.265  0.9076  0.1020  0.6254
11098SOL    HW133872   3.749   0.915   6.174  1.8481 -0.6816  0.9132
11098SOL    HW233873   3.794   0.963   6.310  1.8155 -1.9630  1.3934
11099SOL     OW33874   0.393   1.741   2.479 -0.2857 -0.2059  0.0082
11099SOL    HW133875   0.384   1.663   2.424 -2.9453 -0.3641  0.5119
11099SOL    HW233876   0.306   1.753   2.517 -0.2829  3.5774 -0.7830
11100SOL     OW33877   2.698   4.097   6.512 -0.0024  0.3096 -0.0584
11100SOL    HW133878   2.776   4.139   6.548  1.1458 -0.1973 -1.8408
11100SOL    HW233879   2.634   4.101   6.583  2.2384 -1.0244  2.1925
11101SOL     OW33880   3.277   4.952   7.771  0.6052  0.6386 -0.4759
11101SOL    HW133881   3.234   5.015   7.713  1.9864  1.7164 -0.3958
11101SOL    HW233882   3.259   4.867   7.731 -2.3865  0.9047  0.1108
11102SOL     OW33883   7.521   8.974   6.341 -0.3311  0.2615 -0.5637
11102SOL    HW133884   7.575   9.042   6.382 -0.9715  0.4727 -0.0606
11102SOL    HW233885   7.449   8.961   6.402 -1.2497  0.5125 -1.5694
11103SOL     OW33886   2.135   4.788   1.578  0.1492 -0.4587  0.3806
11103SOL    HW133887   2.067   4.736   1.620 -0.5917 -0.2897 -0.5683
11103SOL    HW233888   2.156   4.856   1.642 -0.9488 -0.2098  0.4946
11104SOL     OW33889   4.864   2.547   0.806  0.1702 -0.0944 -0.0252
11104SOL    HW133890   4.919   2.622   0.829  0.0849  0.0884 -0.4153
11104SOL    HW233891   4.923   2.489   0.757  0.1755 -0.1794  0.0813
11105SOL     OW33892   8.215   5.016   1.189 -0.0303  0.3230 -0.2316
11105SOL    HW133893   8.261   5.031   1.107  0.3870 -0.0314 -0.0667
11105SOL    HW233894   8.255   5.078   1.250 -0.3646  0.6111 -0.3025
11106SOL     OW33895   0.078   7.316   2.930 -0.1113  0.0093 -0.3352
11106SOL    HW133896   0.091   7.349   3.019  1.5712 -1.4572  0.0158
11106SOL    HW233897   0.006   7.253   2.938  0.1100 -0.2033  0.0321
11107SOL     OW33898   0.571   7.235   3.961 -0.3145 -0.8476 -0.1336
11107SOL    HW133899   0.635   7.291   3.919 -1.2485  0.8914  0.6769
11107SOL    HW233900   0.489   7.284   3.958 -1.2282 -2.2519  0.4256
11108SOL     OW33901   5.340   5.380   4.557 -0.0662 -0.1446 -0.4260
11108SOL    HW133902   5.375   5.340   4.637 -1.5600  2.3228  1.6218
11108SOL    HW233903   5.285   5.312   4.519 -0.3110 -1.0156  1.3563
11109SOL     OW33904   5.464   2.180   2.117  0.3247 -0.0909  0.6362
11109SOL    HW133905   5.414   2.260   2.135 -2.5836 -0.8884 -2.7487
11109SOL    HW233906   5.414   2.111   2.159  1.5896 -0.4150  1.6522
11110SOL     OW33907   2.416   4.944   9.747 -0.1322  0.1356  0.7425
11110SOL    HW133908   2.460   4.861   9.763 -0.7380 -0.2922  0.2720
11110SOL    HW233909   2.466   5.009   9.797  0.8576 -0.3685  0.4338
11111SOL     OW33910   0.652   2.737   9.237 -0.0388 -0.5922 -0.1480
11111SOL    HW133911   0.580   2.766   9.181 -1.5665 -1.7193  1.1288
11111SOL    HW233912   0.613   2.731   9.325  1.4162 -1.9608  0.4512
11112SOL     OW33913   3.205   3.835   5.262 -0.7267  0.5027 -0.1563
11112SOL    HW133914   3.153   3.786   5.198  1.0415  0.4312 -1.6101
11112SOL    HW233915   3.143   3.898   5.299 -1.8261  0.5467 -1.9393
11113SOL     OW33916   5.227   5.604   3.028 -0.4426  0.2669  0.2011
11113SOL    HW133917   5.311   5.629   2.989 -0.1690  0.4527  0.8854
11113SOL    HW233918   5.163   5.662   2.988 -0.4017 -0.4997 -1.0303
11114SOL     OW33919   0.992   5.213   0.307 -0.0498  0.5385 -0.7010
11114SOL    HW133920   0.928   5.271   0.348 -1.5077 -0.7244 -1.1023
11114SOL    HW233921   0.940   5.141   0.271  1.4917  0.0302 -2.0387
11115SOL     OW33922   2.631   7.243   8.094  0.0737  0.9708  0.7164
11115SOL    HW133923   2.724   7.245   8.071 -0.3839 -0.2035 -1.5919
11115SOL    HW233924   2.585   7.258   8.011 -1.8061  1.0663  1.7091
11116SOL     OW33925   1.487   6.275   5.688  0.2034  0.2965  0.7403
11116SOL    HW133926   1.495   6.235   5.775  0.3739  0.6689  0.8971
11116SOL    HW233927   1.559   6.237   5.637  0.6481  0.7567  1.0254
11117SOL     OW33928   7.395   4.574   4.286 -0.3880 -0.1976 -0.1280
11117SOL    HW133929   7.367   4.559   4.377  0.8752 -2.0121  0.0277
11117SOL    HW233930   7.488   4.548   4.286 -0.1803  0.4524 -1.7931
11118SOL     OW33931   0.484   3.999   8.302  0.1616  0.4694  0.5091
11118SOL    HW133932   0.419   4.059   8.339 -0.7955  0.5884 -1.2571
11118SOL    HW233933   0.568   4.040   8.322 -0.4573  3.4763 -2.1041
11119SOL     OW33934   3.511   7.386   0.407 -0.5824  0.2265 -0.2867
11119SOL    HW133935   3.426   7.423   0.383 -0.1405  0.4010 -1.6262
11119SOL    HW233936   3.557   7.459   0.449 -0.2460  0.8155 -1.6379
11120SOL     OW33937   5.601   9.837   1.409  0.1056  0.4444 -0.2860
11120SOL    HW133938   5.692   9.824   1.435  0.1672 -0.8236 -1.0525
11120SOL    HW233939   5.563   9.891   1.479  1.3968  0.8870  0.0988
11121SOL     OW33940   0.596   7.965   8.106  0.2214 -0.4519 -0.3016
11121SOL    HW133941   0.689   7.979   8.122  0.6318 -1.4315 -1.6525
11121SOL    HW233942   0.567   7.909   8.178  0.6744 -0.1700  0.1043
11122SOL     OW33943   0.312   5.496   4.830  0.0205 -0.1776  0.0712
11122SOL    HW133944   0.401   5.528   4.815 -0.1029 -0.1756 -0.6957
11122SOL    HW233945   0.298   5.506   4.924  1.4967 -1.9000  0.5240
11123SOL     OW33946   3.366   3.700   7.714  0.4885 -0.5173  0.2492
11123SOL    HW133947   3.361   3.763   7.787 -1.1038  1.1112 -1.1753
11123SOL    HW233948   3.307   3.630   7.740 -0.0732  0.0499  0.5390
11124SOL     OW33949   3.006   7.346   0.840  0.3904  0.1578  0.4869
11124SOL    HW133950   2.954   7.399   0.779 -0.8521 -0.7647  0.6961
11124SOL    HW233951   3.008   7.398   0.921 -0.3329  0.1357  0.5217
11125SOL     OW33952   4.710   3.128   0.286 -0.4258 -0.0170  0.1461
11125SOL    HW133953   4.748   3.214   0.304 -0.3454  0.4441 -1.9803
11125SOL    HW233954   4.616   3.141   0.295 -0.3469 -0.1701  1.4794
11126SOL     OW33955   7.741   3.751   3.305  0.2079  0.1187 -0.0722
11126SOL    HW133956   7.794   3.720   3.379  1.1072 -1.5285 -1.3220
11126SOL    HW233957   7.786   3.717   3.228 -1.6999  0.2172 -1.2969
11127SOL     OW33958   6.603   5.858   3.397  0.2961  0.4851 -0.8813
11127SOL    HW133959   6.611   5.888   3.487 -1.9314 -0.0646 -0.4461
11127SOL    HW233960   6.640   5.770   3.398 -0.8785 -0.0222 -0.1717
11128SOL     OW33961   8.987   0.271   5.417  0.7139  0.1608  0.0179
11128SOL    HW133962   8.998   0.185   5.378 -0.7728 -0.3433  0.6552
11128SOL    HW233963   8.960   0.328   5.344  0.3882 -0.2084 -0.1490
11129SOL     OW33964   5.416   0.925   5.517  0.0527 -0.3261 -0.1381
11129SOL    HW133965   5.350   0.986   5.551 -0.5111 -0.7055 -0.5375
11129SOL    HW233966   5.498   0.954   5.557 -0.4411 -0.1897  0.7922
11130SOL     OW33967   2.344   0.131   3.889  0.1843 -0.2094  0.5601
11130SOL    HW133968   2.365   0.091   3.974  1.0114 -1.3812 -0.1567
11130SOL    HW233969   2.261   0.091   3.864 -0.5477  0.8517  1.2307
11131SOL     OW33970   4.472   5.038   3.174  0.1631  0.0004 -0.4089
11131SOL    HW133971   4.434   4.950   3.178  0.9766 -0.3937 -1.0924
11131SOL    HW233972   4.535   5.034   3.102  0.1988  1.1524 -0.4610
11132SOL     OW33973   0.182   9.174   6.843 -0.0299 -0.3285 -0.0514
11132SOL    HW133974   0.161   9.147   6.933  0.5349  0.2522  0.2638
11132SOL    HW233975   0.136   9.111   6.788 -2.2319  0.6031  0.5941
11133SOL     OW33976   3.260   6.678   3.769  0.3325  0.8142  0.1053
11133SOL    HW133977   3.214   6.756   3.801 -1.9069  0.0476 -0.9939
11133SOL    HW233978   3.293   6.703   3.683 -0.7188  0.4898 -0.4147
11134SOL     OW33979   7.081   4.779   0.067 -0.2569  0.2004 -0.0334
11134SOL    HW133980   7.120   4.729   0.139  1.4493  2.1206  0.4456
11134SOL    HW233981   7.055   4.712   0.004  1.0292 -1.3686  1.0131
11135SOL     OW33982   6.513   6.206   7.816  0.4331  0.3263  0.3839
11135SOL    HW133983   6.546   6.118   7.797 -0.0699 -0.2226  1.8941
11135SOL    HW233984   6.533   6.257   7.738 -0.8217 -1.5522 -1.2432
11136SOL     OW33985   5.881   7.185   2.239  0.3864 -0.1476 -0.2440
11136SOL    HW133986   5.809   7.132   2.206  0.3835 -0.0631 -0.3732
11136SOL    HW233987   5.839   7.264   2.273  0.4763  0.1946 -0.9160
11137SOL     OW33988   1.826   6.808   3.025  0.4473  0.0280 -0.1772
11137SOL    HW133989   1.814   6.857   3.107  1.4587  1.4600 -0.8540
11137SOL    HW233990   1.797   6.869   2.957 -2.2382 -1.7993 -0.8521
11138SOL     OW33991   9.563   7.442   7.273 -0.0107  0.1300 -0.1811
11138SOL    HW133992   9.570   7.520   7.328 -1.4863  0.8056 -0.9008
11138SOL    HW233993   9.527   7.474   7.190  1.0757 -1.0403 -1.1462
11139SOL     OW33994   3.789   1.702   7.147  0.0948 -0.0301  0.5010
11139SOL    HW133995   3.840   1.759   7.089 -0.8806  0.4800  0.1001
11139SOL    HW233996   3.852   1.640   7.183  1.1866  1.2652  0.9021
11140SOL     OW33997   8.860   3.000   1.214 -0.1950  0.3044 -0.1020
11140SOL    HW133998   8.862   3.057   1.137  0.4656  0.5214  0.0683
11140SOL    HW233999   8.830   2.915   1.180  0.5799  0.2544 -0.7059
11141SOL     OW34000   9.286   7.555   3.917  0.1028  0.0936  0.5948
11141SOL    HW134001   9.232   7.497   3.969  1.0645 -0.3948  1.0665
11141SOL    HW234002   9.224   7.611   3.871 -0.8060 -0.7420  0.7862
11142SOL     OW34003   4.771   7.239   6.601 -0.3545  0.8600 -0.2465
11142SOL    HW134004   4.728   7.154   6.609 -1.6743  1.4585 -0.7192
11142SOL    HW234005   4.864   7.218   6.592 -0.3574 -0.4350  1.8757
11143SOL     OW34006   5.402   3.519   7.099 -0.2630 -0.3398 -0.2182
11143SOL    HW134007   5.426   3.484   7.014 -0.6869 -0.1787 -0.4062
11143SOL    HW234008   5.403   3.442   7.157  1.7835 -0.1692  0.0374
11144SOL     OW34009   6.368   5.120   4.411 -0.0311  0.7833  0.0046
11144SOL    HW134010   6.308   5.175   4.461  0.5765  1.0710  0.4305
11144SOL    HW234011   6.431   5.088   4.476  0.0463  0.1593 -0.3638
11145SOL     OW34012   9.700   9.678   9.900  0.1748  0.2769 -0.3491
11145SOL    HW134013   9.705   9.751   9.838 -1.2610  1.4965  0.8977
11145SOL    HW234014   9.607   9.671   9.921  0.3164 -1.7263 -0.1624
11146SOL     OW34015   5.873   2.851   8.345  0.1659 -0.3157  0.1419
11146SOL    HW134016   5.960   2.845   8.306 -0.3438  2.0519 -1.6365
11146SOL    HW234017   5.814   2.813   8.280 -0.1519 -2.2820  1.5045
11147SOL     OW34018   5.439   0.049   0.477  0.3191 -0.1274  0.4802
11147SOL    HW134019   5.371   0.032   0.542 -1.0337 -0.0359 -0.8529
11147SOL    HW234020   5.392   0.086   0.402  1.8372 -0.1267 -0.5199
11148SOL     OW34021   0.186   8.276   5.224  0.5258  0.7935  0.4155
11148SOL    HW134022   0.165   8.187   5.195  0.0654  0.7269  0.9174
11148SOL    HW234023   0.101   8.315   5.244  0.5925  1.8738 -1.2236
11149SOL     OW34024   2.617   9.799   8.304  0.2637  0.6585  0.0201
11149SOL    HW134025   2.677   9.799   8.378 -0.0760  1.3625  0.2973
11149SOL    HW234026   2.544   9.853   8.332  1.2221  3.0021 -1.6996
11150SOL     OW34027   8.125   6.392   7.201 -0.1953 -0.7593  0.4516
11150SOL    HW134028   8.213   6.362   7.179  0.0684  0.1081  0.3024
11150SOL    HW234029   8.138   6.478   7.240 -0.9796 -0.6187  0.4196
11151SOL     OW34030   8.537   6.109   4.476 -0.0607 -0.0256  0.8030
11151SOL    HW134031   8.627   6.121   4.448  0.1048 -2.0531  0.2761
11151SOL    HW234032   8.520   6.015   4.463 -2.7647  0.5486 -0.7171
11152SOL     OW34033   2.773   9.979   9.410  0.1243  0.2519 -0.4525
11152SOL    HW134034   2.815   9.941   9.487 -0.5540  0.0397 -0.1787
11152SOL    HW234035   2.794   9.918   9.338  1.0850  0.6525 -0.5323
11153SOL     OW34036   1.616   3.308   6.824  0.2390  0.0843  0.1796
11153SOL    HW134037   1.670   3.276   6.896  1.5074 -0.7100 -1.0413
11153SOL    HW234038   1.657   3.391   6.799 -0.9109  0.9483  1.0974
11154SOL     OW34039   9.889   9.321   8.270 -0.0502 -0.5161 -0.4410
11154SOL    HW134040   9.894   9.406   8.227  0.4195 -0.3358 -0.0345
11154SOL    HW234041   9.912   9.258   8.202 -0.8646 -0.3661 -0.8698
11155SOL     OW34042   4.718   2.034   0.794  0.1458  0.0259  0.8035
11155SOL    HW134043   4.630   2.070   0.788  0.5721  0.9496 -0.4171
11155SOL    HW234044   4.744   2.020   0.703  1.0423 -0.7994  1.1635
11156SOL     OW34045   2.332   6.160   5.451 -0.0098 -0.6238 -0.1161
11156SOL    HW134046   2.427   6.154   5.455  0.3713  2.6360 -0.9212
11156SOL    HW234047   2.309   6.218   5.523 -0.9902  0.9403 -1.5961
11157SOL     OW34048   9.291   5.530   2.038 -0.2847 -0.0544 -0.2831
11157SOL    HW134049   9.337   5.513   1.956 -0.2606 -0.9171 -0.0969
11157SOL    HW234050   9.198   5.526   2.014 -0.2979 -1.1841 -0.1216
11158SOL     OW34051   8.920   6.110   5.989 -0.4782 -0.3010  0.0431
11158SOL    HW134052   8.875   6.172   6.046 -0.3318  0.0053 -0.1721
11158SOL    HW234053   8.850   6.055   5.953 -0.6001 -0.3071  0.2865
11159SOL     OW34054   5.709   7.141   1.512 -0.1397 -0.0388 -0.8497
11159SOL    HW134055   5.784   7.170   1.461  0.5597  0.5661  0.4788
11159SOL    HW234056   5.690   7.213   1.572 -0.3091 -1.0872  0.4190
11160SOL     OW34057   7.772   3.623   5.502 -0.0545 -0.4004  0.3821
11160SOL    HW134058   7.813   3.555   5.450 -0.8528 -0.1729 -0.5780
11160SOL    HW234059   7.768   3.587   5.591 -0.0291 -1.3996 -0.0150
11161SOL     OW34060   5.672   4.760   4.850  0.2918  0.0894  0.0839
11161SOL    HW134061   5.588   4.725   4.818  0.2072  0.5857 -0.2325
11161SOL    HW234062   5.728   4.763   4.773 -0.6355  3.5226 -0.6239
11162SOL     OW34063   0.447   6.729   4.000 -0.1179  0.6171 -0.2787
11162SOL    HW134064   0.407   6.643   4.001  0.6599  0.2432 -0.3838
11162SOL    HW234065   0.406   6.775   3.927 -0.5772  0.3619 -0.1806
11163SOL     OW34066   0.696   0.586   3.120  0.6125  0.0194 -0.2162
11163SOL    HW134067   0.778   0.626   3.146  1.0651 -0.8594 -0.2573
11163SOL    HW234068   0.639   0.594   3.197  0.2279  1.8972 -0.6483
11164SOL     OW34069   8.919   9.478   7.639  0.3223  0.3553 -0.2068
11164SOL    HW134070   8.942   9.511   7.552  0.9873 -0.9511 -0.5538
11164SOL    HW234071   8.872   9.550   7.681 -1.8089  0.3378 -2.3824
11165SOL     OW34072   1.325   1.061   9.976  0.0676  0.5394 -0.4306
11165SOL    HW134073   1.314   1.128   9.908 -0.6468 -0.5209 -1.4095
11165SOL    HW234074   1.394   1.004   9.941 -1.7618 -1.2350 -1.3446
11166SOL     OW34075   4.603   0.736   6.079 -0.2322 -0.5269 -0.2679
11166SOL    HW134076   4.612   0.656   6.026  0.3593 -0.2558 -0.5828
11166SOL    HW234077   4.636   0.711   6.165 -2.4250 -1.3598  0.3874
11167SOL     OW34078   7.523   3.253   4.920  0.2194  0.7342 -0.1432
11167SOL    HW134079   7.547   3.320   4.983 -0.9238  1.6910 -0.6846
11167SOL    HW234080   7.494   3.301   4.842  2.0514 -0.4156 -1.6180
11168SOL     OW34081   5.979   8.218   7.345  0.2301  0.7299  0.3319
11168SOL    HW134082   5.944   8.134   7.374  0.7158  0.7882  1.1090
11168SOL    HW234083   5.926   8.241   7.269 -0.5125  0.1610  0.6684
11169SOL     OW34084   8.178   3.994   4.801  0.7643  0.4679  0.1139
11169SOL    HW134085   8.163   4.072   4.856  0.2567 -0.8101  1.8805
11169SOL    HW234086   8.269   3.969   4.821 -0.2893 -1.7185  2.8405
11170SOL     OW34087   6.870   4.088   1.791 -0.7703 -0.0730  0.1406
11170SOL    HW134088   6.937   4.028   1.825 -0.2476  0.2570 -0.3079
11170SOL    HW234089   6.892   4.173   1.829  0.4936  0.5552 -1.8666
11171SOL     OW34090   7.045   1.796   3.299 -0.5781 -0.6895 -0.2629
11171SOL    HW134091   6.976   1.860   3.279 -0.8297 -0.5791  0.8620
11171SOL    HW234092   7.077   1.823   3.385  2.5272  0.6752 -1.7057
11172SOL     OW34093   6.710   4.591   3.878  0.1599  0.2786 -0.8547
11172SOL    HW134094   6.687   4.594   3.785  1.3550 -0.1705 -1.1817
11172SOL    HW234095   6.783   4.529   3.883 -0.0650  0.0845  0.4257
11173SOL     OW34096   4.679   4.783   4.336 -0.0091  0.1336 -0.2480
11173SOL    HW134097   4.693   4.845   4.264  0.1615  0.3015 -0.0706
11173SOL    HW234098   4.584   4.772   4.340  0.0494 -1.3134 -1.7214
11174SOL     OW34099   3.692   5.681   6.116  0.3919  0.1737  0.1998
11174SOL    HW134100   3.651   5.736   6.183  1.6170  0.6112  0.6107
11174SOL    HW234101   3.749   5.740   6.068  0.0400 -0.2863 -0.8075
11175SOL     OW34102   0.756   9.514   6.246 -0.6906  0.9284 -0.3218
11175SOL    HW134103   0.800   9.444   6.198 -1.3338 -1.4795  2.3469
11175SOL    HW234104   0.827   9.569   6.279 -0.1012  0.7874 -1.3019
11176SOL     OW34105   3.319   4.302   3.353  0.3511  0.3792  0.1798
11176SOL    HW134106   3.376   4.254   3.412  1.8591  0.5232 -1.1099
11176SOL    HW234107   3.378   4.354   3.298 -1.1490  2.8037  0.7167
11177SOL     OW34108   3.230   6.627   7.666 -0.4598  0.2246 -0.5041
11177SOL    HW134109   3.271   6.589   7.744  0.2203  0.5839 -0.6704
11177SOL    HW234110   3.136   6.614   7.679 -0.3431  0.0812  0.2712
11178SOL     OW34111   4.820   6.111   0.489  0.3919 -0.0646  0.2068
11178SOL    HW134112   4.856   6.199   0.478 -0.0560  0.1223  0.1726
11178SOL    HW234113   4.890   6.052   0.464 -0.2174  0.3017 -2.7480
11179SOL     OW34114   7.047   1.452   4.864  0.0003 -0.0668 -0.3658
11179SOL    HW134115   6.978   1.515   4.843 -0.0241  0.1950  0.4908
11179SOL    HW234116   7.110   1.501   4.916 -0.4242 -0.9407  1.0280
11180SOL     OW34117   2.354   1.177   0.131 -0.1896 -0.1135  0.2853
11180SOL    HW134118   2.288   1.246   0.137 -0.4112 -0.4031  1.3957
11180SOL    HW234119   2.304   1.095   0.134  0.0141 -0.3542 -1.6690
11181SOL     OW34120   2.103   7.084   9.159 -0.3007  0.6150  0.0339
11181SOL    HW134121   2.160   7.130   9.220 -0.3057 -0.2755  0.7270
11181SOL    HW234122   2.150   7.085   9.076  0.2550  0.7871  0.3504
11182SOL     OW34123   6.289   8.524   9.525 -0.3396 -0.0668  0.4299
11182SOL    HW134124   6.335   8.465   9.465 -0.1985  0.7500 -0.2878
11182SOL    HW234125   6.329   8.610   9.510 -0.9131  0.3246  1.0597
11183SOL     OW34126   9.983   8.098   0.151 -0.0060 -0.1779 -0.2376
11183SOL    HW134127  10.035   8.169   0.114 -0.1802 -0.7330 -1.5842
11183SOL    HW234128   9.902   8.140   0.178  0.0849  0.2238 -0.5739
11184SOL     OW34129   0.263   2.711   7.122  0.5073 -0.1208  0.1696
11184SOL    HW134130   0.168   2.700   7.128  0.4296  0.3091 -0.1947
11184SOL    HW234131   0.298   2.623   7.134  0.0768 -0.2382  0.6013
11185SOL     OW34132   8.602   5.277   7.427  0.0809  0.3453 -0.1761
11185SOL    HW134133   8.682   5.300   7.380 -1.9633  1.3200 -3.5287
11185SOL    HW234134   8.614   5.186   7.452  2.3247  0.5597 -0.2528
11186SOL     OW34135   6.629   5.185   3.641 -0.0987 -0.1284  0.1513
11186SOL    HW134136   6.686   5.187   3.718  0.2893  0.9953 -0.1454
11186SOL    HW234137   6.541   5.170   3.677  0.1831 -0.4173  0.7371
11187SOL     OW34138   9.500   6.848   8.474  0.4931  0.2411 -0.4023
11187SOL    HW134139   9.576   6.823   8.422  1.9408  1.3369  1.0672
11187SOL    HW234140   9.491   6.942   8.460 -0.5901  0.1367 -0.5170
11188SOL     OW34141   2.681   0.873   3.096  0.1237 -0.3055 -0.2651
11188SOL    HW134142   2.633   0.943   3.052 -0.8254 -1.2429 -0.7740
11188SOL    HW234143   2.770   0.907   3.106  0.0917  0.3507 -1.9450
11189SOL     OW34144   7.168   4.910   8.849  0.8060  0.9782 -0.4071
11189SOL    HW134145   7.263   4.901   8.847  0.6998 -1.7793  1.3747
11189SOL    HW234146   7.152   4.972   8.921  1.2510  0.7177 -0.0781
11190SOL     OW34147   7.613   6.753   0.382  0.1734  0.3216 -0.3949
11190SOL    HW134148   7.518   6.754   0.397  0.1330 -0.3720 -0.5646
11190SOL    HW234149   7.651   6.739   0.469  0.1286  0.7966 -0.2989
11191SOL     OW34150   4.818   0.085   2.440 -0.3224 -0.5600  0.5033
11191SOL    HW134151   4.855  -0.003   2.437  1.7716  0.2740 -0.1241
11191SOL    HW234152   4.807   0.104   2.533  0.1283 -1.1354  0.6790
11192SOL     OW34153   5.270   2.984   6.188 -0.3757  0.4580 -0.0912
11192SOL    HW134154   5.235   3.011   6.103  0.7284 -0.7032 -0.9601
11192SOL    HW234155   5.199   3.000   6.250 -1.0769  1.6799 -1.1606
11193SOL     OW34156   5.740   0.138   1.507 -0.4287 -0.0639 -0.0508
11193SOL    HW134157   5.765   0.046   1.498  0.1153  0.0386  0.3759
11193SOL    HW234158   5.691   0.158   1.426  1.0088 -0.2319 -0.9924
11194SOL     OW34159   0.822   4.664   7.552  0.1040 -0.1494 -0.1110
11194SOL    HW134160   0.760   4.637   7.619  1.1781  0.7633  1.3170
11194SOL    HW234161   0.884   4.591   7.545 -0.2982 -0.4599 -0.5075
11195SOL     OW34162   3.520   0.555   1.809 -0.0319 -0.2391 -0.1692
11195SOL    HW134163   3.610   0.526   1.793  0.0242  0.6883 -1.6274
11195SOL    HW234164   3.465   0.488   1.767 -0.1023 -1.2530  1.4186
11196SOL     OW34165   1.311   3.552   1.042 -0.0710 -0.0353 -0.7141
11196SOL    HW134166   1.374   3.610   1.000 -0.2744  1.5236  0.9743
11196SOL    HW234167   1.348   3.536   1.129 -1.1313 -0.5418 -0.3332
11197SOL     OW34168   3.537   3.869   7.241  0.1548  0.3145  0.5163
11197SOL    HW134169   3.552   3.849   7.149  1.1263  2.4847  0.1273
11197SOL    HW234170   3.461   3.928   7.241 -0.0313  0.0851  1.1421
11198SOL     OW34171   1.911   7.238   2.039 -0.5504  0.2558  0.0580
11198SOL    HW134172   1.931   7.234   1.946 -0.3801 -0.5926  0.1286
11198SOL    HW234173   1.818   7.258   2.044 -0.8106 -0.8254 -0.3060
11199SOL     OW34174   8.891   7.533   8.202  0.0261  0.3318  0.1316
11199SOL    HW134175   8.906   7.619   8.165 -0.4814  0.5565  0.4335
11199SOL    HW234176   8.926   7.538   8.291 -0.0320  0.2383  0.1608
11200SOL     OW34177   3.612   3.775   7.687 -0.7124  0.0312  0.1497
11200SOL    HW134178   3.616   3.836   7.613 -1.8378  1.5791  1.2975
11200SOL    HW234179   3.519   3.770   7.709 -0.4034 -0.4015  1.4404
11201SOL     OW34180   2.289   9.796   2.326  0.1578 -0.2114  0.6000
11201SOL    HW134181   2.350   9.761   2.260 -0.0046 -0.1947  0.4399
11201SOL    HW234182   2.338   9.793   2.408 -0.0226 -1.2630  0.6817
11202SOL     OW34183   6.891   2.797   2.979 -0.1664 -0.3609 -0.6215
11202SOL    HW134184   6.921   2.877   3.022 -1.6604 -0.4974  0.7749
11202SOL    HW234185   6.971   2.757   2.945  0.6848  1.3775 -0.7731
11203SOL     OW34186   0.425   6.186   0.516 -0.0860  0.2888 -0.0127
11203SOL    HW134187   0.464   6.099   0.511 -0.7106  0.0607 -1.9395
11203SOL    HW234188   0.445   6.217   0.604  0.9690 -1.4103  0.3860
11204SOL     OW34189   9.822   8.549   4.291  0.3426  0.0459 -0.1680
11204SOL    HW134190   9.801   8.457   4.276 -1.6410 -0.4052  4.0167
11204SOL    HW234191   9.917   8.550   4.306  0.3105 -1.4284  0.2628
11205SOL     OW34192   4.106   4.912   2.671  0.0948 -0.4948  0.3000
11205SOL    HW134193   4.035   4.964   2.631 -0.3244  0.2586  1.9081
11205SOL    HW234194   4.154   4.875   2.597 -0.8516  0.5251 -0.8711
11206SOL     OW34195   5.531   3.704   8.670  0.0450 -0.3036  0.2892
11206SOL    HW134196   5.549   3.778   8.612  0.1653 -2.3038 -2.4327
11206SOL    HW234197   5.617   3.667   8.689 -0.1894 -1.6909 -1.1942
11207SOL     OW34198   3.978   4.752   2.319  0.0617 -0.2263  0.1054
11207SOL    HW134199   3.920   4.819   2.284 -1.3242 -0.7018  1.3970
11207SOL    HW234200   3.948   4.670   2.279  0.5388 -0.3381 -0.0309
11208SOL     OW34201   7.179   7.332   2.772  0.5323  0.0219 -0.2362
11208SOL    HW134202   7.132   7.296   2.847  0.5756 -1.1363 -0.7431
11208SOL    HW234203   7.112   7.346   2.706  0.8475 -1.7433 -1.0018
11209SOL     OW34204   8.131   7.147   9.189  0.7144  0.5202  0.0435
11209SOL    HW134205   8.141   7.054   9.172  0.5369  0.6176 -0.6686
11209SOL    HW234206   8.063   7.175   9.127  0.5495  1.0571  0.4597
11210SOL     OW34207   9.192   1.653   4.921  0.4526 -0.2476 -0.1920
11210SOL    HW134208   9.136   1.653   4.843  0.6186 -0.0558 -0.3098
11210SOL    HW234209   9.145   1.597   4.983 -1.0074  1.6654  0.5192
11211SOL     OW34210   1.141   7.057   3.695 -0.3297 -0.0543  0.0596
11211SOL    HW134211   1.198   7.003   3.640 -1.3353 -0.3794 -0.6924
11211SOL    HW234212   1.169   7.147   3.676 -1.1265 -0.1069 -1.5789
11212SOL     OW34213   2.881   3.396   4.552  0.1035 -0.1473  0.1751
11212SOL    HW134214   2.808   3.418   4.610  1.8750  0.2113  2.3796
11212SOL    HW234215   2.854   3.314   4.510 -0.6174 -1.3440  2.7701
11213SOL     OW34216   2.759   6.965   5.269 -0.2029 -0.5497 -0.1118
11213SOL    HW134217   2.806   7.049   5.271 -0.1648 -0.5754  0.0694
11213SOL    HW234218   2.670   6.988   5.243  0.3181 -0.6802 -2.2354
11214SOL     OW34219   7.976   7.207   8.364 -0.4303  0.6367  0.1265
11214SOL    HW134220   7.885   7.227   8.386 -0.4348  0.6199  0.1234
11214SOL    HW234221   7.970   7.140   8.296 -0.4683  2.3797 -1.6859
11215SOL     OW34222   8.319   8.251   0.470 -0.7754 -0.2080 -0.2667
11215SOL    HW134223   8.260   8.298   0.410 -1.1074 -1.9620 -1.3941
11215SOL    HW234224   8.399   8.238   0.420  0.2096  1.1339  0.8632
11216SOL     OW34225   7.012   1.342   7.320 -0.5375  0.3910  0.2879
11216SOL    HW134226   6.967   1.304   7.396  3.4673 -2.9682  1.3637
11216SOL    HW234227   7.032   1.432   7.346 -0.3427 -0.3048  2.7717
11217SOL     OW34228   5.009   4.268   6.087 -0.1785  0.1342  0.0742
11217SOL    HW134229   5.062   4.326   6.032 -0.9425  0.0274 -0.7806
11217SOL    HW234230   4.922   4.308   6.087 -0.6592 -0.8827 -0.3452
11218SOL     OW34231   7.028   0.860   7.695 -0.3083 -0.4881 -0.3923
11218SOL    HW134232   7.067   0.774   7.711 -0.5244 -0.4033  0.6461
11218SOL    HW234233   7.098   0.922   7.713 -0.4547 -0.4028 -0.1182
11219SOL     OW34234   1.686   5.051   8.633 -0.2480 -0.0462  0.1032
11219SOL    HW134235   1.592   5.031   8.624 -0.2042 -0.1702 -0.0761
11219SOL    HW234236   1.721   5.041   8.544 -0.1398  0.3831  0.0924
11220SOL     OW34237   6.867   9.375   9.840 -0.9557 -0.0146  0.1139
11220SOL    HW134238   6.889   9.446   9.779  0.5180 -1.1647 -0.7890
11220SOL    HW234239   6.882   9.412   9.927 -0.7867  0.9618 -0.3219
11221SOL     OW34240   5.586   2.669   4.214 -0.7028  0.3248 -0.5109
11221SOL    HW134241   5.588   2.586   4.262 -1.4667  0.2896 -0.5212
11221SOL    HW234242   5.632   2.650   4.132 -2.0776 -0.5157 -1.1306
11222SOL     OW34243   2.570   8.462   2.101 -0.4960 -0.0401 -0.3371
11222SOL    HW134244   2.594   8.532   2.041 -0.8946 -0.6715 -1.2514
11222SOL    HW234245   2.480   8.439   2.077 -1.6080  1.3497  2.0990
11223SOL     OW34246   8.627   3.765   6.287 -0.0177  0.3142  0.2237
11223SOL    HW134247   8.568   3.813   6.344 -0.3607 -1.1853  1.1915
11223SOL    HW234248   8.710   3.764   6.334  0.2586  0.7609 -0.2393
11224SOL     OW34249   6.868   4.738   3.633  0.0932  0.3673  0.1465
11224SOL    HW134250   6.798   4.788   3.674 -0.2028  0.9154 -0.9918
11224SOL    HW234251   6.833   4.649   3.624 -0.1517  0.4485  0.3057
11225SOL     OW34252   0.684   8.847   8.391  0.7061  0.4706  0.2760
11225SOL    HW134253   0.617   8.902   8.350  0.2473 -1.2054 -1.3757
11225SOL    HW234254   0.638   8.767   8.416  1.8497 -0.2700  0.1052
11226SOL     OW34255   0.551   3.871   8.761  0.2184 -0.0096 -0.0391
11226SOL    HW134256   0.613   3.910   8.700  0.4974  0.7827  0.7237
11226SOL    HW234257   0.598   3.796   8.798  0.0665 -0.4601 -0.7460
11227SOL     OW34258   2.698   3.823   6.726 -0.4097 -0.0449 -0.3978
11227SOL    HW134259   2.654   3.908   6.716  0.0243  0.0820 -1.2842
11227SOL    HW234260   2.669   3.771   6.652  0.6858 -0.0621 -0.8386
11228SOL     OW34261   6.040   7.504   8.513  0.2948 -0.0673  0.2929
11228SOL    HW134262   6.036   7.598   8.526 -0.4338 -0.2069  1.2546
11228SOL    HW234263   6.094   7.492   8.435  0.0852  1.1513 -0.0547
11229SOL     OW34264   4.515   9.510   9.074  0.5807  0.3506  0.7458
11229SOL    HW134265   4.473   9.427   9.053  1.9882  0.2343 -2.0342
11229SOL    HW234266   4.459   9.576   9.032  0.8198  0.5918  0.8019
11230SOL     OW34267   1.312   0.387   9.854 -0.4614 -0.6851  0.1754
11230SOL    HW134268   1.360   0.344   9.925  0.2726 -1.7058 -0.8795
11230SOL    HW234269   1.263   0.316   9.812  2.2554 -1.0346 -2.8127
11231SOL     OW34270   6.828   4.451   0.099  0.0312  0.1552  0.8298
11231SOL    HW134271   6.908   4.456   0.047  1.3964 -1.3808  2.6315
11231SOL    HW234272   6.850   4.496   0.180  0.5361 -3.4650  2.9233
11232SOL     OW34273   4.766   9.176   9.432 -0.0154 -0.0864  0.0643
11232SOL    HW134274   4.792   9.162   9.522 -0.2805 -2.5910 -0.1872
11232SOL    HW234275   4.825   9.244   9.400  1.6821 -0.8522  1.4292
11233SOL     OW34276   1.136   0.816   9.954 -0.3512  0.0123 -0.1006
11233SOL    HW134277   1.183   0.896   9.977 -1.0109  0.0292  1.2617
11233SOL    HW234278   1.114   0.827   9.862  1.8955  0.1985 -0.6630
11234SOL     OW34279   9.026   8.597   3.341  0.1186 -0.3243 -0.0686
11234SOL    HW134280   9.044   8.678   3.389  0.8729 -0.7401  0.3716
11234SOL    HW234281   9.017   8.531   3.409 -3.2306 -0.1788 -0.2262
11235SOL     OW34282   1.022   9.429   0.125  0.0054  0.4200  0.2431
11235SOL    HW134283   0.991   9.516   0.153  0.0221  0.6553 -0.4485
11235SOL    HW234284   1.097   9.448   0.068  1.3833 -0.1454  1.8136
11236SOL     OW34285   8.600   5.954   0.642  0.2999  0.0259 -0.0084
11236SOL    HW134286   8.671   6.014   0.619 -0.8104  0.9927 -1.0236
11236SOL    HW234287   8.643   5.868   0.647  1.2744  0.3016 -2.2659
11237SOL     OW34288   1.211   3.461   2.326 -0.8976  0.0404  0.0019
11237SOL    HW134289   1.211   3.374   2.284 -1.2602 -0.3674  0.8192
11237SOL    HW234290   1.301   3.472   2.357 -0.8322 -0.0146 -0.1676
11238SOL     OW34291   1.318   1.879   5.464  0.2629 -0.2585 -0.5227
11238SOL    HW134292   1.413   1.878   5.457  0.3091  2.4655 -1.4325
11238SOL    HW234293   1.300   1.937   5.538 -0.5595  3.4754 -3.3095
11239SOL     OW34294   2.764   8.691   6.376  0.5005  0.2774  0.0346
11239SOL    HW134295   2.825   8.732   6.438  0.2618  1.0913 -0.2639
11239SOL    HW234296   2.789   8.726   6.291  0.1637 -0.0490 -0.1989
11240SOL     OW34297   3.573   2.397   2.146  0.3001  0.1998  0.0354
11240SOL    HW134298   3.542   2.483   2.118  0.6283 -0.3122 -2.0539
11240SOL    HW234299   3.541   2.336   2.079  2.6274 -0.8531 -0.2280
11241SOL     OW34300   9.866   1.249   1.448 -0.2302 -0.2960  0.0260
11241SOL    HW134301   9.910   1.212   1.525 -1.6247 -1.7491  0.1753
11241SOL    HW234302   9.775   1.259   1.475 -0.0609  2.7362 -0.2499
11242SOL     OW34303   5.031   3.523   5.083  0.4831 -0.7075 -0.4236
11242SOL    HW134304   4.955   3.466   5.094 -0.4455  0.2076 -1.8101
11242SOL    HW234305   5.035   3.539   4.989  0.8562  1.2882 -0.0997
11243SOL     OW34306   2.760   0.585   6.149 -0.1492 -0.1300 -0.2069
11243SOL    HW134307   2.794   0.523   6.214 -0.5142  0.6961  0.7987
11243SOL    HW234308   2.796   0.669   6.175  0.2445  0.1199 -1.4963
11244SOL     OW34309   3.005   4.233   9.576  0.0662  0.3047 -0.1182
11244SOL    HW134310   2.956   4.189   9.506  0.1689  0.6665 -0.4218
11244SOL    HW234311   2.941   4.290   9.618  0.3325  1.1827 -0.8601
11245SOL     OW34312   2.689   7.714   5.130  0.4237  0.6476  0.1292
11245SOL    HW134313   2.782   7.692   5.141  0.0815 -0.8075  0.3527
11245SOL    HW234314   2.675   7.711   5.036  0.2248 -0.9333  0.1840
11246SOL     OW34315   1.195   9.397   8.986  0.2194  0.2908  0.4762
11246SOL    HW134316   1.265   9.421   8.925 -0.8396  1.9697 -0.1562
11246SOL    HW234317   1.212   9.305   9.007  0.6019 -0.3980 -2.3994
11247SOL     OW34318   3.282   1.618   8.333  0.4139  0.2836  0.0791
11247SOL    HW134319   3.259   1.535   8.374  1.2102 -0.1835 -0.3979
11247SOL    HW234320   3.274   1.682   8.404  1.2684 -0.4300  0.8634
11248SOL     OW34321   5.087   8.774   3.139  0.2920 -0.4495 -0.1361
11248SOL    HW134322   5.042   8.856   3.158  1.1793 -0.0634  0.3888
11248SOL    HW234323   5.177   8.789   3.168  0.3887 -1.7219  0.2805
11249SOL     OW34324   3.101   5.216   7.627 -0.4108  0.0474  0.0609
11249SOL    HW134325   3.096   5.266   7.545  0.9411 -0.4411 -0.3389
11249SOL    HW234326   3.119   5.281   7.694  0.7007  0.2023 -0.3664
11250SOL     OW34327   5.293   5.580   5.472  0.4618 -0.4224 -0.0226
11250SOL    HW134328   5.298   5.614   5.562 -0.1241 -0.6055  0.0859
11250SOL    HW234329   5.380   5.597   5.435  1.1010 -1.4247  0.9686
11251SOL     OW34330   5.916   8.792   3.986  0.3022 -0.2580  0.1816
11251SOL    HW134331   5.960   8.875   4.004  1.3516 -0.4344 -1.3501
11251SOL    HW234332   5.833   8.817   3.945  1.2200  0.0530 -1.5536
11252SOL     OW34333   4.018   7.442   1.514 -0.2773  0.2825  0.7029
11252SOL    HW134334   4.053   7.510   1.456 -3.5674  1.0793 -0.5967
11252SOL    HW234335   3.991   7.371   1.456 -2.0588  0.3506  1.3553
11253SOL     OW34336   1.033   7.568   3.064 -0.0584  0.3533  0.8001
11253SOL    HW134337   0.982   7.492   3.035 -1.1885  1.5187 -0.4289
11253SOL    HW234338   1.117   7.531   3.092 -0.8141 -1.4064  0.8718
11254SOL     OW34339   3.736   9.632   4.025 -0.4031 -0.2642  0.2830
11254SOL    HW134340   3.753   9.539   4.039 -0.7876 -0.3465  0.2333
11254SOL    HW234341   3.708   9.638   3.934  2.7602  0.3579 -0.7635
11255SOL     OW34342   4.338   0.110   3.776 -0.8953  0.3399 -0.3045
11255SOL    HW134343   4.260   0.155   3.742 -1.7845 -0.7920  0.1722
11255SOL    HW234344   4.332   0.123   3.871 -1.5711 -1.3355 -0.0763
11256SOL     OW34345   8.027   3.096   0.991  0.4287 -0.2596 -0.2509
11256SOL    HW134346   7.958   3.061   1.048 -0.1385  1.5501  0.2244
11256SOL    HW234347   8.103   3.105   1.049  0.8532 -1.4467 -0.5793
11257SOL     OW34348   8.078   3.786   1.325  0.0410 -0.0661 -0.0465
11257SOL    HW134349   8.154   3.807   1.270  0.5804  1.9741  1.3590
11257SOL    HW234350   8.009   3.844   1.293 -0.1118  0.0124  0.4317
11258SOL     OW34351   1.004   2.790   7.676 -0.5734  0.5268 -0.1760
11258SOL    HW134352   1.027   2.754   7.590 -2.6032  0.5730 -0.7902
11258SOL    HW234353   0.932   2.851   7.658 -1.0324  0.5460  1.5576
11259SOL     OW34354   9.468   1.350   6.844 -0.0016 -0.4791  0.0383
11259SOL    HW134355   9.440   1.350   6.753  0.9237  2.0339 -0.3152
11259SOL    HW234356   9.387   1.340   6.894 -0.8109  0.3986 -1.0443
11260SOL     OW34357   6.534   0.586   2.641  0.3308  0.2262 -0.0944
11260SOL    HW134358   6.572   0.644   2.575  1.2893  1.2265  1.2781
11260SOL    HW234359   6.440   0.595   2.630  0.4735  1.1495 -0.6802
11261SOL     OW34360   9.082   1.550   2.992  0.1991 -0.5412  0.0793
11261SOL    HW134361   9.004   1.606   2.990  0.2641 -0.3993  1.1465
11261SOL    HW234362   9.074   1.496   2.913  0.1115  0.9075 -0.9363
11262SOL     OW34363   4.755   2.260   9.446  0.4270 -0.2459 -0.2942
11262SOL    HW134364   4.765   2.189   9.509  0.2142 -1.0254 -1.1280
11262SOL    HW234365   4.757   2.339   9.499 -1.7908 -0.9487  0.9522
11263SOL     OW34366   9.943   1.482   9.944  0.4620 -0.4020  0.0535
11263SOL    HW134367   9.881   1.554   9.940 -0.1558 -0.9270  0.0105
11263SOL    HW234368   9.920   1.426   9.870 -0.0600 -1.4229  0.9448
11264SOL     OW34369   6.967   8.725   2.072  0.0589  0.0035 -0.0758
11264SOL    HW134370   6.876   8.728   2.041  0.0423 -0.7569 -0.1084
11264SOL    HW234371   7.000   8.814   2.057 -0.5562  0.1781 -0.4340
11265SOL     OW34372   9.191   9.859   4.315 -0.0701 -0.3282 -0.0671
11265SOL    HW134373   9.162   9.918   4.245 -1.2243 -0.8797 -0.0730
11265SOL    HW234374   9.232   9.786   4.269  0.9283  0.2122 -0.0753
11266SOL     OW34375   9.207   1.189   7.436  0.1686  0.1325 -0.1943
11266SOL    HW134376   9.265   1.171   7.362 -0.2292  1.8754 -0.9832
11266SOL    HW234377   9.255   1.254   7.488 -0.5123  0.6082 -0.1551
11267SOL     OW34378   0.052   9.750   5.605 -0.2544 -0.4829  0.0909
11267SOL    HW134379  -0.033   9.775   5.570 -0.4840 -0.1603  0.8646
11267SOL    HW234380   0.093   9.700   5.534 -0.5939  0.3782 -0.7455
11268SOL     OW34381   2.053   5.561   5.680 -0.0721 -0.1356 -0.2009
11268SOL    HW134382   2.031   5.469   5.690 -0.2413 -0.1786 -0.9266
11268SOL    HW234383   1.976   5.600   5.640  0.4780  0.0718 -1.0698
11269SOL     OW34384   4.177   4.382   1.725 -0.2759 -0.0216 -0.2481
11269SOL    HW134385   4.161   4.412   1.636 -1.6283 -0.0756 -0.0378
11269SOL    HW234386   4.195   4.289   1.716 -0.6020 -0.0667 -0.4465
11270SOL     OW34387   2.614   0.063   0.650  0.1927 -0.7214 -0.2012
11270SOL    HW134388   2.668   0.002   0.601  2.1495 -0.1455  1.0931
11270SOL    HW234389   2.634   0.044   0.742  0.1259  1.1836  0.2568
11271SOL     OW34390   9.263   0.533   2.831  0.1173 -0.0693  0.2056
11271SOL    HW134391   9.198   0.553   2.763 -1.3726 -0.1566  1.5406
11271SOL    HW234392   9.211   0.511   2.908  1.7154  1.1623  1.7330
11272SOL     OW34393   8.684   3.856   5.764  0.1802  0.5345  0.6701
11272SOL    HW134394   8.775   3.866   5.735  0.3613 -0.1141  0.9939
11272SOL    HW234395   8.691   3.838   5.858 -0.2127 -0.5879  0.4991
11273SOL     OW34396   4.263   1.854   5.413  0.5125  0.4672  0.0820
11273SOL    HW134397   4.240   1.945   5.435 -2.2434 -0.2276  0.5221
11273SOL    HW234398   4.316   1.824   5.488  1.6805  1.7469 -0.1966
11274SOL     OW34399   3.293   9.800   4.357 -0.0438 -0.3275 -0.7327
11274SOL    HW134400   3.224   9.734   4.345 -0.1543 -0.4055  0.2540
11274SOL    HW234401   3.332   9.809   4.270 -0.2942 -1.3953 -0.9770
11275SOL     OW34402   2.514   8.468   9.273 -0.2353 -0.5764  0.8037
11275SOL    HW134403   2.554   8.517   9.201 -0.1072 -0.1413  1.1720
11275SOL    HW234404   2.536   8.376   9.254 -0.0392 -0.4489  0.3929
11276SOL     OW34405   6.658   7.166   0.037 -0.2289  0.0975 -0.0355
11276SOL    HW134406   6.627   7.090  -0.012 -1.9798  0.5041  0.3668
11276SOL    HW234407   6.641   7.144   0.129 -1.6830  1.3061  0.0357
11277SOL     OW34408   5.467   0.914   0.334  0.2412 -0.0355  0.0973
11277SOL    HW134409   5.449   0.995   0.288 -0.8965 -0.5156 -0.3443
11277SOL    HW234410   5.474   0.848   0.265  2.8860 -0.0715  0.3072
11278SOL     OW34411   1.011   9.184   1.711 -0.3717 -0.0851 -0.4379
11278SOL    HW134412   0.923   9.215   1.689 -0.5676 -0.0292  0.4145
11278SOL    HW234413   1.061   9.264   1.727  0.4684  0.0302 -3.1127
11279SOL     OW34414   7.602   1.590   0.758 -0.2202  0.4075  0.6496
11279SOL    HW134415   7.685   1.588   0.806  1.4760 -0.4207 -2.1123
11279SOL    HW234416   7.555   1.512   0.789  1.1931 -0.5764  0.4379
11280SOL     OW34417   5.815   7.602   8.266 -0.5532  0.6528  0.1280
11280SOL    HW134418   5.765   7.520   8.265  1.2745 -0.5220 -0.7585
11280SOL    HW234419   5.771   7.658   8.202  0.8577 -1.4759 -2.9758
11281SOL     OW34420   3.056   4.920   5.119 -0.3917  0.7382 -0.8671
11281SOL    HW134421   3.062   4.984   5.048 -2.8023  2.0853  0.0411
11281SOL    HW234422   2.972   4.938   5.160  0.1084 -1.2400  1.1768
11282SOL     OW34423   3.034   6.379   7.500  0.2724 -0.2602  0.6631
11282SOL    HW134424   3.083   6.333   7.568  0.9053 -1.2765 -0.4593
11282SOL    HW234425   3.009   6.462   7.542 -0.3690 -1.3188  2.5281
11283SOL     OW34426   6.978   8.630   4.467  0.2367  1.1013  0.1187
11283SOL    HW134427   6.890   8.597   4.448 -0.5245  2.3172  1.3664
11283SOL    HW234428   6.964   8.706   4.524  2.1428  0.8352  1.0301
11284SOL     OW34429   7.528   2.443   0.743  0.2266 -0.3870  0.2101
11284SOL    HW134430   7.527   2.374   0.677  1.2088  0.1999 -0.4353
11284SOL    HW234431   7.510   2.398   0.825 -2.6547 -0.9077 -0.6105
11285SOL     OW34432   2.967   2.938   8.845 -0.0093 -0.3185 -0.1889
11285SOL    HW134433   3.063   2.939   8.835  0.0003 -0.6851 -0.1326
11285SOL    HW234434   2.953   2.926   8.939 -0.0986  2.7384  0.2860
11286SOL     OW34435   7.759   2.629   1.317  0.1558  0.4005  0.6915
11286SOL    HW134436   7.726   2.603   1.230 -1.3371  2.3280  0.6291
11286SOL    HW234437   7.723   2.563   1.376 -1.2012  0.6435  0.1828
11287SOL     OW34438   4.248   4.289   6.863 -0.0455  0.8466 -0.2203
11287SOL    HW134439   4.161   4.259   6.893 -0.0319 -0.6404 -1.5146
11287SOL    HW234440   4.288   4.326   6.941 -0.7648 -1.0513  1.1500
11288SOL     OW34441   1.631   9.554   3.431  0.3388 -0.0337 -0.3449
11288SOL    HW134442   1.644   9.515   3.344  1.2124 -1.2078  0.2764
11288SOL    HW234443   1.614   9.479   3.488  0.0031  0.7030  0.5511
11289SOL     OW34444   5.505   5.449   9.333  0.2571 -0.1948  0.1493
11289SOL    HW134445   5.417   5.437   9.298 -0.7316 -0.1122  2.4226
11289SOL    HW234446   5.491   5.487   9.420  2.4234 -1.9438  1.3613
11290SOL     OW34447   1.489   6.065   8.705 -0.1366 -0.1553  0.1420
11290SOL    HW134448   1.511   6.158   8.704  1.5180 -0.4258  2.5284
11290SOL    HW234449   1.393   6.063   8.715 -0.2137  1.2686 -0.1669
11291SOL     OW34450   0.291   3.960   2.851  0.3310  0.1008  0.1989
11291SOL    HW134451   0.385   3.946   2.849  0.6211  1.9237  0.0117
11291SOL    HW234452   0.263   3.925   2.936  1.2146 -0.1383  0.3939
11292SOL     OW34453   2.039   2.666   9.229  0.2006 -0.3899 -0.0022
11292SOL    HW134454   2.011   2.679   9.138  2.1289 -1.4708 -0.8267
11292SOL    HW234455   2.033   2.753   9.268  2.0749  0.7935 -2.0595
11293SOL     OW34456   5.815   4.289   5.556  0.1392 -0.2305  0.5504
11293SOL    HW134457   5.730   4.307   5.595 -0.3072  0.0824 -0.5281
11293SOL    HW234458   5.871   4.360   5.589 -0.7292  1.1897 -0.8964
11294SOL     OW34459   2.597   8.768   0.638  0.4067  0.5851  0.0581
11294SOL    HW134460   2.613   8.856   0.605 -1.5379 -0.0421 -3.0666
11294SOL    HW234461   2.508   8.771   0.672 -0.7423 -0.6142 -2.5248
11295SOL     OW34462   1.978   3.545   2.795 -0.0784 -0.2131  0.2735
11295SOL    HW134463   2.011   3.541   2.885  2.3824  3.8819 -0.2409
11295SOL    HW234464   1.891   3.584   2.803  0.3975  0.7461  0.8442
11296SOL     OW34465   8.100   3.613   7.513  0.0094 -0.1984 -0.2473
11296SOL    HW134466   8.099   3.519   7.527 -0.2772 -0.2866 -0.8116
11296SOL    HW234467   8.073   3.624   7.422 -0.6453  0.4614  0.0137
11297SOL     OW34468   1.071   1.764   8.584  0.0682 -0.1598 -0.2245
11297SOL    HW134469   1.149   1.718   8.552 -1.1334 -1.4046 -1.4968
11297SOL    HW234470   1.012   1.694   8.613 -0.2909  0.7900  1.4789
11298SOL     OW34471   4.183   3.706   9.536 -0.0433 -0.0912 -0.6575
11298SOL    HW134472   4.271   3.744   9.541  0.1932 -0.7585  0.6360
11298SOL    HW234473   4.195   3.615   9.562 -1.0579 -0.3113 -0.9213
11299SOL     OW34474   8.477   4.362   2.310  0.1735 -0.6963  0.2304
11299SOL    HW134475   8.479   4.441   2.364  1.9607 -1.1209  0.8370
11299SOL    HW234476   8.501   4.392   2.223 -2.6974 -0.0123 -0.4577
11300SOL     OW34477   1.960   1.537   4.391  0.4441  0.1391  0.2989
11300SOL    HW134478   1.981   1.472   4.457  1.5834 -0.5292 -0.6886
11300SOL    HW234479   2.032   1.600   4.394  0.8763 -0.2778 -0.7612
11301SOL     OW34480   9.198   1.744   1.501 -0.2361 -0.5591 -0.1379
11301SOL    HW134481   9.190   1.819   1.560  1.3527  1.4126 -2.2550
11301SOL    HW234482   9.125   1.755   1.440  1.0867  0.4598 -1.6116
11302SOL     OW34483   7.236   7.436   3.575  0.5267 -0.0783 -0.2804
11302SOL    HW134484   7.188   7.357   3.602  0.4114  0.2344  0.4459
11302SOL    HW234485   7.188   7.508   3.615 -0.1669  0.4912 -2.0496
11303SOL     OW34486   5.869   6.615   2.835 -0.5972  0.6277 -0.1226
11303SOL    HW134487   5.821   6.635   2.915 -0.4302 -0.3998  0.2499
11303SOL    HW234488   5.803   6.578   2.776 -0.4032 -0.2087  0.1683
11304SOL     OW34489   4.709   5.542   1.879  0.0026 -0.0161  0.2856
11304SOL    HW134490   4.689   5.504   1.793 -1.3464 -1.0961  1.0343
11304SOL    HW234491   4.700   5.469   1.940  1.4243  0.6234  1.3149
11305SOL     OW34492   6.496   5.125   8.485 -0.0213 -0.9981  0.7150
11305SOL    HW134493   6.446   5.185   8.540 -0.5801  0.6954 -1.5091
11305SOL    HW234494   6.431   5.089   8.425  0.7929 -1.7586  0.2767
11306SOL     OW34495   1.896   1.542   5.853  0.5138  0.3960  0.1397
11306SOL    HW134496   1.890   1.589   5.770 -0.5066 -0.3078 -0.2123
11306SOL    HW234497   1.989   1.537   5.872  0.7350  0.8735 -0.7831
11307SOL     OW34498   1.187   5.277   4.333  0.0570 -0.6394  0.0440
11307SOL    HW134499   1.275   5.242   4.314  0.5542  0.0770  0.9200
11307SOL    HW234500   1.151   5.216   4.398 -0.1065 -0.9458 -0.3318
11308SOL     OW34501   6.212   9.477   7.549 -0.3777 -0.5610  0.0047
11308SOL    HW134502   6.243   9.549   7.604 -0.9825 -0.0059 -0.3618
11308SOL    HW234503   6.257   9.488   7.466  0.1151 -1.0700  0.1997
11309SOL     OW34504   9.897   7.885   3.656 -0.7268 -0.3648  0.0752
11309SOL    HW134505   9.854   7.831   3.722 -0.6027 -1.0521 -0.3996
11309SOL    HW234506   9.920   7.824   3.586 -1.6415  0.4818 -1.0140
11310SOL     OW34507   8.506   6.847   4.132 -0.6191  0.3342  0.2760
11310SOL    HW134508   8.551   6.769   4.162  1.2511  1.3364  0.2029
11310SOL    HW234509   8.480   6.827   4.042 -0.9721 -0.5021  0.5503
11311SOL     OW34510   9.333   8.221   0.241 -0.6846  0.8164 -0.4176
11311SOL    HW134511   9.288   8.148   0.284 -1.9427  1.6173 -0.3327
11311SOL    HW234512   9.426   8.208   0.264 -0.4797 -2.0952 -2.3954
11312SOL     OW34513   8.682   8.975   2.727 -0.3227  0.2365 -0.5098
11312SOL    HW134514   8.614   8.935   2.674 -0.6115  2.4886 -1.9652
11312SOL    HW234515   8.763   8.959   2.678 -0.2970  0.5516 -0.5714
11313SOL     OW34516   2.620   5.293   2.687 -0.1604  0.3679 -0.1355
11313SOL    HW134517   2.690   5.357   2.703  0.0465  0.5796 -1.6697
11313SOL    HW234518   2.602   5.302   2.593 -1.0112 -0.9503 -0.1129
11314SOL     OW34519   9.225   1.830   3.949  0.6195 -0.3373  0.0554
11314SOL    HW134520   9.175   1.778   3.886 -1.8286  1.9751 -0.0835
11314SOL    HW234521   9.303   1.856   3.901  0.3131 -1.1672 -0.9480
11315SOL     OW34522   4.328   3.775   2.357  0.0899  0.2178 -0.2086
11315SOL    HW134523   4.391   3.713   2.322  0.6913  0.1917  0.8672
11315SOL    HW234524   4.358   3.861   2.326  0.3593  0.1563 -0.1152
11316SOL     OW34525   5.204   7.668   9.635  0.4642  0.4612 -0.4274
11316SOL    HW134526   5.277   7.619   9.597  1.4650  0.8299  0.9672
11316SOL    HW234527   5.197   7.747   9.582  1.7588  0.9059  0.0308
11317SOL     OW34528   6.739   7.418   6.622  0.1170 -0.3149  0.1787
11317SOL    HW134529   6.684   7.494   6.640  3.2751  2.4890 -0.9316
11317SOL    HW234530   6.707   7.386   6.537 -0.3541  0.7410 -0.0670
11318SOL     OW34531   1.169   4.500   8.815 -0.0673 -0.3413 -0.1335
11318SOL    HW134532   1.255   4.460   8.804 -0.5514 -1.9443  1.4062
11318SOL    HW234533   1.109   4.441   8.770 -0.5921 -0.4208  0.6452
11319SOL     OW34534   7.437   9.495   5.947  0.2335  0.7233 -0.2689
11319SOL    HW134535   7.376   9.548   5.998  0.4260 -0.3581  1.1805
11319SOL    HW234536   7.497   9.558   5.907 -1.6916  1.7942 -1.5844
11320SOL     OW34537   5.528   8.755   2.173 -0.0428 -0.3195  0.2463
11320SOL    HW134538   5.560   8.664   2.170 -1.3280 -0.8372  1.3162
11320SOL    HW234539   5.433   8.747   2.163 -0.1286  0.9524 -0.0863
11321SOL     OW34540   3.181   3.505   6.434  0.1062 -0.5977 -0.2405
11321SOL    HW134541   3.119   3.563   6.389 -0.6796 -1.0204  0.2835
11321SOL    HW234542   3.132   3.425   6.450  1.4621 -1.8465 -1.8462
11322SOL     OW34543   7.308   8.776   4.026 -0.7898 -1.0497 -0.2272
11322SOL    HW134544   7.382   8.716   4.027 -0.7060 -0.9744  1.3937
11322SOL    HW234545   7.260   8.756   4.106 -1.2756  0.3884 -0.1244
11323SOL     OW34546   2.026   2.997   2.318 -0.1636 -0.1916  0.0482
11323SOL    HW134547   2.045   3.084   2.284 -0.1269 -0.4012 -0.4870
11323SOL    HW234548   1.976   2.954   2.248 -1.5850 -0.0553  0.9512
11324SOL     OW34549   4.600   3.008   2.983 -0.2079 -0.1798 -0.5424
11324SOL    HW134550   4.551   3.022   2.902 -0.0901  0.0234 -0.5807
11324SOL    HW234551   4.668   3.076   2.982  0.8504 -1.2108 -1.0867
11325SOL     OW34552   0.783   5.019   7.883  0.9151 -0.1720 -0.4328
11325SOL    HW134553   0.830   5.079   7.824  1.2635  1.4395  1.3947
11325SOL    HW234554   0.811   5.045   7.971  0.1471 -2.2805  0.4989
11326SOL     OW34555   7.794   3.531   8.053 -0.7408  1.3233  0.9800
11326SOL    HW134556   7.826   3.617   8.026 -0.0415  0.7225 -0.1795
11326SOL    HW234557   7.873   3.478   8.065 -1.1958  0.4947  0.4380
11327SOL     OW34558   1.987   2.398   1.187  0.0077 -0.1131 -0.3683
11327SOL    HW134559   2.017   2.389   1.277 -0.0840  0.6295 -0.2523
11327SOL    HW234560   1.988   2.492   1.171  1.4474 -0.3213 -1.6464
11328SOL     OW34561   1.104   3.669   0.041  0.3536  0.6022 -0.1602
11328SOL    HW134562   1.071   3.614  -0.030  1.3664 -0.1752 -0.0531
11328SOL    HW234563   1.105   3.612   0.118 -0.2290  1.2835  0.3666
11329SOL     OW34564   4.599   8.527   6.137 -0.1264  0.0148  0.0441
11329SOL    HW134565   4.550   8.595   6.182 -1.1956 -2.2608  2.5851
11329SOL    HW234566   4.681   8.519   6.186  1.3252  1.3389 -2.0033
11330SOL     OW34567   3.495   0.909   4.210  0.4862  0.2678 -0.0666
11330SOL    HW134568   3.500   0.874   4.299 -1.0480 -1.2292 -0.5222
11330SOL    HW234569   3.498   0.832   4.154  2.6615  1.2458 -1.4277
11331SOL     OW34570   2.111   9.625   9.756 -0.1808  0.5920  0.6664
11331SOL    HW134571   2.193   9.593   9.719 -0.5138 -0.7874  1.0752
11331SOL    HW234572   2.043   9.590   9.699 -0.5047  2.0028  0.1280
11332SOL     OW34573   9.286   6.537   2.697  0.0585 -0.3977 -0.0839
11332SOL    HW134574   9.374   6.498   2.705 -0.0413 -0.8906 -1.1160
11332SOL    HW234575   9.230   6.463   2.673 -0.1013  0.3776 -2.3219
11333SOL     OW34576   2.487   4.195   1.913  0.0667  0.8964 -0.3649
11333SOL    HW134577   2.424   4.183   1.983 -0.8951  1.0235 -1.1847
11333SOL    HW234578   2.551   4.125   1.925 -0.7944  0.1412 -0.1151
11334SOL     OW34579   6.712   7.752   3.200  0.3037  0.0953 -0.5983
11334SOL    HW134580   6.648   7.681   3.205  1.5065 -1.0131 -0.3559
11334SOL    HW234581   6.789   7.719   3.246  0.9215  1.5501 -0.5080
11335SOL     OW34582   1.813   0.787   3.905 -0.5750 -0.0013 -0.2235
11335SOL    HW134583   1.827   0.870   3.859 -2.4157  0.3906 -0.1601
11335SOL    HW234584   1.899   0.744   3.904  0.3824  1.7953 -0.4458
11336SOL     OW34585   4.966   8.816   1.403  0.7220 -0.1551  0.1968
11336SOL    HW134586   4.886   8.764   1.403 -0.7939  1.9203  2.5384
11336SOL    HW234587   4.948   8.887   1.340  1.0270 -0.1120  0.1586
11337SOL     OW34588   2.873   0.569   7.621 -0.2735 -0.2542 -0.4026
11337SOL    HW134589   2.846   0.631   7.552 -0.2630  0.2631  0.0555
11337SOL    HW234590   2.882   0.622   7.699  3.3589 -0.0971 -0.7439
11338SOL     OW34591   1.177   9.931   6.307 -0.6428 -0.6307  0.1492
11338SOL    HW134592   1.273   9.930   6.297 -0.6515 -3.4300 -0.3681
11338SOL    HW234593   1.151  10.017   6.274  1.6876  0.2512  0.4054
11339SOL     OW34594   4.276   4.324   4.691 -0.1981  0.0408  0.0725
11339SOL    HW134595   4.217   4.306   4.765  0.5515 -0.7867  0.4983
11339SOL    HW234596   4.245   4.267   4.621  0.7273 -1.2120  0.6491
11340SOL     OW34597   7.291   8.415   7.988 -0.1246  0.0087  0.6108
11340SOL    HW134598   7.311   8.412   8.082 -0.8351  0.2440  0.7738
11340SOL    HW234599   7.237   8.493   7.977  0.7059  0.4960 -0.1530
11341SOL     OW34600   1.412   0.917   2.255  0.2872  0.1183 -0.1298
11341SOL    HW134601   1.454   0.868   2.326  0.2965  1.2864  0.7127
11341SOL    HW234602   1.369   0.990   2.300 -1.9242 -0.5489 -1.0467
11342SOL     OW34603   1.416   4.708   8.640  0.0955 -0.4082  0.2639
11342SOL    HW134604   1.447   4.627   8.681  2.1328  0.6653  1.0030
11342SOL    HW234605   1.426   4.693   8.546  1.0945 -0.8216  0.4212
11343SOL     OW34606   9.473   3.379   1.165 -0.1491  0.2160  0.1427
11343SOL    HW134607   9.429   3.295   1.175  0.1204 -0.0583 -0.8376
11343SOL    HW234608   9.546   3.361   1.106 -1.3720  1.5446 -1.9165
11344SOL     OW34609   4.830   2.272   4.313 -0.6142 -0.2130 -0.1699
11344SOL    HW134610   4.829   2.366   4.333 -0.8074 -0.1823 -0.3171
11344SOL    HW234611   4.918   2.256   4.279 -1.1578  0.3014 -1.9149
11345SOL     OW34612   5.651   5.559   9.078 -0.2483  0.0504  0.1951
11345SOL    HW134613   5.568   5.593   9.044 -1.5130 -0.3417  2.6866
11345SOL    HW234614   5.676   5.620   9.147  1.4011 -0.0426 -0.2665
11346SOL     OW34615   6.951   5.849   8.405 -0.0233  0.4117  0.3156
11346SOL    HW134616   7.014   5.899   8.353  1.4353 -2.9483 -1.4828
11346SOL    HW234617   6.892   5.810   8.341  0.0585 -1.5831  1.3523
11347SOL     OW34618   2.200   9.698   6.272  0.0798  0.1614 -0.1330
11347SOL    HW134619   2.156   9.621   6.235  0.6926 -1.0179  1.4356
11347SOL    HW234620   2.255   9.731   6.201 -1.1146 -0.0893 -1.2161
11348SOL     OW34621   6.866   1.584   6.173 -0.2860  0.1173 -0.6175
11348SOL    HW134622   6.792   1.636   6.204  0.2014  0.3296  0.2168
11348SOL    HW234623   6.830   1.531   6.101 -1.3759 -0.1583  0.1135
11349SOL     OW34624   5.841   1.089   9.156  0.1755 -0.3282  0.2186
11349SOL    HW134625   5.868   1.180   9.140 -1.5032  0.2762  0.6022
11349SOL    HW234626   5.917   1.049   9.198  0.9738  0.8768 -0.0255
11350SOL     OW34627   8.064   2.954   2.429  0.0984 -0.1331  0.3246
11350SOL    HW134628   8.051   3.008   2.507  0.2596  0.0881  0.2000
11350SOL    HW234629   7.990   2.894   2.429 -0.5237  0.6228  0.0266
11351SOL     OW34630   4.156   5.747   8.286  0.2461 -0.2076  0.5791
11351SOL    HW134631   4.203   5.700   8.356  2.1331  0.9357  0.1630
11351SOL    HW234632   4.145   5.836   8.321  1.7072  0.5389 -0.7223
11352SOL     OW34633   1.557   9.531   9.261  0.1179  0.1419  0.8006
11352SOL    HW134634   1.587   9.477   9.334  1.5138 -1.3198 -0.7579
11352SOL    HW234635   1.479   9.575   9.293  0.8816 -0.1726  3.2711
11353SOL     OW34636   5.222   4.845   2.396  0.0475  0.1041 -0.6443
11353SOL    HW134637   5.152   4.884   2.448  0.0617 -1.0279  0.2463
11353SOL    HW234638   5.273   4.794   2.458  0.6770 -0.4510 -1.5918
11354SOL     OW34639   3.670   8.693   9.598 -0.4783 -0.0339 -0.2616
11354SOL    HW134640   3.712   8.746   9.666 -1.3032 -0.7882  0.8585
11354SOL    HW234641   3.577   8.702   9.615 -0.6765 -0.6013 -1.0306
11355SOL     OW34642   6.195   3.401   6.268  0.4315 -0.3775  0.3783
11355SOL    HW134643   6.182   3.426   6.176 -0.5951 -0.0059  0.6102
11355SOL    HW234644   6.115   3.430   6.312  0.2071 -2.0073  1.1007
11356SOL     OW34645   8.432   1.500   1.669  0.3928  0.0307 -0.1009
11356SOL    HW134646   8.471   1.585   1.646  0.4557  0.2873  0.9119
11356SOL    HW234647   8.482   1.436   1.618  1.2357  0.4828  0.1362
11357SOL     OW34648   7.872   9.063   6.098  0.1948 -0.0112 -0.7326
11357SOL    HW134649   7.838   9.140   6.051  2.9474  0.9663 -1.3067
11357SOL    HW234650   7.886   9.094   6.187  0.9342  0.0389 -0.8662
11358SOL     OW34651   9.900   0.863   5.147  0.2691 -0.6998  0.5203
11358SOL    HW134652   9.812   0.851   5.110  1.0650  0.4271 -1.8872
11358SOL    HW234653   9.936   0.774   5.152 -1.5173 -1.4122  3.1797
11359SOL     OW34654   3.729   4.970   1.017 -0.1982  0.2682 -0.2672
11359SOL    HW134655   3.670   5.036   1.052 -1.9970 -0.7679 -1.2245
11359SOL    HW234656   3.690   4.887   1.042  0.7909 -0.4549 -1.0335
11360SOL     OW34657   1.473   4.885   2.361 -0.2737  0.3999  0.8690
11360SOL    HW134658   1.482   4.974   2.394 -0.1855  0.7531 -0.0741
11360SOL    HW234659   1.473   4.830   2.439 -0.0751  1.2046  1.4454
11361SOL     OW34660   5.272   1.247   5.799  0.2458 -0.4951  1.1744
11361SOL    HW134661   5.344   1.297   5.762  1.3105 -3.2520 -0.8601
11361SOL    HW234662   5.301   1.223   5.887  0.8017  0.3100  1.2114
11362SOL     OW34663   3.179   8.831   3.818 -0.1266 -0.0569  0.1851
11362SOL    HW134664   3.232   8.777   3.760  0.6569 -1.3648  2.0304
11362SOL    HW234665   3.242   8.888   3.862 -0.3339 -0.9135  1.6447
11363SOL     OW34666   2.607   6.790   1.321  0.1541 -0.2426 -0.5331
11363SOL    HW134667   2.643   6.717   1.373 -1.2838 -1.8897 -1.7465
11363SOL    HW234668   2.635   6.868   1.369  2.7545 -1.4806  0.2196
11364SOL     OW34669   7.668   0.229   3.889 -0.5528 -0.0065  0.3354
11364SOL    HW134670   7.588   0.242   3.839  0.3334 -0.4035 -1.2366
11364SOL    HW234671   7.711   0.315   3.889 -0.1197 -0.2131 -0.3911
11365SOL     OW34672   7.718   7.247   0.277 -0.4864  0.8080  0.2253
11365SOL    HW134673   7.654   7.303   0.320 -0.0668  0.4889  1.2832
11365SOL    HW234674   7.802   7.290   0.293  0.1509 -1.1971  3.0289
11366SOL     OW34675   5.542   9.573   0.801 -0.0626  0.1640 -0.0059
11366SOL    HW134676   5.450   9.554   0.819 -0.0590 -1.0142 -1.0513
11366SOL    HW234677   5.543   9.662   0.767 -0.3777  1.4372  3.0830
11367SOL     OW34678   0.096   2.882   5.883  0.4018  0.1331  0.5995
11367SOL    HW134679   0.080   2.973   5.857  0.8295  0.1025  0.1990
11367SOL    HW234680   0.176   2.858   5.836 -0.3727 -0.8444 -0.2745
11368SOL     OW34681   5.337   7.923   6.676 -0.3140 -0.4320  0.8257
11368SOL    HW134682   5.298   7.907   6.590 -1.3513 -2.0729  1.5616
11368SOL    HW234683   5.306   7.851   6.730  1.2609 -0.0647  2.2903
11369SOL     OW34684   0.381   3.729   4.719 -0.2011 -0.2327  0.1937
11369SOL    HW134685   0.475   3.744   4.712 -0.2275 -0.5654 -1.2139
11369SOL    HW234686   0.373   3.636   4.742 -0.1788  0.2723  2.5374
11370SOL     OW34687   1.553   1.467   3.802  0.0531 -0.0675  0.0755
11370SOL    HW134688   1.484   1.411   3.766  1.1430 -1.1023 -0.4540
11370SOL    HW234689   1.621   1.468   3.735  0.6295  0.8398  0.6425
11371SOL     OW34690   5.940   8.428   4.186  0.1393 -0.5021  0.0197
11371SOL    HW134691   5.869   8.390   4.238 -0.0036 -1.1014 -0.6005
11371SOL    HW234692   5.904   8.510   4.152  0.6076  0.4833  1.7532
11372SOL     OW34693   9.407   8.161   8.216  0.0059 -0.2081 -0.1098
11372SOL    HW134694   9.388   8.247   8.178 -0.1730 -1.0735 -2.0486
11372SOL    HW234695   9.348   8.155   8.291  0.7579  1.7572  0.7318
11373SOL     OW34696   4.223   6.441   9.781  0.0524 -0.3104 -0.0850
11373SOL    HW134697   4.194   6.530   9.798  0.3368 -0.1577 -0.3686
11373SOL    HW234698   4.303   6.452   9.729  1.1315 -0.6917  1.4390
11374SOL     OW34699   6.863   8.378   6.139  0.0744 -0.1635  0.4148
11374SOL    HW134700   6.921   8.412   6.071  1.0073 -1.3729  0.5732
11374SOL    HW234701   6.871   8.283   6.133 -1.0035 -0.3349  1.2223
11375SOL     OW34702   6.863   9.027   9.032  0.4881  0.1144  0.1370
11375SOL    HW134703   6.936   9.085   9.052  0.0965  0.9310 -0.7520
11375SOL    HW234704   6.848   9.039   8.938 -1.6361  0.9844  0.5348
11376SOL     OW34705   2.679   5.119   7.089  0.1847 -0.4449  0.8248
11376SOL    HW134706   2.758   5.171   7.100  2.0308 -3.0106  0.6245
11376SOL    HW234707   2.669   5.110   6.994  0.6885 -1.5148  0.8553
11377SOL     OW34708   1.641   0.743   5.492  0.2172  0.4803  0.2900
11377SOL    HW134709   1.703   0.691   5.542 -0.1746  0.2239  0.5175
11377SOL    HW234710   1.695   0.795   5.432  0.5806 -0.5430 -0.2867
11378SOL     OW34711   0.737   9.604   2.304  0.3767  0.3367  0.2193
11378SOL    HW134712   0.701   9.615   2.393  2.0996 -0.6093  1.0939
11378SOL    HW234713   0.785   9.685   2.288 -1.7563  1.4903 -0.8462
11379SOL     OW34714   4.064   7.201   3.911  0.5401  0.0617 -0.3113
11379SOL    HW134715   4.084   7.273   3.970 -0.9991  0.3096 -0.0550
11379SOL    HW234716   4.076   7.238   3.823  0.8893  0.2697 -0.1794
11380SOL     OW34717   5.306   1.674   0.692 -0.1005 -0.2991  0.2056
11380SOL    HW134718   5.248   1.739   0.652 -0.7590 -0.7912  0.3324
11380SOL    HW234719   5.249   1.600   0.710 -0.0871  0.3019  3.1085
11381SOL     OW34720   4.779   2.767   8.467  0.1723  0.5323  1.4053
11381SOL    HW134721   4.760   2.673   8.475  1.0024  0.2516  0.3080
11381SOL    HW234722   4.709   2.809   8.518 -1.2920 -0.5979  0.4475
11382SOL     OW34723   3.379   2.185   0.079 -0.2045 -0.4560  0.3393
11382SOL    HW134724   3.462   2.219   0.046  0.0797 -0.8667  0.6133
11382SOL    HW234725   3.329   2.164   0.000  0.2083 -0.8098  0.1670
11383SOL     OW34726   8.195   8.505   0.874  0.1699 -0.0140 -0.4677
11383SOL    HW134727   8.155   8.432   0.921  0.4718  0.2814  0.2746
11383SOL    HW234728   8.165   8.583   0.922  0.1469  0.3268 -1.0265
11384SOL     OW34729   1.349   1.216   7.857 -0.5109 -0.0427 -0.5816
11384SOL    HW134730   1.299   1.252   7.784 -1.1818 -0.6401 -0.4233
11384SOL    HW234731   1.385   1.292   7.902 -3.0287  0.5828  0.5675
11385SOL     OW34732   8.267   5.445   2.743  0.4001  0.3910  0.0298
11385SOL    HW134733   8.205   5.389   2.696 -0.1068  1.6656 -0.8890
11385SOL    HW234734   8.353   5.413   2.716  0.1224  0.1496 -0.5908
11386SOL     OW34735   3.812   0.532   2.536  0.4367  0.1479 -0.4212
11386SOL    HW134736   3.905   0.520   2.555  0.5722  1.6241 -0.0147
11386SOL    HW234737   3.773   0.557   2.620 -0.3139 -0.3148 -0.6171
11387SOL     OW34738   8.862   5.961   4.267 -0.7256 -0.4833 -0.0922
11387SOL    HW134739   8.831   5.873   4.286  0.5776 -1.2284 -1.2060
11387SOL    HW234740   8.920   5.950   4.192  2.4507  0.7269  1.9731
11388SOL     OW34741   0.798   5.533   6.527  0.2024 -0.0012  0.2286
11388SOL    HW134742   0.748   5.471   6.474  1.9183 -0.1355 -1.3185
11388SOL    HW234743   0.769   5.619   6.497 -0.1825 -0.0492  0.4430
11389SOL     OW34744   7.634   7.286   3.504  0.1243 -0.3235 -0.2409
11389SOL    HW134745   7.542   7.271   3.524 -0.0257 -0.3082 -0.9079
11389SOL    HW234746   7.637   7.375   3.468  0.3166 -0.5274 -0.7356
11390SOL     OW34747   3.554   2.992   7.449  0.5267 -0.9059  0.0469
11390SOL    HW134748   3.638   2.983   7.404  0.7771 -0.9882  0.5324
11390SOL    HW234749   3.489   2.992   7.378  0.8975 -1.3536 -0.2963
11391SOL     OW34750   9.103   1.640   5.970 -0.4465 -0.3622 -0.1034
11391SOL    HW134751   9.066   1.721   6.006 -1.3765 -0.8447  0.0492
11391SOL    HW234752   9.062   1.631   5.883  0.4054 -0.1583 -0.5390
11392SOL     OW34753   0.756   4.382   6.057 -0.4786 -0.8741 -0.3636
11392SOL    HW134754   0.720   4.298   6.029 -2.2546 -0.5521  0.7988
11392SOL    HW234755   0.811   4.362   6.132 -0.2257 -1.0869 -0.6046
11393SOL     OW34756   2.045   4.212   1.726 -0.2649 -0.2237  0.2436
11393SOL    HW134757   1.998   4.149   1.672 -1.9889  0.4987  0.8553
11393SOL    HW234758   2.034   4.180   1.816  0.3875 -0.0237  0.4006
11394SOL     OW34759   9.899   0.178   0.459 -0.1731  0.1678 -0.1545
11394SOL    HW134760   9.860   0.178   0.372  1.2411  1.1714 -0.8330
11394SOL    HW234761   9.973   0.118   0.452  0.0788  0.4212  0.2979
11395SOL     OW34762   1.865   7.201   9.286  0.3548  0.0994 -0.1416
11395SOL    HW134763   1.934   7.155   9.239  0.3424  0.1987 -0.2578
11395SOL    HW234764   1.791   7.140   9.286  0.8636 -0.5443  1.1359
11396SOL     OW34765   6.358   2.340   1.977  0.0871  0.6206  0.4525
11396SOL    HW134766   6.379   2.425   2.015 -1.2346  0.4745  1.6133
11396SOL    HW234767   6.264   2.344   1.961  0.2407 -0.1540 -0.7583
11397SOL     OW34768   8.646   0.765   5.979  0.5039  0.1865 -0.0032
11397SOL    HW134769   8.640   0.740   5.887 -0.6418 -0.7229  0.2890
11397SOL    HW234770   8.632   0.684   6.027 -0.1886  0.8578  0.9787
11398SOL     OW34771   2.729   7.399   9.271 -0.0254 -0.1353 -0.3565
11398SOL    HW134772   2.672   7.397   9.194 -0.7383 -2.2638  0.1497
11398SOL    HW234773   2.748   7.307   9.289 -1.6782  0.0572  3.2649
11399SOL     OW34774   9.417   1.983   1.145  0.0224 -0.2425 -0.3384
11399SOL    HW134775   9.377   2.048   1.203  0.8313  1.4199 -1.5430
11399SOL    HW234776   9.342   1.936   1.108 -0.6030  0.1109  0.4264
11400SOL     OW34777   7.023   3.873   5.334 -0.7524 -0.5573  0.1787
11400SOL    HW134778   6.976   3.797   5.369 -2.4428  0.3450 -0.0181
11400SOL    HW234779   7.040   3.851   5.242 -1.7018 -0.5186 -0.0190
11401SOL     OW34780   9.759   5.486   6.466 -0.2104  0.1343  0.6906
11401SOL    HW134781   9.750   5.395   6.494  0.5286 -0.5863 -1.2121
11401SOL    HW234782   9.700   5.494   6.391  1.7363  0.3548 -0.9075
11402SOL     OW34783   4.930   7.160   7.712  0.0461 -0.1760 -0.5568
11402SOL    HW134784   4.935   7.137   7.619 -1.4663 -1.3156 -0.3983
11402SOL    HW234785   4.998   7.107   7.753  0.2348 -0.2258 -0.9282
11403SOL     OW34786   7.144   0.992   9.822 -0.2060 -0.1870 -0.1682
11403SOL    HW134787   7.062   0.994   9.871  1.0873  3.2171  2.2090
11403SOL    HW234788   7.127   1.044   9.743  0.0952  2.4097  1.3698
11404SOL     OW34789   1.366   0.251   4.064  0.3811  0.7357  0.3727
11404SOL    HW134790   1.451   0.242   4.107  0.4583 -2.0702 -0.1995
11404SOL    HW234791   1.385   0.235   3.971 -0.8816 -0.8950  0.3717
11405SOL     OW34792   2.550   6.200   0.294  0.3574 -0.1133  0.1477
11405SOL    HW134793   2.455   6.188   0.288  0.1608  1.2710  0.0342
11405SOL    HW234794   2.580   6.132   0.354 -0.5355 -1.3008 -0.7002
11406SOL     OW34795   3.213   2.788   2.092  0.0235 -1.1767  0.2479
11406SOL    HW134796   3.131   2.739   2.101  0.1647 -1.3714  0.4967
11406SOL    HW234797   3.212   2.822   2.003 -0.7248 -0.4704  0.5093
11407SOL     OW34798   9.281   9.633   4.191  0.3326  0.7129  0.9719
11407SOL    HW134799   9.343   9.574   4.234 -1.6005 -2.7654 -0.5206
11407SOL    HW234800   9.304   9.628   4.099 -2.0954 -0.8149  0.3568
11408SOL     OW34801   9.433   4.705   9.366 -0.2640  0.0158 -0.2645
11408SOL    HW134802   9.406   4.661   9.446 -0.4426 -1.0514 -0.8864
11408SOL    HW234803   9.419   4.640   9.297  3.1257 -0.4188 -0.7530
11409SOL     OW34804   0.358   6.884   0.159  0.1510 -0.1115 -0.2263
11409SOL    HW134805   0.342   6.790   0.166 -1.5522  0.1830  0.3984
11409SOL    HW234806   0.363   6.901   0.065  0.0315 -0.7671 -0.3524
11410SOL     OW34807   8.579   6.961   9.112  0.0262  0.1018  0.0762
11410SOL    HW134808   8.600   6.984   9.203 -2.4727  2.8297  0.1139
11410SOL    HW234809   8.629   7.023   9.059 -0.6371  0.3987 -0.2251
11411SOL     OW34810   7.945   0.907   1.507 -0.5520  0.5100  0.4154
11411SOL    HW134811   7.964   0.854   1.585  0.8054  0.3182 -0.0057
11411SOL    HW234812   7.853   0.929   1.515 -1.0600 -1.5378  0.8508
11412SOL     OW34813   5.003   3.703   0.949  0.0666  0.5175 -0.0494
11412SOL    HW134814   5.085   3.686   0.904  0.5904  2.5841  0.0300
11412SOL    HW234815   5.012   3.657   1.033  0.3342 -0.8059 -0.7701
11413SOL     OW34816   8.903   8.552   1.585  0.0708 -0.5318 -1.0077
11413SOL    HW134817   8.855   8.483   1.539  0.6622 -1.2295 -0.5998
11413SOL    HW234818   8.981   8.508   1.619  0.6446  0.4344 -1.0668
11414SOL     OW34819   0.971   1.976   6.156 -0.2095  0.0816  0.3724
11414SOL    HW134820   0.981   2.043   6.224 -1.0537  0.4780  0.1172
11414SOL    HW234821   1.009   2.015   6.078 -0.3349  0.1040  0.3225
11415SOL     OW34822   0.974   3.867   9.373 -0.3284  0.0979  0.1728
11415SOL    HW134823   0.896   3.814   9.359 -0.0244 -0.4181  0.4062
11415SOL    HW234824   1.039   3.806   9.410  0.2408  0.4762 -0.1832
11416SOL     OW34825   9.585   0.096   1.086 -0.6052  0.3763 -0.2703
11416SOL    HW134826   9.500   0.067   1.120 -0.1162  1.0613  1.6637
11416SOL    HW234827   9.605   0.035   1.015 -0.2878 -3.1604  2.6244
11417SOL     OW34828   9.718   7.966   7.968 -0.5778 -0.1952  0.1109
11417SOL    HW134829   9.674   7.952   8.052 -1.1869 -0.6712 -0.2830
11417SOL    HW234830   9.648   7.961   7.903 -0.2503  1.0127 -0.3697
11418SOL     OW34831   4.812   5.183   2.264 -0.1080 -0.1041 -0.1186
11418SOL    HW134832   4.759   5.104   2.276 -1.2522  0.6175 -0.2945
11418SOL    HW234833   4.804   5.230   2.346 -1.4222  0.9868 -0.8472
11419SOL     OW34834   3.362   4.237   9.633 -0.1315 -0.6246  0.2882
11419SOL    HW134835   3.453   4.256   9.657 -0.8857  0.2793  2.8098
11419SOL    HW234836   3.313   4.251   9.714 -2.6185 -0.4365 -1.1500
11420SOL     OW34837   0.723   7.626   5.215 -0.4267 -0.4479  0.1944
11420SOL    HW134838   0.817   7.646   5.207 -0.3871 -0.5685  0.3469
11420SOL    HW234839   0.706   7.629   5.309 -0.7406  0.3064  0.1251
11421SOL     OW34840   6.419   2.832   3.201  0.3324 -0.0375 -0.0742
11421SOL    HW134841   6.436   2.862   3.290  0.6309 -0.2319 -0.0629
11421SOL    HW234842   6.472   2.753   3.192  1.4649  0.7890 -0.9179
11422SOL     OW34843   3.423   5.001   2.538  0.1285 -0.4923  0.3066
11422SOL    HW134844   3.411   4.918   2.586  0.6123  0.0546  1.4146
11422SOL    HW234845   3.395   5.068   2.601  0.9452  0.2595 -0.1221
11423SOL     OW34846   6.644   4.874   6.571 -0.2378  0.0058 -0.2887
11423SOL    HW134847   6.699   4.796   6.566 -0.2441 -0.0119 -0.0601
11423SOL    HW234848   6.705   4.946   6.580 -0.1938  0.1023 -1.2341
11424SOL     OW34849   9.594   8.717   4.352  0.2608 -0.6088 -0.3655
11424SOL    HW134850   9.613   8.759   4.436 -0.3709 -0.8148 -0.1068
11424SOL    HW234851   9.666   8.655   4.340 -0.8933 -2.4208  1.3015
11425SOL     OW34852   7.971   8.539   2.780 -0.0003 -0.1188  0.1342
11425SOL    HW134853   7.928   8.459   2.809 -0.4909  0.5271  1.2701
11425SOL    HW234854   7.941   8.552   2.690 -2.8131  0.6652  1.0827
11426SOL     OW34855   4.252   9.460   2.444 -0.1729  0.1467  0.0861
11426SOL    HW134856   4.266   9.376   2.400  1.8248  0.2616  0.3801
11426SOL    HW234857   4.235   9.522   2.373 -0.9223 -0.3731 -0.1937
11427SOL     OW34858   7.767   7.477   3.712  0.1414 -0.3271 -0.4415
11427SOL    HW134859   7.785   7.556   3.661 -0.5497  0.0892 -0.0538
11427SOL    HW234860   7.672   7.466   3.706 -0.0932  0.2847  1.5307
11428SOL     OW34861   8.500   2.767   8.235  0.0542  0.1979 -0.3044
11428SOL    HW134862   8.564   2.792   8.301 -0.5048 -2.9475  1.6215
11428SOL    HW234863   8.551   2.755   8.155  1.0181  2.3102 -0.0842
11429SOL     OW34864   8.249   5.254   2.200  0.1192 -0.7971  0.3145
11429SOL    HW134865   8.320   5.311   2.230  1.2894 -1.9593 -0.1753
11429SOL    HW234866   8.278   5.166   2.221 -2.3315 -1.2212  2.4608
11430SOL     OW34867   9.081   5.141   8.947 -0.0292 -0.3478 -0.0012
11430SOL    HW134868   9.138   5.205   8.991  0.6177 -0.1058 -1.1653
11430SOL    HW234869   9.073   5.070   9.011  0.8723  0.0104  0.5396
11431SOL     OW34870   5.887   8.530   7.610 -0.1635  0.2282 -0.4434
11431SOL    HW134871   5.938   8.609   7.596 -0.4421  0.4090 -0.4315
11431SOL    HW234872   5.944   8.459   7.581 -0.2367  0.4972 -1.2436
11432SOL     OW34873   0.114   2.383   3.296  0.1097 -0.2892 -0.4364
11432SOL    HW134874   0.090   2.472   3.273 -0.1142 -0.2518 -0.0721
11432SOL    HW234875   0.076   2.370   3.383  0.2269 -0.7038 -0.4452
11433SOL     OW34876   0.831   9.117   3.034 -0.4852 -0.2246  0.5956
11433SOL    HW134877   0.789   9.031   3.023  0.9388 -1.3766  3.1539
11433SOL    HW234878   0.894   9.122   2.963 -1.3109 -0.8000 -0.2113
11434SOL     OW34879   6.349   3.683   8.418 -0.9240  0.0099 -0.1015
11434SOL    HW134880   6.256   3.661   8.409 -0.7691 -0.1037 -1.7034
11434SOL    HW234881   6.354   3.775   8.395 -0.6889  0.1141  0.3650
11435SOL     OW34882   0.611   8.879   3.545 -0.3052  0.7748  0.4657
11435SOL    HW134883   0.587   8.971   3.529  0.3275  1.4458  2.9070
11435SOL    HW234884   0.707   8.878   3.537 -0.3888  0.0602 -0.6024
11436SOL     OW34885   0.090   4.518   9.248 -0.2924  0.1437 -0.1573
11436SOL    HW134886   0.171   4.529   9.298 -0.5228  0.4323  0.1604
11436SOL    HW234887   0.033   4.587   9.280  0.5910  2.3619 -2.9827
11437SOL     OW34888   7.216   4.387   1.717 -0.3750 -0.4981  0.0408
11437SOL    HW134889   7.210   4.450   1.645  0.5012  0.7239  0.9987
11437SOL    HW234890   7.296   4.338   1.700 -0.3424 -0.4382  0.0250
11438SOL     OW34891   7.250   6.331   6.188  0.3196 -0.3323  0.1766
11438SOL    HW134892   7.254   6.409   6.243 -2.9072 -0.2395  0.4375
11438SOL    HW234893   7.206   6.360   6.108 -3.2003 -2.2002  1.2135
11439SOL     OW34894   4.058   3.103   9.303 -0.0758  0.4195 -0.3030
11439SOL    HW134895   4.053   3.195   9.275 -1.3857  0.1079 -1.2082
11439SOL    HW234896   4.143   3.073   9.269  0.5670  1.3952  0.3786
11440SOL     OW34897   9.063   2.948   1.773  0.1181  0.4467 -0.0871
11440SOL    HW134898   9.032   3.009   1.705  1.6437  1.7770  0.3601
11440SOL    HW234899   9.009   2.969   1.850  0.2911  0.8833 -0.0833
11441SOL     OW34900   5.698   2.370   7.087  0.0623 -0.0890  0.7213
11441SOL    HW134901   5.708   2.362   7.182 -0.4440  1.4229  0.9243
11441SOL    HW234902   5.603   2.365   7.072 -0.0156  1.5645  0.5162
11442SOL     OW34903   6.737   3.643   8.831  0.3254 -0.2184  0.7282
11442SOL    HW134904   6.715   3.613   8.742  3.4923 -1.8995  0.3927
11442SOL    HW234905   6.758   3.736   8.820 -2.1841  0.3936  0.3706
11443SOL     OW34906   4.543   2.712   0.487 -0.1253  0.3048 -0.1266
11443SOL    HW134907   4.589   2.710   0.571  0.1615  0.3689 -0.2810
11443SOL    HW234908   4.612   2.725   0.422 -0.0853 -1.6928 -0.5559
11444SOL     OW34909   6.064   3.705   6.580  0.1789  0.1242 -0.5092
11444SOL    HW134910   5.983   3.751   6.602 -0.8950 -1.4332 -1.0768
11444SOL    HW234911   6.117   3.771   6.534 -1.2493  0.8340 -1.1866
11445SOL     OW34912   3.993   9.135   5.159  0.4427  0.7669  0.2105
11445SOL    HW134913   4.039   9.207   5.202  1.2176  0.1356  0.4513
11445SOL    HW234914   4.056   9.102   5.095 -0.2918  0.9743 -0.6459
11446SOL     OW34915   7.874   9.688   0.275 -0.1833 -0.2975  0.3629
11446SOL    HW134916   7.802   9.679   0.338  1.0698  0.0972  1.9100
11446SOL    HW234917   7.927   9.760   0.309  0.2744  0.2737 -1.4430
11447SOL     OW34918   3.883   9.658   4.267  0.2399  0.1109  0.3105
11447SOL    HW134919   3.955   9.598   4.253 -0.9021 -1.3923  0.5884
11447SOL    HW234920   3.868   9.700   4.182  2.4950  1.7687  0.6389
11448SOL     OW34921   5.237   7.420   0.395 -0.4680 -0.1507  0.3457
11448SOL    HW134922   5.245   7.514   0.375  0.8052 -0.7311 -2.2834
11448SOL    HW234923   5.144   7.401   0.389 -0.9314  1.1537  2.3213
11449SOL     OW34924   2.852   2.810   9.630 -0.5191  0.1113  0.1073
11449SOL    HW134925   2.863   2.771   9.716 -1.7867  0.1675  0.3097
11449SOL    HW234926   2.930   2.866   9.620 -1.0266  1.2184  1.8259
11450SOL     OW34927   8.609   7.280   8.928  0.3469  0.0147  0.1392
11450SOL    HW134928   8.531   7.289   8.981  1.4850  2.3271  1.5543
11450SOL    HW234929   8.581   7.301   8.839 -0.5811  1.1227  0.6804
11451SOL     OW34930   9.385   4.376   0.970  0.4044 -0.2999  0.0247
11451SOL    HW134931   9.316   4.438   0.993 -2.1603 -2.7162 -0.5719
11451SOL    HW234932   9.416   4.343   1.054  0.6451  0.5766  0.2908
11452SOL     OW34933   7.656   1.282   6.384 -0.1921  0.3589 -0.3398
11452SOL    HW134934   7.565   1.257   6.368 -0.3580  0.3181  0.6183
11452SOL    HW234935   7.687   1.314   6.299 -0.4819 -1.4628 -1.1843
11453SOL     OW34936   8.294   3.865   9.240 -0.2026  0.4243  0.1211
11453SOL    HW134937   8.312   3.780   9.281 -0.4211  0.9250  1.2989
11453SOL    HW234938   8.282   3.845   9.148 -1.4552 -1.0169  0.5617
11454SOL     OW34939   0.511   6.658   4.989  0.0850  0.2847  0.6025
11454SOL    HW134940   0.513   6.753   5.000  0.4850  0.4721 -0.8663
11454SOL    HW234941   0.420   6.638   4.967 -0.1883  0.2048  1.7544
11455SOL     OW34942   1.651   7.077   0.224  0.1928  0.3776  0.2045
11455SOL    HW134943   1.656   6.984   0.200 -1.7295 -0.0218  1.1450
11455SOL    HW234944   1.691   7.123   0.150  2.2071 -1.2246  0.1928
11456SOL     OW34945   7.593   2.353   9.624  0.5561  0.2430 -0.3051
11456SOL    HW134946   7.685   2.333   9.641  0.7595  0.9474 -0.5284
11456SOL    HW234947   7.546   2.309   9.694  1.0690 -0.0790 -0.1533
11457SOL     OW34948   4.083   0.414   4.660  0.5665 -0.2919  0.2925
11457SOL    HW134949   4.071   0.401   4.754  0.2462 -1.5023  0.0948
11457SOL    HW234950   4.103   0.327   4.626 -2.1046 -0.4127 -1.1862
11458SOL     OW34951   6.991   9.375   3.412  0.1973 -0.1949 -0.3832
11458SOL    HW134952   6.963   9.442   3.474 -0.4663 -0.3924 -0.4687
11458SOL    HW234953   6.915   9.317   3.402  0.6579 -0.7813 -0.5507
11459SOL     OW34954   6.455   4.597   8.800  0.6353  0.1156 -0.2151
11459SOL    HW134955   6.506   4.657   8.745  0.8591  0.1925  0.0724
11459SOL    HW234956   6.494   4.511   8.782  0.0492 -0.0095 -0.9354
11460SOL     OW34957   3.210   2.191   7.078 -0.2626  0.0244 -0.0443
11460SOL    HW134958   3.253   2.267   7.117  0.4393 -0.0129 -0.7290
11460SOL    HW234959   3.274   2.156   7.017 -0.6406 -1.0225  0.1358
11461SOL     OW34960   8.485   0.373   0.728  0.1710 -0.0368 -0.1117
11461SOL    HW134961   8.442   0.317   0.664  0.8353 -1.1086  0.3560
11461SOL    HW234962   8.568   0.398   0.687 -0.8709  2.1749 -1.0885
11462SOL     OW34963   8.723   2.040   2.553  0.1280  0.1748 -0.7925
11462SOL    HW134964   8.750   2.037   2.461  1.2324 -0.7572 -0.4632
11462SOL    HW234965   8.723   1.948   2.581  0.0015  0.4659  0.1976
11463SOL     OW34966   9.402   2.314   9.270 -0.3099  0.2108  0.0672
11463SOL    HW134967   9.454   2.383   9.312  0.4851 -1.0172  1.1768
11463SOL    HW234968   9.433   2.312   9.180  1.2796 -0.1748  0.5907
11464SOL     OW34969   7.939   2.173   5.847  0.1501 -0.4616 -0.4681
11464SOL    HW134970   7.918   2.265   5.866  0.7052 -0.1222 -1.4228
11464SOL    HW234971   7.878   2.148   5.778  0.0386 -0.8010 -0.2506
11465SOL     OW34972   5.288   8.103   7.954  0.4110 -0.5099 -0.2404
11465SOL    HW134973   5.265   8.196   7.953  3.2045  0.2980 -2.6626
11465SOL    HW234974   5.383   8.102   7.963  0.4790 -3.1367 -0.5534
11466SOL     OW34975   8.414   6.079   2.237  0.6866 -0.1676 -0.0755
11466SOL    HW134976   8.359   6.061   2.313  0.5321  0.5940 -0.0041
11466SOL    HW234977   8.504   6.068   2.270  0.6858  1.5014  0.6116
11467SOL     OW34978   1.345   0.016   7.517 -0.3899  0.3307 -0.1849
11467SOL    HW134979   1.346  -0.042   7.440 -0.3687 -0.5981  0.4955
11467SOL    HW234980   1.425   0.067   7.510  0.2882 -0.6977 -0.0854
11468SOL     OW34981   6.886   1.283   7.070  0.8208 -0.1953 -0.0406
11468SOL    HW134982   6.961   1.305   7.015  0.1969  3.0388  0.2070
11468SOL    HW234983   6.919   1.293   7.159  0.2834  0.6545  0.0709
11469SOL     OW34984   8.075   2.153   7.007 -0.5401 -0.0704  0.3384
11469SOL    HW134985   8.032   2.074   7.040 -1.1454 -0.4756 -1.3353
11469SOL    HW234986   8.003   2.216   6.996 -0.4780 -0.1909 -0.8597
11470SOL     OW34987   0.319   7.858   2.271  0.6924 -0.6685  0.4576
11470SOL    HW134988   0.281   7.904   2.345  0.9600 -0.9914  0.8017
11470SOL    HW234989   0.347   7.927   2.211  1.4401 -0.3574  1.1404
11471SOL     OW34990   5.437   3.437   3.005  0.0592 -0.0500  0.5481
11471SOL    HW134991   5.431   3.414   3.098  0.6956  0.8861  0.8364
11471SOL    HW234992   5.378   3.376   2.961 -1.5018  0.5431  1.7365
11472SOL     OW34993   5.669   5.883   0.510 -0.3274  0.3791 -0.4970
11472SOL    HW134994   5.625   5.886   0.596  0.4410  1.5879 -0.1258
11472SOL    HW234995   5.753   5.925   0.525  1.2625 -2.3982 -1.0572
11473SOL     OW34996   1.553   3.510   3.884  0.1028 -0.0734  0.2683
11473SOL    HW134997   1.471   3.538   3.843 -0.0043  0.5617  0.8937
11473SOL    HW234998   1.608   3.589   3.882  0.7216 -0.5063 -0.1913
11474SOL     OW34999   5.206   8.335   6.183  0.1100 -0.5795  0.0551
11474SOL    HW135000   5.196   8.315   6.090 -0.1312 -0.1148 -0.0192
11474SOL    HW235001   5.248   8.421   6.185  2.1426 -1.5212  0.3668
11475SOL     OW35002   2.877   1.139   2.726  0.1881 -0.1053  0.1192
11475SOL    HW135003   2.909   1.132   2.815 -1.7260  0.8725  0.9416
11475SOL    HW235004   2.820   1.064   2.715  0.6225 -0.3684 -0.3930
11476SOL     OW35005   0.244   8.582   0.981  0.6351 -0.1951 -0.6020
11476SOL    HW135006   0.162   8.585   1.030  0.1769 -0.9461 -1.2938
11476SOL    HW235007   0.278   8.672   0.986  0.6583 -0.2572  1.1272
11477SOL     OW35008   2.129   3.399   8.576 -0.8673  0.3982 -0.7926
11477SOL    HW135009   2.088   3.314   8.588 -1.6810  0.9962  1.0609
11477SOL    HW235010   2.056   3.461   8.578 -0.0844  1.3447  0.8446
11478SOL     OW35011   2.975   5.525   2.929  0.1407  0.2446 -0.2355
11478SOL    HW135012   2.891   5.525   2.975  0.3855 -2.1261  0.3611
11478SOL    HW235013   3.023   5.598   2.967 -2.3334  3.0771 -2.1123
11479SOL     OW35014   9.940   8.686   9.569  0.1806  0.9982  0.3929
11479SOL    HW135015   9.888   8.605   9.562  0.7631  0.5921  0.7469
11479SOL    HW235016  10.025   8.663   9.532  1.4008  0.5086  3.2417
11480SOL     OW35017   3.605   3.267   8.889  0.2066 -0.1606 -0.1248
11480SOL    HW135018   3.536   3.276   8.823 -0.3460 -0.7599  0.3478
11480SOL    HW235019   3.633   3.356   8.908  0.7344 -0.0104 -1.5322
11481SOL     OW35020   6.179   6.476   2.851 -0.3718 -0.3199  1.0208
11481SOL    HW135021   6.186   6.509   2.941 -0.7783 -0.4715  1.1082
11481SOL    HW235022   6.102   6.519   2.816 -1.3694 -1.7514  1.3887
11482SOL     OW35023   7.399   7.020   4.382  0.1888 -0.0168 -0.7296
11482SOL    HW135024   7.371   7.112   4.379 -0.3819 -0.2023 -1.5710
11482SOL    HW235025   7.491   7.024   4.405 -0.1820  0.6898  0.7509
11483SOL     OW35026   7.144   9.545   4.125  0.3479 -0.4465  0.0444
11483SOL    HW135027   7.111   9.477   4.183 -0.6547  0.2405  0.3063
11483SOL    HW235028   7.203   9.597   4.180 -2.2718  1.5569  1.2233
11484SOL     OW35029   5.014   2.056   9.466 -0.2873 -0.2305 -0.4426
11484SOL    HW135030   4.959   2.015   9.398 -1.1565  0.5989 -0.2607
11484SOL    HW235031   4.952   2.083   9.534  0.2732  1.2466 -0.4851
11485SOL     OW35032   1.788   4.611   4.147 -0.1255 -0.1557 -0.2381
11485SOL    HW135033   1.754   4.668   4.216 -1.5364  1.7619 -2.3769
11485SOL    HW235034   1.879   4.594   4.173  0.6942  3.8143  0.1940
11486SOL     OW35035   9.859   5.761   4.643 -0.0662 -0.4225 -0.1545
11486SOL    HW135036   9.808   5.841   4.658  0.4890 -0.1295  0.1846
11486SOL    HW235037   9.793   5.692   4.641 -0.4154 -0.1589  1.1075
11487SOL     OW35038   6.416   4.725   8.471  0.2796  0.2794  0.0920
11487SOL    HW135039   6.437   4.817   8.457  1.1965  0.0199 -0.2999
11487SOL    HW235040   6.500   4.684   8.491 -0.3869 -0.1273  2.3249
11488SOL     OW35041   4.996   8.685   9.971 -0.1584 -0.7059  0.3675
11488SOL    HW135042   4.961   8.632  10.042 -2.0839  2.5509  2.0997
11488SOL    HW235043   4.928   8.684   9.904  1.0778 -2.6634 -0.9691
11489SOL     OW35044   6.162   7.764   5.306 -0.3016  0.5520 -0.1225
11489SOL    HW135045   6.249   7.795   5.331 -0.2936  0.2179  0.2832
11489SOL    HW235046   6.103   7.834   5.335 -0.1816  0.7048 -0.2468
11490SOL     OW35047   6.504   5.993   2.208 -0.2135  0.2569 -0.5578
11490SOL    HW135048   6.567   6.064   2.197  0.6330  0.1010  2.5064
11490SOL    HW235049   6.556   5.917   2.231 -1.3834 -0.4152 -0.0415
11491SOL     OW35050   5.463   3.908   0.415 -0.1936 -0.3393 -0.2104
11491SOL    HW135051   5.549   3.923   0.454 -0.7899  0.3288  0.8769
11491SOL    HW235052   5.412   3.985   0.439 -1.3491 -1.1099 -0.1427
11492SOL     OW35053   1.124   4.754   5.481  0.0966 -0.1161  0.7591
11492SOL    HW135054   1.055   4.814   5.451  0.2681 -0.2428  0.1102
11492SOL    HW235055   1.129   4.686   5.413  0.7669 -0.1847  0.8693
11493SOL     OW35056   5.465   2.492   2.213  0.1166  0.3596 -0.1363
11493SOL    HW135057   5.405   2.427   2.249 -0.5697  0.8420 -0.3810
11493SOL    HW235058   5.549   2.447   2.209 -0.6985 -1.2019 -2.0716
11494SOL     OW35059   7.402   9.749   0.207 -0.4474 -0.8249 -0.5176
11494SOL    HW135060   7.416   9.726   0.115  1.4184  2.7875 -1.3070
11494SOL    HW235061   7.307   9.762   0.214 -0.4070  1.5465 -2.7878
11495SOL     OW35062   4.080   1.766   4.733  0.2898 -0.1176  0.5459
11495SOL    HW135063   4.144   1.696   4.722 -0.1154 -0.8536  2.5406
11495SOL    HW235064   4.116   1.839   4.682  2.9841 -0.3371  1.9443
11496SOL     OW35065   3.540   8.994   8.298  0.0627 -0.4241  0.8565
11496SOL    HW135066   3.492   9.024   8.375  0.4942  0.8925  0.6549
11496SOL    HW235067   3.613   8.944   8.333  0.9020  1.1022  1.4008
11497SOL     OW35068   3.513   1.771   6.436  0.4761 -0.3847  0.1304
11497SOL    HW135069   3.424   1.770   6.400 -0.0308 -1.9453  1.2924
11497SOL    HW235070   3.500   1.774   6.531  1.7054  0.5896  0.2910
11498SOL     OW35071   5.249   3.546   0.577 -0.2604  0.2512 -0.0151
11498SOL    HW135072   5.154   3.537   0.578 -0.1741 -1.2897  2.2271
11498SOL    HW235073   5.282   3.457   0.575  1.1332  0.7321  0.0865
11499SOL     OW35074   9.741   7.643   8.953  0.2357 -0.0639 -0.4205
11499SOL    HW135075   9.769   7.733   8.968 -1.1075  0.3955 -0.5078
11499SOL    HW235076   9.812   7.605   8.900  0.4102  1.2151 -1.1694
11500SOL     OW35077   4.955   3.485   7.045 -0.0567  0.3116  0.2528
11500SOL    HW135078   4.896   3.473   6.971 -0.0712 -1.9650  0.5713
11500SOL    HW235079   4.897   3.493   7.121  0.0034 -0.9458  0.4433
11501SOL     OW35080   7.822   3.623   4.360  0.2258 -0.1313  0.3106
11501SOL    HW135081   7.771   3.704   4.356 -0.3323 -0.3926  1.8352
11501SOL    HW235082   7.769   3.564   4.412  1.2095 -1.0744  0.2641
11502SOL     OW35083   7.184   1.015   2.705 -0.1921  0.0574 -0.0106
11502SOL    HW135084   7.194   1.011   2.800 -0.1681 -1.1445 -0.0495
11502SOL    HW235085   7.235   1.092   2.679 -0.7495  0.7944  1.0086
11503SOL     OW35086   7.920   4.658   3.952  0.1553 -0.5666 -0.0597
11503SOL    HW135087   7.921   4.582   4.010 -1.0007 -0.9234 -0.4971
11503SOL    HW235088   7.882   4.728   4.005  1.9865 -0.0296  0.6232
11504SOL     OW35089   4.896   5.056   7.985  0.2423  0.5135  0.3278
11504SOL    HW135090   4.875   5.148   7.969  1.0732  0.6372 -0.1091
11504SOL    HW235091   4.933   5.054   8.073  1.4202  0.8202 -0.1331
11505SOL     OW35092   7.941   2.107   5.088 -0.0210 -0.0223  0.1184
11505SOL    HW135093   7.945   2.100   4.993  1.3748  0.0708  0.1457
11505SOL    HW235094   8.030   2.090   5.117 -0.8456 -2.3962  1.6034
11506SOL     OW35095   8.319   6.106   0.728 -0.1605  0.2517  1.2592
11506SOL    HW135096   8.235   6.103   0.682  0.5756 -0.6552 -0.1175
11506SOL    HW235097   8.373   6.041   0.682  1.3831  1.0410  1.9015
11507SOL     OW35098   9.080   6.143   3.623 -0.2782  0.6023  0.0168
11507SOL    HW135099   9.048   6.090   3.695  0.6018  0.3696  0.2527
11507SOL    HW235100   9.165   6.104   3.600  0.7737  2.3641  0.7122
11508SOL     OW35101   0.713   5.392   8.596  0.1179  0.1682 -0.5295
11508SOL    HW135102   0.772   5.347   8.536 -1.3203 -0.1071 -1.8088
11508SOL    HW235103   0.765   5.465   8.631  0.8531  0.6753 -2.5378
11509SOL     OW35104   9.771   7.370   4.357  0.4713  0.2066  0.1573
11509SOL    HW135105   9.785   7.416   4.440  0.0386 -0.4400  0.6054
11509SOL    HW235106   9.834   7.298   4.358  0.4089  0.1479 -0.0314
11510SOL     OW35107   9.923   6.140   6.944  0.3034  0.4698  0.2012
11510SOL    HW135108   9.884   6.192   6.874 -0.3861  0.2857  0.4429
11510SOL    HW235109   9.898   6.185   7.024  2.5128  1.6617  0.3024
11511SOL     OW35110   0.739   4.593   0.772 -0.4451 -0.6591  0.6566
11511SOL    HW135111   0.823   4.558   0.801 -0.3281 -0.2712  0.7934
11511SOL    HW235112   0.755   4.687   0.762 -0.2212 -0.8975 -1.5717
11512SOL     OW35113   8.996   3.121   9.504  0.2113 -0.6964  0.2357
11512SOL    HW135114   8.944   3.155   9.576 -2.0046 -1.0234 -1.0849
11512SOL    HW235115   9.059   3.063   9.544 -1.7281 -1.7941  1.8567
11513SOL     OW35116   8.034   7.638   3.183  0.1520  0.1808 -0.5484
11513SOL    HW135117   8.019   7.698   3.110  0.4226 -0.3518 -1.0534
11513SOL    HW235118   8.037   7.551   3.142  0.1580 -0.1365  0.1166
11514SOL     OW35119   9.480   0.143   3.346 -0.1687 -0.3753 -0.0309
11514SOL    HW135120   9.484   0.097   3.430 -1.1005 -2.0023 -0.8228
11514SOL    HW235121   9.417   0.093   3.294  0.1289  0.7828 -1.5978
11515SOL     OW35122   9.894   0.230   7.048 -0.3137 -0.2589  0.9316
11515SOL    HW135123   9.916   0.236   6.955  0.3905 -0.5026  1.0764
11515SOL    HW235124   9.962   0.281   7.092  1.6088 -3.0902  1.5970
11516SOL     OW35125   4.094   7.401   6.602  0.1589 -0.5212  0.4190
11516SOL    HW135126   4.087   7.311   6.632 -0.2323 -0.4526  0.5411
11516SOL    HW235127   4.123   7.450   6.680 -1.9205 -0.1618  1.0367
11517SOL     OW35128   7.509   3.613   1.681  0.3036  0.6103  0.0358
11517SOL    HW135129   7.495   3.630   1.774 -2.2923  2.9364 -0.6470
11517SOL    HW235130   7.436   3.557   1.656  1.1063 -0.1768 -0.5964
11518SOL     OW35131   7.290   3.294   9.189 -0.4154  0.4592 -0.1182
11518SOL    HW135132   7.364   3.237   9.174  0.3345  1.4438 -0.2543
11518SOL    HW235133   7.239   3.250   9.257  0.8052  0.2464  0.6780
11519SOL     OW35134   5.917   5.386   4.919  0.5951  0.1526  0.8504
11519SOL    HW135135   5.835   5.394   4.967 -0.0996  0.6277 -0.3868
11519SOL    HW235136   5.949   5.476   4.910  0.6208  0.0867  0.2542
11520SOL     OW35137   5.631   5.023   7.680 -0.6377 -0.3229 -0.0900
11520SOL    HW135138   5.674   4.953   7.631 -0.0211  0.2035 -0.3123
11520SOL    HW235139   5.659   5.012   7.770 -0.5486 -0.3713 -0.1243
11521SOL     OW35140   5.800   2.889   2.773 -0.0945 -0.2462  0.5741
11521SOL    HW135141   5.844   2.854   2.851  0.1731 -0.5259  0.2981
11521SOL    HW235142   5.836   2.838   2.700  2.2147  2.2172 -0.1856
11522SOL     OW35143   4.985   8.042   6.076  0.0015  0.0368  0.0349
11522SOL    HW135144   4.894   8.069   6.067  0.1747  0.8003  0.4539
11522SOL    HW235145   5.025   8.061   5.991 -0.3024 -0.6230 -0.2625
11523SOL     OW35146   7.179   5.011   4.146 -0.0005 -0.3872  0.4892
11523SOL    HW135147   7.230   4.990   4.224 -0.0019 -1.1440  0.2917
11523SOL    HW235148   7.102   5.056   4.179 -0.3471 -1.3185  0.9910
11524SOL     OW35149   5.768   3.235   1.122 -0.0410  0.7505  0.6791
11524SOL    HW135150   5.759   3.251   1.028 -0.0262 -0.3852  0.4757
11524SOL    HW235151   5.855   3.268   1.144  1.5684 -2.3494 -0.4894
11525SOL     OW35152   8.457   8.012   1.453 -0.1570 -0.2516  0.5906
11525SOL    HW135153   8.535   7.989   1.404 -0.3169 -1.0357  0.6907
11525SOL    HW235154   8.471   8.103   1.481 -0.2755  0.3942 -1.3031
11526SOL     OW35155   8.923   3.400   4.865 -0.7345 -0.0878 -0.3978
11526SOL    HW135156   9.005   3.351   4.854  0.3665  0.6612  3.1708
11526SOL    HW235157   8.943   3.488   4.835 -0.2596  0.0604  0.3470
11527SOL     OW35158   1.333   4.324   4.750  0.5404 -0.1936  0.1786
11527SOL    HW135159   1.258   4.324   4.810 -0.7271  0.1157 -1.3445
11527SOL    HW235160   1.351   4.231   4.735  2.2337 -0.3342  2.6037
11528SOL     OW35161   9.660   7.184   6.813  0.2768  0.1669 -0.4003
11528SOL    HW135162   9.705   7.104   6.839 -0.6140  0.1130  1.1051
11528SOL    HW235163   9.569   7.157   6.802  0.0407  0.8954 -0.2469
11529SOL     OW35164   5.315   4.654   4.527  0.5027 -0.0402 -0.1892
11529SOL    HW135165   5.263   4.580   4.560  2.6167 -2.1872 -1.3700
11529SOL    HW235166   5.254   4.703   4.471 -0.4952 -1.9996 -0.9260
11530SOL     OW35167   4.040   2.383   9.414  0.6779  0.2140 -0.1959
11530SOL    HW135168   4.029   2.290   9.396  0.9579 -0.3780  2.3756
11530SOL    HW235169   4.132   2.393   9.437  0.7063  1.1823 -0.6778
11531SOL     OW35170   4.844   4.950   8.884  0.1170 -0.0672  0.1565
11531SOL    HW135171   4.800   4.882   8.833 -1.6855  1.9989 -1.2306
11531SOL    HW235172   4.773   4.995   8.931  0.7868  2.5524 -1.1448
11532SOL     OW35173   2.812   6.124   0.976 -0.7438  0.5978  0.2626
11532SOL    HW135174   2.747   6.063   1.011 -0.3450  0.3356  0.5565
11532SOL    HW235175   2.896   6.090   1.007 -0.4933  1.1300  0.1832
11533SOL     OW35176   0.875   9.893   7.178 -0.0770  0.4119 -0.5614
11533SOL    HW135177   0.896   9.800   7.191  0.0340  0.4084 -0.7745
11533SOL    HW235178   0.925   9.938   7.246 -1.1695  0.2010  0.4143
11534SOL     OW35179   8.193   9.644   0.542  0.4774  0.1226 -0.3561
11534SOL    HW135180   8.148   9.582   0.485  1.2297 -2.9314  2.0968
11534SOL    HW235181   8.280   9.654   0.504  0.5241 -0.8073 -0.5094
11535SOL     OW35182   5.911   7.863   9.931 -0.2960  0.5173  0.5704
11535SOL    HW135183   5.843   7.813   9.977 -1.3189  0.4987 -0.8782
11535SOL    HW235184   5.959   7.908  10.000 -2.6772  1.6482  1.6046
11536SOL     OW35185   4.879   5.816   9.302 -0.2944  0.5419  0.3212
11536SOL    HW135186   4.792   5.807   9.342 -1.0682  1.0372 -1.1565
11536SOL    HW235187   4.866   5.878   9.230  1.5976  1.6850  0.8852
11537SOL     OW35188   5.219   5.119   6.635  0.6690 -0.0020  0.8719
11537SOL    HW135189   5.275   5.159   6.569 -0.7551  1.1301  0.3110
11537SOL    HW235190   5.192   5.192   6.691 -1.3661 -0.2381  0.2867
11538SOL     OW35191   7.980   6.112   8.502 -0.0035 -0.4906  0.0265
11538SOL    HW135192   8.070   6.139   8.521  0.8976 -2.1341 -1.6162
11538SOL    HW235193   7.949   6.174   8.436  0.7446 -1.2669 -1.0614
11539SOL     OW35194   0.966   9.790   9.670 -0.2146 -0.6736 -0.4474
11539SOL    HW135195   1.023   9.841   9.612  0.8018 -0.0774  1.0278
11539SOL    HW235196   0.879   9.827   9.656  0.5954  2.1736  1.2107
11540SOL     OW35197   4.380   1.997   0.986  0.0275  0.2535 -0.1425
11540SOL    HW135198   4.302   1.992   1.040 -0.9358  1.7814 -1.3079
11540SOL    HW235199   4.347   2.002   0.896  1.5213 -0.6535 -0.7907
11541SOL     OW35200   8.992   6.455   5.003  0.4073  0.6171 -0.0071
11541SOL    HW135201   8.977   6.522   5.070 -1.2947  0.3937 -0.1112
11541SOL    HW235202   8.906   6.416   4.989  1.2549 -1.2330 -0.3496
11542SOL     OW35203   2.694   4.814   2.398 -0.3316  0.6393  0.0700
11542SOL    HW135204   2.609   4.804   2.440 -0.1089 -0.0939  0.3732
11542SOL    HW235205   2.753   4.841   2.469  0.1722 -1.1968  0.4016
11543SOL     OW35206   1.478   6.487   8.128  0.0341 -0.3771 -0.0362
11543SOL    HW135207   1.446   6.488   8.037 -0.1215  1.2298  0.0003
11543SOL    HW235208   1.414   6.539   8.176  1.0931  0.3483  0.6271
11544SOL     OW35209   3.139   2.277   0.199  0.2222  0.4388  0.4219
11544SOL    HW135210   3.231   2.252   0.186  0.0268  0.4482 -1.1215
11544SOL    HW235211   3.123   2.259   0.292  0.0379 -5.4601 -0.3492
11545SOL     OW35212   4.265   5.534   5.947 -0.2538 -0.0122  0.2082
11545SOL    HW135213   4.356   5.562   5.938  0.1628 -1.5662 -0.8230
11545SOL    HW235214   4.228   5.547   5.859 -0.1758 -2.1015 -0.1883
11546SOL     OW35215   1.300   6.763   9.575 -0.1856 -0.1727 -0.2246
11546SOL    HW135216   1.237   6.741   9.643 -0.9853  0.1142 -0.8638
11546SOL    HW235217   1.309   6.683   9.524 -0.6819  0.0342 -0.6418
11547SOL     OW35218   7.294   2.896   0.784  0.4338  0.2426 -0.7167
11547SOL    HW135219   7.246   2.898   0.866  0.6029  0.3137 -0.6187
11547SOL    HW235220   7.355   2.970   0.790  1.1884 -0.3842 -0.4524
11548SOL     OW35221   4.888   5.782   7.834 -0.0965 -0.2140  0.0870
11548SOL    HW135222   4.975   5.759   7.803  0.1881 -0.5781  1.1157
11548SOL    HW235223   4.861   5.855   7.777  1.0861  0.2484  0.0815
11549SOL     OW35224   5.252   5.213   1.002  0.1227  0.4782 -0.1866
11549SOL    HW135225   5.200   5.209   0.922 -0.2017 -1.2139  0.0684
11549SOL    HW235226   5.201   5.267   1.061 -0.9464 -0.4348 -0.2424
11550SOL     OW35227   2.096   5.241   4.770 -0.2483 -0.2001 -0.1064
11550SOL    HW135228   2.093   5.225   4.676  0.3292 -3.5910  0.3003
11550SOL    HW235229   2.036   5.176   4.807 -0.4399  1.0322  1.8785
11551SOL     OW35230   3.341   7.568   5.405  0.2504  0.8997  0.0277
11551SOL    HW135231   3.356   7.564   5.311  2.2223  1.5827  0.2662
11551SOL    HW235232   3.338   7.662   5.425 -1.6100  0.7985  0.4944
11552SOL     OW35233   3.388   5.223   2.704  0.2594  0.3438  0.4182
11552SOL    HW135234   3.382   5.310   2.744  0.0404 -0.2459  1.7299
11552SOL    HW235235   3.422   5.167   2.774  2.3377 -0.2580 -0.9728
11553SOL     OW35236   4.407   1.444   4.343 -0.1957 -0.4652 -0.6185
11553SOL    HW135237   4.385   1.510   4.278 -0.0738 -0.4308 -0.6245
11553SOL    HW235238   4.325   1.396   4.358 -0.7028  0.7015  0.5423
11554SOL     OW35239   8.555   4.020   0.583  0.6828 -0.4830  0.2860
11554SOL    HW135240   8.474   3.996   0.538  0.0863 -2.3501  2.1931
11554SOL    HW235241   8.531   4.094   0.639  0.6364 -0.2033 -0.0985
11555SOL     OW35242   0.738   0.256   2.668 -0.7251  0.5280  0.4642
11555SOL    HW135243   0.685   0.177   2.682  0.1260  0.2748  2.6188
11555SOL    HW235244   0.729   0.305   2.750  1.6306  0.9085  0.5498
11556SOL     OW35245   8.222   0.296   4.005  0.1971 -0.0170  0.3224
11556SOL    HW135246   8.175   0.286   4.087  2.0031  1.4669  1.6201
11556SOL    HW235247   8.208   0.213   3.959 -1.5278 -0.5608  1.7397
11557SOL     OW35248   5.649   2.496   4.658  0.2342 -0.2543 -0.3620
11557SOL    HW135249   5.580   2.543   4.704  2.0504  0.3345  1.9119
11557SOL    HW235250   5.613   2.408   4.646 -2.0097  0.7632 -1.9538
11558SOL     OW35251   4.585   7.988   7.425 -0.3728  0.0061  0.2758
11558SOL    HW135252   4.651   8.056   7.416  0.8391 -0.9877  1.3152
11558SOL    HW235253   4.628   7.919   7.476 -2.3000 -0.5380  1.2730
11559SOL     OW35254   5.777   9.349   4.979 -0.4126  0.0921  0.1864
11559SOL    HW135255   5.722   9.295   4.923  0.5467 -0.0221 -0.6620
11559SOL    HW235256   5.792   9.429   4.929  1.2675 -0.4148 -0.1752
11560SOL     OW35257   0.191   0.920   2.012  0.5398 -0.4007 -0.6813
11560SOL    HW135258   0.235   0.835   2.002  0.7337 -0.1673 -1.9708
11560SOL    HW235259   0.120   0.918   1.948 -0.6632 -0.3285  0.6081
11561SOL     OW35260   5.055   0.290   5.945  0.0725  0.2462  0.3128
11561SOL    HW135261   5.088   0.202   5.959  0.8207  0.3484 -0.6702
11561SOL    HW235262   4.978   0.278   5.889  1.8850  0.3262 -2.4434
11562SOL     OW35263   1.597   6.004   4.694 -0.4049  0.0512 -0.2093
11562SOL    HW135264   1.598   6.095   4.725  1.3511  0.5245 -1.5019
11562SOL    HW235265   1.686   5.988   4.663 -0.2196 -2.6316  1.3696
11563SOL     OW35266   8.462   4.526   2.987  0.0774 -0.1123  0.5014
11563SOL    HW135267   8.469   4.506   3.080  1.2097  0.7097  0.6196
11563SOL    HW235268   8.553   4.530   2.956 -0.2377  0.7936 -0.3682
11564SOL     OW35269   7.546   6.214   4.919  0.3567  0.5366  0.0081
11564SOL    HW135270   7.490   6.145   4.883 -0.5786  0.8822  0.7585
11564SOL    HW235271   7.634   6.190   4.891  0.2038 -1.5303  1.0569
11565SOL     OW35272   4.417   0.551   9.128  0.0032  0.2599 -0.6691
11565SOL    HW135273   4.367   0.625   9.091 -0.8472  0.5566  1.0066
11565SOL    HW235274   4.409   0.483   9.061 -1.7391  0.6722 -0.9584
11566SOL     OW35275   6.522   7.838   9.717 -0.0979 -0.5492 -0.0320
11566SOL    HW135276   6.504   7.747   9.741  2.1710 -1.1194 -0.2698
11566SOL    HW235277   6.460   7.857   9.647 -0.4258 -2.0185 -0.1714
11567SOL     OW35278   7.552   9.455   0.659  0.1116 -0.2128 -0.0422
11567SOL    HW135279   7.472   9.507   0.644  1.5079  2.3437  0.7793
11567SOL    HW235280   7.535   9.408   0.741 -1.7395 -2.3357 -1.5354
11568SOL     OW35281   7.600   9.183   4.859 -0.1125  0.6146 -0.5777
11568SOL    HW135282   7.674   9.221   4.907  0.0686  1.2047 -1.3073
11568SOL    HW235283   7.569   9.254   4.803 -2.2617  0.9093  0.8536
11569SOL     OW35284   8.830   9.707   5.955  0.0704 -0.2339  0.0157
11569SOL    HW135285   8.918   9.671   5.955 -0.1588 -0.8381  1.3846
11569SOL    HW235286   8.792   9.678   5.872  0.8396 -0.7567 -0.1567
11570SOL     OW35287   7.327   2.057   9.110 -0.1370  0.1752  0.2308
11570SOL    HW135288   7.271   1.985   9.142 -0.8007  1.0009  1.0016
11570SOL    HW235289   7.413   2.038   9.147 -0.1141 -0.6321 -0.2120
11571SOL     OW35290   7.815   1.136   2.784  0.3886 -0.5024  0.2239
11571SOL    HW135291   7.774   1.159   2.868 -0.6558 -2.0720  0.1970
11571SOL    HW235292   7.762   1.063   2.751  0.0096  0.8600 -2.4265
11572SOL     OW35293   7.096   7.348   0.530  0.4455 -0.0761  0.0795
11572SOL    HW135294   7.034   7.282   0.560  1.9951 -1.0404  1.2847
11572SOL    HW235295   7.096   7.339   0.434 -2.0914  0.7666 -0.0677
11573SOL     OW35296   3.616   0.818   1.184  0.4145  0.0621  0.0393
11573SOL    HW135297   3.651   0.782   1.103  0.2375  2.2293 -1.0956
11573SOL    HW235298   3.620   0.913   1.171 -0.6752  0.4538  2.1240
11574SOL     OW35299   8.787   3.844   2.695  0.4055  0.0042  0.1787
11574SOL    HW135300   8.830   3.760   2.710  0.2155 -0.1731 -0.2486
11574SOL    HW235301   8.850   3.910   2.726  0.7406 -0.2743  0.0928
11575SOL     OW35302   8.695   3.580   8.671 -0.4148  0.0530  0.3621
11575SOL    HW135303   8.680   3.608   8.580  2.0813  0.1113 -0.1276
11575SOL    HW235304   8.785   3.547   8.670  0.4800  2.0572  3.2744
11576SOL     OW35305   2.359   9.490   4.488 -0.3033  0.0932  0.4621
11576SOL    HW135306   2.399   9.471   4.573  1.9004  1.9297 -0.0794
11576SOL    HW235307   2.355   9.585   4.483 -0.9702  0.0182 -1.2450
11577SOL     OW35308   8.436   5.336   0.945  0.4194 -0.1624  0.1469
11577SOL    HW135309   8.478   5.334   1.031  0.3024 -0.9504  0.1907
11577SOL    HW235310   8.386   5.254   0.940 -1.0961  0.7168  0.0813
11578SOL     OW35311   5.966   4.679   1.684  0.5365  0.3002  0.6054
11578SOL    HW135312   6.048   4.641   1.652  0.8805  2.6248 -1.5760
11578SOL    HW235313   5.993   4.737   1.755  0.4096 -0.9244  1.6852
11579SOL     OW35314   7.342   3.902   1.749 -0.2452 -0.4532  0.0617
11579SOL    HW135315   7.264   3.847   1.750 -0.2442 -0.4772 -0.5235
11579SOL    HW235316   7.398   3.867   1.818 -0.7468 -0.4396  0.4791
11580SOL     OW35317   2.358   1.428   8.636 -0.6098 -0.0427  0.1498
11580SOL    HW135318   2.450   1.423   8.609 -0.8766 -0.7120 -0.6969
11580SOL    HW235319   2.362   1.449   8.729  0.3987 -0.0187  0.1211
11581SOL     OW35320   3.394   1.218   1.705 -0.9601  0.1995  0.2720
11581SOL    HW135321   3.357   1.278   1.641 -0.3645 -0.5100 -0.7655
11581SOL    HW235322   3.383   1.262   1.789 -0.5028  1.7588 -0.4637
11582SOL     OW35323   1.981   3.446   1.330  0.4786  0.0644  0.6654
11582SOL    HW135324   2.019   3.393   1.259  1.9957  0.7542  0.9315
11582SOL    HW235325   1.893   3.467   1.299 -0.0487 -2.2725  0.3820
11583SOL     OW35326   9.572   4.831   4.808  0.1564 -0.4307 -0.6247
11583SOL    HW135327   9.662   4.801   4.795  0.2342 -1.3590  1.5443
11583SOL    HW235328   9.518   4.769   4.760  0.6648  1.0746 -3.3326
11584SOL     OW35329   0.707   3.268   4.469  0.2025 -0.0698  0.3054
11584SOL    HW135330   0.783   3.239   4.519 -0.5978 -0.0721  1.5626
11584SOL    HW235331   0.687   3.355   4.504  1.3428  1.2364 -2.0227
11585SOL     OW35332   5.261   3.694   5.907  0.1182 -0.1823  0.3616
11585SOL    HW135333   5.178   3.740   5.907  0.0727 -0.2232  1.8866
11585SOL    HW235334   5.256   3.634   5.981  1.8232  0.4161  1.0105
11586SOL     OW35335   3.250   3.355   9.184 -0.0438  0.3755 -0.1323
11586SOL    HW135336   3.192   3.420   9.145  0.9525  1.7507  0.5892
11586SOL    HW235337   3.198   3.274   9.186 -2.1641  1.6790  1.0569
11587SOL     OW35338   6.075   4.734   4.079  0.5642  0.5708  0.6099
11587SOL    HW135339   6.093   4.828   4.073 -0.6629  0.7388 -1.4734
11587SOL    HW235340   6.157   4.692   4.054  1.1131  1.0651  1.5227
11588SOL     OW35341   9.714   3.532   4.747  0.0966 -0.0118 -0.1206
11588SOL    HW135342   9.624   3.553   4.724  0.3410  1.1401 -0.0840
11588SOL    HW235343   9.707   3.485   4.830 -0.5022 -0.3954 -0.3845
11589SOL     OW35344   4.800   7.710   7.178  0.0650  0.2941  0.0786
11589SOL    HW135345   4.762   7.798   7.169  0.6232  0.5110 -0.2451
11589SOL    HW235346   4.765   7.677   7.260 -0.5650  0.6143 -0.0514
11590SOL     OW35347   1.166   2.548   6.956  0.2117  0.2626  0.0494
11590SOL    HW135348   1.259   2.530   6.950  0.0947 -0.3067 -0.1248
11590SOL    HW235349   1.148   2.606   6.882  0.4097  0.3059  0.0347
11591SOL     OW35350   9.093   0.959   6.366 -0.1802 -0.7747  0.1125
11591SOL    HW135351   9.030   0.920   6.305  0.9574  0.2213 -1.7934
11591SOL    HW235352   9.118   1.042   6.326  0.9483 -0.2717  1.7453
11592SOL     OW35353   4.810   2.235   8.418  0.2377  0.1309 -0.0419
11592SOL    HW135354   4.770   2.156   8.455  0.2664  0.5574  0.9319
11592SOL    HW235355   4.901   2.231   8.447 -0.1150  1.2778  1.3364
11593SOL     OW35356   9.206   0.008   4.551 -0.0376  0.6838  0.5912
11593SOL    HW135357   9.205   0.092   4.507 -0.0596  0.2744 -0.2101
11593SOL    HW235358   9.217  -0.056   4.480 -2.4433 -0.1671  0.8892
11594SOL     OW35359   0.131   3.454   7.992 -0.2397  0.1351  0.4343
11594SOL    HW135360   0.054   3.511   7.986 -0.4857 -0.0276  1.7836
11594SOL    HW235361   0.105   3.375   7.944 -1.2273 -0.2224  1.5130
11595SOL     OW35362   0.781   1.688   2.557  0.8033  0.8452 -0.1503
11595SOL    HW135363   0.743   1.737   2.629  0.2800  3.0479 -1.8102
11595SOL    HW235364   0.872   1.717   2.553  0.7922  0.8450 -0.4588
11596SOL     OW35365   9.418   2.620   7.044  0.0523 -0.2214 -0.1331
11596SOL    HW135366   9.433   2.674   6.967  2.8148 -0.3747  0.2046
11596SOL    HW235367   9.494   2.562   7.048 -0.9543 -1.5293  1.6512
11597SOL     OW35368   2.326   5.432   7.655 -0.0341  0.2379  0.8533
11597SOL    HW135369   2.339   5.524   7.679 -1.7851  0.0584  2.7392
11597SOL    HW235370   2.403   5.410   7.603  0.8800  2.5035  1.1270
11598SOL     OW35371   7.629   2.477   5.353  0.0514  1.1538 -0.2254
11598SOL    HW135372   7.699   2.438   5.301  0.3503 -0.0673  1.0395
11598SOL    HW235373   7.584   2.536   5.292  0.7042  0.1890 -1.7030
11599SOL     OW35374   1.557   8.926   2.241 -0.8123 -0.2693  0.1719
11599SOL    HW135375   1.509   8.846   2.259  0.5887 -1.0695  0.4925
11599SOL    HW235376   1.614   8.938   2.316  1.1310 -0.6258 -1.1718
11600SOL     OW35377   2.994   1.840   7.761 -0.1631  0.4712 -0.7246
11600SOL    HW135378   3.044   1.762   7.738  2.0282  1.1222  1.4729
11600SOL    HW235379   3.035   1.911   7.712  0.0726  0.7594 -0.1238
11601SOL     OW35380   7.072   5.496   1.425  0.7935  0.7859  0.3569
11601SOL    HW135381   7.029   5.521   1.507  0.4408  1.6213 -0.0767
11601SOL    HW235382   7.108   5.409   1.443 -0.9693  0.1004  0.7855
11602SOL     OW35383   4.492   5.210   9.655 -0.4877 -0.5750 -0.1113
11602SOL    HW135384   4.544   5.163   9.589 -0.8221  0.9249 -1.5228
11602SOL    HW235385   4.538   5.292   9.667 -1.4131 -0.0812  0.1617
11603SOL     OW35386   5.929   8.012   0.320  0.0987 -0.4676  0.5373
11603SOL    HW135387   5.853   8.042   0.270  0.6339  2.9754  1.5348
11603SOL    HW235388   6.000   8.007   0.256  0.6938  3.5733  0.6436
11604SOL     OW35389   6.920   2.502   5.200  0.3582  0.5298 -0.3563
11604SOL    HW135390   6.907   2.452   5.280 -0.3180 -0.1727 -0.8811
11604SOL    HW235391   7.015   2.499   5.185  0.4405  0.3102  0.1936
11605SOL     OW35392   1.955   7.715   8.957  0.4855 -0.2640 -0.2115
11605SOL    HW135393   1.868   7.738   8.923  1.0634  0.2367 -1.3690
11605SOL    HW235394   1.937   7.646   9.022 -1.1700  2.3663  2.3988
11606SOL     OW35395   0.776   7.128   1.563 -0.5990  0.4636  0.1802
11606SOL    HW135396   0.870   7.114   1.573 -0.4074  1.8669  0.5629
11606SOL    HW235397   0.758   7.108   1.471 -0.2608 -1.4543  0.4958
11607SOL     OW35398   7.973   3.830   4.835  0.1234  0.1572 -0.2270
11607SOL    HW135399   7.953   3.828   4.742  0.2731  0.2984 -0.2621
11607SOL    HW235400   8.061   3.868   4.840  0.6071 -0.9339 -0.1102
11608SOL     OW35401   0.655   1.786   6.009 -0.3459 -0.4691  0.3918
11608SOL    HW135402   0.662   1.701   5.967 -1.8905 -1.5391  2.1157
11608SOL    HW235403   0.703   1.777   6.091 -0.5069  0.3132  0.5841
11609SOL     OW35404   7.168   6.030   9.412 -0.3881  0.1259  0.1450
11609SOL    HW135405   7.150   5.986   9.329  1.3336  1.7409 -1.1821
11609SOL    HW235406   7.188   5.960   9.474 -0.5716 -1.0571 -1.1126
11610SOL     OW35407   9.586   6.608   5.272  0.1244 -0.2963 -0.0027
11610SOL    HW135408   9.675   6.579   5.290  0.6240  1.5807  0.6849
11610SOL    HW235409   9.531   6.548   5.323  1.2061  0.9620  2.8141
11611SOL     OW35410   3.908   5.445   8.749  0.2423 -0.0728  0.2067
11611SOL    HW135411   3.906   5.461   8.655  0.5137 -0.4741  0.1325
11611SOL    HW235412   3.855   5.516   8.786  0.0355  0.0179 -0.2552
11612SOL     OW35413   9.449   8.030   2.346 -0.2192  0.4544 -0.1744
11612SOL    HW135414   9.472   8.048   2.437  2.5646  1.0053 -0.8921
11612SOL    HW235415   9.467   7.937   2.335 -0.9105  0.3056 -0.0875
11613SOL     OW35416   2.220   9.877   0.527  0.4586 -0.2762 -1.1373
11613SOL    HW135417   2.199   9.839   0.442 -1.5319  0.1743 -0.9006
11613SOL    HW235418   2.237   9.969   0.509 -1.8276  0.2546 -0.8884
11614SOL     OW35419   0.976   6.906   6.962 -0.1249 -0.3438 -0.1891
11614SOL    HW135420   0.943   6.818   6.940  0.2514 -0.2302 -1.2488
11614SOL    HW235421   0.939   6.963   6.894  1.7370 -0.1097 -1.0643
11615SOL     OW35422   6.479   5.325   9.704  0.0022  0.6590 -0.3397
11615SOL    HW135423   6.530   5.246   9.721  0.3592  0.9046 -0.2732
11615SOL    HW235424   6.389   5.294   9.698  0.0599  0.3383  0.3591
11616SOL     OW35425   4.628   5.687   7.716  0.5963  0.1062  0.7602
11616SOL    HW135426   4.711   5.683   7.764  0.1990 -0.7570  1.4055
11616SOL    HW235427   4.576   5.615   7.752 -0.6682  1.0117  0.8056
11617SOL     OW35428   2.224   6.813   6.667 -0.5916  0.4643 -0.0062
11617SOL    HW135429   2.315   6.840   6.654 -0.5943  0.3594 -0.2377
11617SOL    HW235430   2.229   6.722   6.694 -0.6934  0.0671 -1.2802
11618SOL     OW35431   7.165   2.149   5.780  0.1375 -0.0197  1.0940
11618SOL    HW135432   7.206   2.195   5.706 -2.6348  0.9782 -0.0013
11618SOL    HW235433   7.157   2.059   5.750  0.4565  0.0434  0.8108
11619SOL     OW35434   6.363   2.730   1.412 -0.3121  0.2651  0.0287
11619SOL    HW135435   6.307   2.807   1.424 -0.5639  0.3789 -1.6805
11619SOL    HW235436   6.427   2.756   1.346  0.2064 -0.6811  0.1326
11620SOL     OW35437   5.307   4.945   1.067 -0.0824  0.2459  0.1090
11620SOL    HW135438   5.295   4.959   1.162 -1.9238  0.7701 -0.1559
11620SOL    HW235439   5.301   5.033   1.030  0.4890  0.0224 -0.5192
11621SOL     OW35440   2.903   6.804   8.373 -0.4857  0.1035 -0.1607
11621SOL    HW135441   2.826   6.747   8.380 -0.0853 -0.4583 -0.2929
11621SOL    HW235442   2.967   6.752   8.325  1.0263 -0.5554  2.4171
11622SOL     OW35443   8.353   4.880   5.378  0.2629  0.6728  0.2591
11622SOL    HW135444   8.339   4.915   5.466 -0.2817 -2.2343  1.4586
11622SOL    HW235445   8.283   4.815   5.368  0.8750  0.2993 -1.9790
11623SOL     OW35446   5.017   8.235   9.381  0.0541 -0.6294 -0.6424
11623SOL    HW135447   5.014   8.277   9.467 -1.0231 -2.8069  0.4711
11623SOL    HW235448   4.965   8.292   9.325 -0.2411  0.2073  0.4433
11624SOL     OW35449   8.339   2.763   9.772  0.3137  0.0522 -0.1853
11624SOL    HW135450   8.359   2.842   9.822 -0.5554  1.1289 -1.4883
11624SOL    HW235451   8.284   2.793   9.700 -1.0407 -1.9177 -0.0460
11625SOL     OW35452   9.057   3.743   2.065 -0.8182 -0.3749  0.4032
11625SOL    HW135453   9.024   3.794   1.991 -1.4603 -2.9276 -1.2123
11625SOL    HW235454   9.133   3.696   2.029  0.4610  0.2422  2.1410
11626SOL     OW35455   8.239   1.200   9.525  0.1628 -0.1312  0.4251
11626SOL    HW135456   8.269   1.271   9.468  1.3104 -1.4282 -0.6459
11626SOL    HW235457   8.208   1.244   9.604 -0.3198  1.6362 -0.6987
11627SOL     OW35458   7.374   1.055   4.589 -0.2716 -0.4364 -0.0708
11627SOL    HW135459   7.312   1.037   4.659 -0.1381 -0.6542 -0.0063
11627SOL    HW235460   7.321   1.087   4.517 -0.3463  0.3705  0.3331
11628SOL     OW35461   8.303   5.254   0.517  0.0465  0.6642  0.1097
11628SOL    HW135462   8.266   5.308   0.447 -1.3543  1.4071  1.3653
11628SOL    HW235463   8.301   5.165   0.481 -0.3498  1.0673 -0.9143
11629SOL     OW35464   5.718   7.748   0.105 -0.5525  0.0626 -0.0167
11629SOL    HW135465   5.640   7.796   0.078 -0.9173  0.4743  1.6637
11629SOL    HW235466   5.691   7.700   0.183  1.2750  1.5055  1.6055
11630SOL     OW35467   8.731   6.291   0.418 -0.2895  0.5241  0.8229
11630SOL    HW135468   8.727   6.261   0.328 -2.2147  1.5708  0.4987
11630SOL    HW235469   8.768   6.218   0.467 -0.5988 -0.6109 -0.5924
11631SOL     OW35470   0.055   3.068   7.228 -0.4369  0.4114 -0.7931
11631SOL    HW135471   0.126   3.114   7.273 -1.3990 -0.6582  2.0778
11631SOL    HW235472   0.098   2.994   7.185  0.3524  0.3925 -0.0123
11632SOL     OW35473   3.870   7.265   6.470  0.3564 -0.6203  0.1269
11632SOL    HW135474   3.947   7.315   6.499 -0.9417  0.9293  1.0675
11632SOL    HW235475   3.837   7.314   6.394 -0.2091 -0.7462  0.2856
11633SOL     OW35476   1.458   2.523   8.250  0.6656 -0.0154 -0.3946
11633SOL    HW135477   1.418   2.610   8.254  1.2025  0.4204 -2.6819
11633SOL    HW235478   1.544   2.534   8.291 -0.3775 -0.2825  2.0463
11634SOL     OW35479   9.178   8.042   2.401 -0.3272  0.7585 -0.0965
11634SOL    HW135480   9.158   8.113   2.339  0.2534 -0.7777 -2.1330
11634SOL    HW235481   9.270   8.020   2.383 -0.7933 -1.2072 -0.2988
11635SOL     OW35482   4.753   0.886   5.870 -0.1316 -0.6215  0.1623
11635SOL    HW135483   4.810   0.924   5.937 -2.5918  0.5755  1.7357
11635SOL    HW235484   4.763   0.792   5.881 -0.0917 -0.4556  1.9666
11636SOL     OW35485   3.186   9.780   7.459  0.6062  0.6745  0.0992
11636SOL    HW135486   3.239   9.846   7.504 -0.0437 -0.4489  2.6821
11636SOL    HW235487   3.099   9.789   7.497  0.2970 -1.1121 -0.1146
11637SOL     OW35488   6.235   5.501   5.562 -0.7063 -0.0487 -0.7899
11637SOL    HW135489   6.182   5.556   5.620  0.3066 -1.1468  1.2804
11637SOL    HW235490   6.230   5.545   5.476 -4.5428  0.1525 -0.6372
11638SOL     OW35491   4.026   3.014   7.104  0.4301  0.3386 -0.5980
11638SOL    HW135492   4.081   3.014   7.025  0.9518 -0.1930 -0.2495
11638SOL    HW235493   3.992   3.103   7.110 -0.4877  0.1056 -2.0141
11639SOL     OW35494   3.434   3.677   6.370  0.2850 -0.5176 -0.2344
11639SOL    HW135495   3.462   3.762   6.336  1.7564 -1.4743 -1.5739
11639SOL    HW235496   3.359   3.653   6.316  1.2644 -1.0436 -1.4116
11640SOL     OW35497   5.681   1.916   7.516 -0.5649 -0.5058 -0.6928
11640SOL    HW135498   5.652   1.897   7.427  1.2972 -2.0392 -1.0329
11640SOL    HW235499   5.647   1.844   7.568 -0.4069 -0.3877 -0.4256
11641SOL     OW35500   8.807   1.481   0.909 -0.2075  0.2464 -0.5638
11641SOL    HW135501   8.824   1.431   0.829  0.1640 -1.0450  0.2923
11641SOL    HW235502   8.865   1.557   0.903  0.8130 -0.5357 -0.9155
11642SOL     OW35503   8.100   9.768   0.029  0.2400  0.4482  0.0777
11642SOL    HW135504   8.147   9.798   0.106  1.2399 -1.4963  0.3036
11642SOL    HW235505   8.083   9.675   0.047 -2.3800  0.7171 -0.6672
11643SOL     OW35506   4.391   1.501   0.443 -0.0797  0.0739  0.2102
11643SOL    HW135507   4.444   1.471   0.517  0.3521  0.4906  0.0758
11643SOL    HW235508   4.364   1.421   0.398  0.7263 -0.1326  0.0794
11644SOL     OW35509   6.792   9.977   5.414  0.2015  0.1953 -0.2952
11644SOL    HW135510   6.842   9.896   5.410 -1.5690 -0.9492 -0.2406
11644SOL    HW235511   6.746   9.973   5.498  1.0900  1.8995  0.3174
11645SOL     OW35512   6.784   9.330   3.967 -0.3383 -0.8912 -0.1269
11645SOL    HW135513   6.774   9.235   3.975 -0.3548 -0.8352  0.5483
11645SOL    HW235514   6.696   9.363   3.951 -0.7861 -0.7491  2.2310
11646SOL     OW35515   5.019   3.281   2.524 -0.3858  0.0895  0.3159
11646SOL    HW135516   5.070   3.206   2.555  1.0666  0.0792 -1.8440
11646SOL    HW235517   5.071   3.358   2.550 -1.3418  0.3360  1.6000
11647SOL     OW35518   2.793   5.541   9.241 -0.0850  0.3625  0.2433
11647SOL    HW135519   2.725   5.477   9.263 -0.6266  0.2495 -1.5660
11647SOL    HW235520   2.808   5.589   9.323 -1.4207 -0.4608  1.0140
11648SOL     OW35521   0.153   4.026   6.078 -0.4594  0.3428 -0.3564
11648SOL    HW135522   0.126   4.087   6.009 -2.7979 -0.2082  0.0051
11648SOL    HW235523   0.111   4.060   6.157 -0.1060 -0.5968  0.2422
11649SOL     OW35524   3.248   3.287   6.128 -0.2880  0.0599  0.3612
11649SOL    HW135525   3.223   3.306   6.038  0.9134  3.5507  0.6051
11649SOL    HW235526   3.343   3.274   6.124 -0.4584 -1.5508  0.9290
11650SOL     OW35527   9.527   2.374   6.762  0.1925  0.3141 -0.4198
11650SOL    HW135528   9.607   2.408   6.721 -0.2078  0.5781 -0.9955
11650SOL    HW235529   9.532   2.405   6.852  0.2836  1.1563 -0.6981
11651SOL     OW35530   6.673   0.230   8.470  0.5565  0.0408 -0.7451
11651SOL    HW135531   6.712   0.153   8.510 -0.3712  0.5684  1.3143
11651SOL    HW235532   6.626   0.273   8.541  0.0277  1.8560 -2.1074
11652SOL     OW35533   0.966   3.835   4.258 -0.4914  0.1772 -0.2623
11652SOL    HW135534   1.034   3.794   4.204  0.3877  1.8506 -0.4745
11652SOL    HW235535   0.888   3.832   4.203 -0.4560 -1.1244 -0.2909
11653SOL     OW35536   6.400   3.531   4.916  0.0836 -0.4976  0.3749
11653SOL    HW135537   6.452   3.608   4.941  1.5321 -1.5168  0.6354
11653SOL    HW235538   6.459   3.457   4.930 -0.6610 -1.5229 -1.5630
11654SOL     OW35539   1.273   6.143   2.270 -0.1596  0.2073 -0.0134
11654SOL    HW135540   1.303   6.200   2.200  0.4570 -0.1367 -0.0335
11654SOL    HW235541   1.192   6.183   2.301 -0.2055  0.5987 -0.6303
11655SOL     OW35542   6.589   3.594   2.579 -0.6424  0.1910 -0.3747
11655SOL    HW135543   6.509   3.638   2.548  0.2418  2.0932 -0.1269
11655SOL    HW235544   6.653   3.610   2.510 -0.2506 -0.5999 -0.1978
11656SOL     OW35545   0.042   6.289   8.528 -0.1875  0.0227  0.8399
11656SOL    HW135546  -0.024   6.224   8.551 -0.4759 -0.0165 -0.0965
11656SOL    HW235547   0.070   6.266   8.440 -2.2479  2.7131 -0.6444
11657SOL     OW35548   0.992   1.470   1.505  0.0760 -0.0332  0.2176
11657SOL    HW135549   1.052   1.450   1.433 -1.8312 -0.3214 -1.3683
11657SOL    HW235550   1.026   1.552   1.542  0.7033  0.5446 -1.5106
11658SOL     OW35551   8.719   1.892   0.649 -0.3529  0.0911 -0.2013
11658SOL    HW135552   8.762   1.828   0.591 -1.6626 -0.8535 -0.1593
11658SOL    HW235553   8.669   1.839   0.711  2.0685  1.0014  2.7599
11659SOL     OW35554   2.865   9.462   7.655 -0.1712  0.0025 -0.0841
11659SOL    HW135555   2.890   9.373   7.683 -2.0338 -0.2229  1.0247
11659SOL    HW235556   2.925   9.519   7.702  0.6007 -0.6343 -0.2677
11660SOL     OW35557   7.357   1.079   5.099 -1.2190  0.2793 -0.0696
11660SOL    HW135558   7.303   1.054   5.025 -0.5618  1.2708 -0.9166
11660SOL    HW235559   7.344   1.009   5.163 -3.5075  0.5105 -0.2129
11661SOL     OW35560   8.418   6.827   4.485 -0.7596 -0.0931 -0.1205
11661SOL    HW135561   8.373   6.908   4.462  0.8600  1.7945  2.7172
11661SOL    HW235562   8.472   6.807   4.408 -2.4412  0.5109 -1.5191
11662SOL     OW35563   7.418   4.329   4.800  0.3607  0.0871 -0.3079
11662SOL    HW135564   7.322   4.325   4.798  0.0947  2.1576  2.6399
11662SOL    HW235565   7.439   4.421   4.787  2.0235 -0.3595 -1.1070
11663SOL     OW35566   6.072   9.634   0.034  0.3626  0.1883  0.3980
11663SOL    HW135567   6.004   9.689   0.074  1.2324  0.6266  1.3017
11663SOL    HW235568   6.154   9.678   0.056  0.9108  0.3011 -1.6421
11664SOL     OW35569   0.595   4.644   4.025 -0.5675 -0.0946  0.0878
11664SOL    HW135570   0.511   4.644   3.978 -0.6162  2.0004  0.0607
11664SOL    HW235571   0.576   4.599   4.107 -1.2321 -1.2421 -0.6610
11665SOL     OW35572   1.411   6.297   0.831 -0.4567  0.3738  0.2450
11665SOL    HW135573   1.378   6.211   0.858  0.4885 -0.0362  0.1504
11665SOL    HW235574   1.405   6.296   0.735 -2.7423  1.3891  0.3095
11666SOL     OW35575   2.022   8.000   8.917  0.3274 -0.1993 -0.3383
11666SOL    HW135576   1.957   8.044   8.973  0.2105 -1.3826  0.4962
11666SOL    HW235577   1.986   7.912   8.903  1.4371 -0.6607 -0.4074
11667SOL     OW35578   6.044   5.310   5.544 -0.6541 -0.4693  0.3691
11667SOL    HW135579   5.963   5.361   5.544  0.3076  1.1400 -0.2772
11667SOL    HW235580   6.113   5.374   5.563  0.7754 -1.1629 -2.0591
11668SOL     OW35581   0.476   3.863   6.488 -0.2653  0.0574 -0.2941
11668SOL    HW135582   0.439   3.813   6.415 -0.6942  1.3838 -1.0116
11668SOL    HW235583   0.498   3.948   6.450  1.2760  0.1261  0.7033
11669SOL     OW35584   5.111   6.080   4.383 -0.0667 -0.0291  0.2939
11669SOL    HW135585   5.059   6.008   4.417  0.0506 -0.0498  0.4286
11669SOL    HW235586   5.091   6.081   4.289 -1.0123  0.5495  0.4887
11670SOL     OW35587   3.649   1.173   0.271  0.0809 -0.3259 -0.1825
11670SOL    HW135588   3.733   1.160   0.228 -0.8813 -4.7541 -1.2754
11670SOL    HW235589   3.645   1.104   0.337 -1.4161  1.8572  2.1738
11671SOL     OW35590   5.040   2.351   6.186 -0.3507  0.5261 -0.0369
11671SOL    HW135591   4.964   2.297   6.210 -0.6606 -0.1423 -2.3228
11671SOL    HW235592   5.034   2.361   6.091  2.0044  1.1248 -0.1861
11672SOL     OW35593   6.608   0.110   8.153  0.3701 -0.5323  0.0112
11672SOL    HW135594   6.690   0.062   8.161 -0.5141 -2.1232 -0.0527
11672SOL    HW235595   6.608   0.142   8.063  1.5662  0.7586  0.4447
11673SOL     OW35596   5.131   0.184   8.370  0.0517  0.1923 -0.0158
11673SOL    HW135597   5.162   0.113   8.314 -2.4271 -0.7262 -0.3613
11673SOL    HW235598   5.085   0.244   8.310 -0.7648  0.3202  0.7135
11674SOL     OW35599   0.051   7.881   4.550  0.4473 -0.7400  0.5107
11674SOL    HW135600  -0.035   7.854   4.582  0.1501 -0.5869 -0.1441
11674SOL    HW235601   0.072   7.819   4.481  0.5335 -0.3397  0.1689
11675SOL     OW35602   6.742   2.872   8.899  0.4661 -0.2671 -0.0846
11675SOL    HW135603   6.655   2.888   8.862  0.1315  0.1931  0.8673
11675SOL    HW235604   6.801   2.926   8.846 -0.1352  1.1514  0.6384
11676SOL     OW35605   0.506   8.812   4.110 -0.5097  0.1977  0.3935
11676SOL    HW135606   0.515   8.869   4.034  0.7074  0.7694  0.9425
11676SOL    HW235607   0.545   8.729   4.082 -0.5935  0.2205  0.2050
11677SOL     OW35608   6.897   9.526   8.244  0.1905  0.0841  0.0012
11677SOL    HW135609   6.847   9.578   8.306  0.0441 -0.2053  0.1320
11677SOL    HW235610   6.836   9.456   8.218 -0.3780  1.1757 -1.7860
11678SOL     OW35611   7.857   8.555   5.316 -0.0813 -0.3021 -0.2370
11678SOL    HW135612   7.855   8.542   5.411  0.5429  0.3625 -0.1314
11678SOL    HW235613   7.817   8.475   5.281 -2.1993  0.2994  0.6553
11679SOL     OW35614   6.119   9.887   1.890 -0.1194  0.5697 -0.9680
11679SOL    HW135615   6.196   9.866   1.837 -1.9978 -0.8203 -3.3240
11679SOL    HW235616   6.045   9.858   1.838 -2.2335  0.6851  1.7391
11680SOL     OW35617   1.515   1.609   4.802 -0.5324 -0.4069  0.1250
11680SOL    HW135618   1.585   1.594   4.739  1.0282 -1.0847  1.9426
11680SOL    HW235619   1.476   1.523   4.816  1.4963 -1.0317  2.6670
11681SOL     OW35620   7.374   4.021   4.769 -0.4345  0.5955  0.0719
11681SOL    HW135621   7.404   3.992   4.683 -2.4869  1.2865 -0.9357
11681SOL    HW235622   7.361   4.116   4.760 -2.2596  0.4365  0.5898
11682SOL     OW35623   3.290   0.849   1.373  0.0043  0.4861  0.7893
11682SOL    HW135624   3.280   0.784   1.303 -0.8305  0.6122  0.7861
11682SOL    HW235625   3.383   0.874   1.369  0.1720 -0.1825  0.3317
11683SOL     OW35626   3.929   9.403   4.097  0.6076  0.0767  0.3799
11683SOL    HW135627   3.863   9.389   4.029 -0.5420  0.7642  1.3289
11683SOL    HW235628   4.009   9.423   4.048  0.5632 -2.3387 -0.8334
11684SOL     OW35629   0.090   3.229   6.108  0.1886 -0.1921  0.0061
11684SOL    HW135630   0.061   3.315   6.076 -0.6653 -0.0350  1.1485
11684SOL    HW235631   0.174   3.246   6.151  1.8089 -0.5401 -2.7288
11685SOL     OW35632   9.413   8.498   2.836  0.0847  0.2731 -0.2942
11685SOL    HW135633   9.397   8.428   2.774  0.6924  0.2381 -0.4246
11685SOL    HW235634   9.329   8.513   2.879 -0.0336 -0.5600 -0.2332
11686SOL     OW35635   6.535   0.407   6.777  0.3634 -0.4983  0.2769
11686SOL    HW135636   6.597   0.411   6.705 -1.7884 -0.1672 -1.6644
11686SOL    HW235637   6.501   0.496   6.786 -0.9555 -0.9714  0.2262
11687SOL     OW35638   2.404   9.625   0.945 -0.4010 -0.4347 -0.4546
11687SOL    HW135639   2.412   9.706   0.894  1.4275  0.4803  1.1731
11687SOL    HW235640   2.310   9.611   0.953 -0.9161  3.0127  1.3616
11688SOL     OW35641   0.062   8.122   3.744 -0.1857 -0.4222 -0.7651
11688SOL    HW135642   0.017   8.039   3.726 -2.4598  0.1243  1.7196
11688SOL    HW235643  -0.007   8.182   3.770  1.7200  1.2779  0.7548
11689SOL     OW35644   3.822   2.683   3.839 -0.1194 -0.1647  0.2765
11689SOL    HW135645   3.853   2.772   3.823  0.2266 -0.4170 -0.4813
11689SOL    HW235646   3.886   2.646   3.900 -0.1962  0.0640  0.4968
11690SOL     OW35647   7.908   0.841   5.307 -0.2468 -0.0829  0.9450
11690SOL    HW135648   7.964   0.771   5.342 -0.0615 -0.1564  0.5087
11690SOL    HW235649   7.969   0.913   5.290  0.0872 -0.8245 -1.3897
11691SOL     OW35650   6.260   9.124   6.555  0.0907  0.3916 -0.3251
11691SOL    HW135651   6.245   9.056   6.622  0.2845  0.2497 -0.4248
11691SOL    HW235652   6.339   9.096   6.510  1.8941  2.1612  1.5168
11692SOL     OW35653   8.311   4.541   9.257  0.1547  0.1453 -0.0154
11692SOL    HW135654   8.258   4.557   9.335 -0.9067  1.1777 -0.9137
11692SOL    HW235655   8.326   4.628   9.220 -0.6707 -0.4125 -1.7961
11693SOL     OW35656   5.467   2.066   9.615 -0.1572 -0.4022 -0.4087
11693SOL    HW135657   5.444   2.111   9.534  1.8270  0.3888 -0.5852
11693SOL    HW235658   5.492   2.136   9.675  2.1578 -1.1408 -0.4175
11694SOL     OW35659   0.920   4.011   7.289  0.4334  0.8188  0.2246
11694SOL    HW135660   0.971   3.930   7.296  0.1847  0.5684 -0.7195
11694SOL    HW235661   0.829   3.984   7.301  0.2461  0.7705 -1.1022
11695SOL     OW35662   7.718   8.536   8.440  0.2758 -0.2779 -0.3639
11695SOL    HW135663   7.811   8.529   8.417 -0.0607 -0.0061 -1.9636
11695SOL    HW235664   7.691   8.620   8.403 -0.9349 -1.0036 -1.2041
11696SOL     OW35665   0.796   7.836   5.446 -0.3182 -0.3254  0.8134
11696SOL    HW135666   0.857   7.835   5.372 -2.6237 -0.3421 -1.2007
11696SOL    HW235667   0.805   7.924   5.484  0.8258 -0.2868  0.4804
11697SOL     OW35668   3.759   6.774   8.763 -0.5393 -0.4537  0.6176
11697SOL    HW135669   3.824   6.704   8.757 -0.6499 -0.4623 -0.7156
11697SOL    HW235670   3.675   6.728   8.770 -0.6797 -0.4755 -1.0409
11698SOL     OW35671   0.964   9.846   4.369 -0.4422 -0.0923  0.2020
11698SOL    HW135672   0.899   9.878   4.305  0.6805 -0.1271 -1.0110
11698SOL    HW235673   0.915   9.787   4.426 -1.6137  0.3986 -0.2566
11699SOL     OW35674   0.584   4.852   0.813  0.7913 -0.1633 -0.0852
11699SOL    HW135675   0.545   4.842   0.899  1.2370  1.2277  0.3106
11699SOL    HW235676   0.656   4.914   0.826  1.9768 -1.2497 -1.1438
11700SOL     OW35677   2.707   7.602   7.176 -0.1420 -0.3689  0.1617
11700SOL    HW135678   2.634   7.582   7.234  0.3233  0.0745  0.9094
11700SOL    HW235679   2.753   7.675   7.218 -0.1261  0.3505 -1.0502
11701SOL     OW35680   9.448   3.883   6.904 -0.2552  0.5025  0.2618
11701SOL    HW135681   9.352   3.882   6.899 -0.2067 -1.0905 -1.0843
11701SOL    HW235682   9.467   3.834   6.984 -0.5694 -0.6441 -0.3377
11702SOL     OW35683   0.507   6.028   5.234  0.0903  0.5116  0.2403
11702SOL    HW135684   0.459   6.110   5.222 -1.0753 -0.1533  0.2654
11702SOL    HW235685   0.503   5.984   5.149 -0.3611 -0.0667  0.5486
11703SOL     OW35686   2.776   6.894   3.893  0.2451  0.2450 -0.3179
11703SOL    HW135687   2.781   6.864   3.983 -0.7188  2.4480  0.5318
11703SOL    HW235688   2.701   6.846   3.856  0.1413 -0.0666  0.2771
11704SOL     OW35689   9.269   9.850   1.662 -0.3038  0.5305 -0.6023
11704SOL    HW135690   9.289   9.865   1.755 -0.2227  2.4708 -0.8853
11704SOL    HW235691   9.261   9.755   1.655  1.3906  0.1754  1.0525
11705SOL     OW35692   3.746   8.117   4.852  0.4926 -0.3024  0.2951
11705SOL    HW135693   3.837   8.092   4.871  0.6416 -0.8562 -0.9738
11705SOL    HW235694   3.747   8.136   4.758 -0.3728  1.2721  0.5731
11706SOL     OW35695   1.079   9.090   2.056  0.0539 -0.1583 -0.4874
11706SOL    HW135696   1.104   9.009   2.011  1.4774 -0.1819  0.2964
11706SOL    HW235697   1.078   9.066   2.149 -0.2881  0.5388 -0.3062
11707SOL     OW35698   3.282   5.734   2.596  0.2504 -0.2728  0.2088
11707SOL    HW135699   3.275   5.825   2.625  0.5257 -0.5638  1.2244
11707SOL    HW235700   3.210   5.689   2.640  0.7270 -0.7440  0.5209
11708SOL     OW35701   7.385   5.841   2.364  0.1026  0.0761 -0.0058
11708SOL    HW135702   7.301   5.867   2.324 -0.3037 -0.3790  0.5444
11708SOL    HW235703   7.387   5.746   2.355  0.5800  0.0908 -0.0486
11709SOL     OW35704   7.491   2.761   1.806 -0.0618  0.3108  0.2355
11709SOL    HW135705   7.465   2.790   1.894  0.1080  1.3253 -0.0319
11709SOL    HW235706   7.587   2.761   1.809 -0.0324  1.1385 -0.1708
11710SOL     OW35707   8.240   7.617   8.912  0.1153 -0.2514  0.7704
11710SOL    HW135708   8.178   7.618   8.985  1.5236 -1.4234  2.0586
11710SOL    HW235709   8.221   7.698   8.864 -1.8186 -0.1630  1.5822
11711SOL     OW35710   1.555   2.686   2.599  0.4367 -0.7347  0.4878
11711SOL    HW135711   1.591   2.702   2.686  1.0414 -1.4694  0.3809
11711SOL    HW235712   1.491   2.615   2.611  2.1617 -2.4503 -0.0032
11712SOL     OW35713   1.025   5.732   6.415  0.1814  0.0227  0.3868
11712SOL    HW135714   1.070   5.805   6.373 -1.7770  0.5216 -0.9876
11712SOL    HW235715   1.095   5.678   6.452  1.7778  1.5013 -0.3648
11713SOL     OW35716   5.715   7.646   4.341 -0.4614  0.9751 -0.1277
11713SOL    HW135717   5.764   7.579   4.294 -2.6968 -0.0798 -1.1395
11713SOL    HW235718   5.688   7.603   4.422 -1.8365  0.5889 -0.7470
11714SOL     OW35719   1.689   0.262   6.306 -0.3671 -0.0844  0.2931
11714SOL    HW135720   1.620   0.276   6.241  1.2051 -1.4389 -1.8048
11714SOL    HW235721   1.664   0.180   6.350 -0.8154  0.1946  0.5670
11715SOL     OW35722   3.265   7.174   2.700 -0.0179  0.1439  0.0995
11715SOL    HW135723   3.270   7.202   2.792  1.2952  0.1202  0.0621
11715SOL    HW235724   3.325   7.233   2.654 -1.2177  0.6247 -0.8733
11716SOL     OW35725   0.354   4.975   8.941 -0.6023  0.0423 -0.2575
11716SOL    HW135726   0.380   4.945   9.028  0.6694 -1.5784 -1.1248
11716SOL    HW235727   0.400   5.058   8.929  1.2057 -0.8933 -0.2550
11717SOL     OW35728   1.215   6.326   9.208 -0.1040  0.3943 -0.0633
11717SOL    HW135729   1.255   6.272   9.139  1.9771 -0.0770  1.4316
11717SOL    HW235730   1.194   6.408   9.164  1.7468  0.3327 -1.1820
11718SOL     OW35731   5.749   6.885   6.410 -0.2846 -0.6158 -0.4729
11718SOL    HW135732   5.844   6.884   6.425 -0.4966  1.6093  1.5877
11718SOL    HW235733   5.721   6.796   6.432  1.0222 -0.5793  1.6901
11719SOL     OW35734   8.797   1.912   1.486  0.1536 -0.2986 -0.3171
11719SOL    HW135735   8.800   1.840   1.423  0.2447 -1.3805  0.8897
11719SOL    HW235736   8.839   1.986   1.440  1.0790 -1.3230 -1.1671
11720SOL     OW35737   1.659   1.122   7.180  0.4454  0.3491  0.0666
11720SOL    HW135738   1.626   1.123   7.090  0.3568 -0.6318  0.0846
11720SOL    HW235739   1.671   1.215   7.202  0.6741  0.5823 -1.0229
11721SOL     OW35740   8.036   7.467   6.265 -0.1463  0.4833 -0.0874
11721SOL    HW135741   8.102   7.532   6.287 -0.6319  0.9816 -0.0886
11721SOL    HW235742   8.082   7.402   6.212  0.2743  0.9778 -0.3247
11722SOL     OW35743   7.296   3.572   5.419  0.1671 -0.0366 -0.4960
11722SOL    HW135744   7.239   3.623   5.477 -0.3301 -1.1824  0.0435
11722SOL    HW235745   7.294   3.484   5.455  1.9865 -0.1964 -0.7001
11723SOL     OW35746   5.528   8.519   4.126 -0.1956 -0.5343  0.0406
11723SOL    HW135747   5.526   8.585   4.195  1.8232  0.3304 -0.6407
11723SOL    HW235748   5.454   8.540   4.070 -0.0927  0.6419  0.3191
11724SOL     OW35749   5.245   6.518   2.215 -0.1134 -0.3631  0.5049
11724SOL    HW135750   5.326   6.506   2.263  1.7763 -0.4088 -2.4522
11724SOL    HW235751   5.241   6.612   2.198 -2.1690  0.0822  2.8473
11725SOL     OW35752   9.242   1.210   6.570  0.5532  0.2903 -0.0633
11725SOL    HW135753   9.312   1.273   6.557  0.7149  0.0154 -0.5696
11725SOL    HW235754   9.191   1.212   6.489  0.2378  0.1671  0.1263
11726SOL     OW35755   4.748   4.379   1.213 -0.6318  0.1034  0.6585
11726SOL    HW135756   4.729   4.472   1.230 -2.8684 -0.4586  1.6863
11726SOL    HW235757   4.673   4.349   1.163 -0.1605 -1.2622  0.7466
11727SOL     OW35758   5.133   1.675   9.755 -0.2938 -0.0106  0.1279
11727SOL    HW135759   5.160   1.765   9.736  0.4659 -0.1438  0.5314
11727SOL    HW235760   5.038   1.676   9.744 -0.3761  1.0022  0.7622
11728SOL     OW35761   0.206   6.377   1.906  0.2002 -0.1525 -0.3322
11728SOL    HW135762   0.169   6.311   1.965  1.0317 -1.0690 -0.8191
11728SOL    HW235763   0.212   6.456   1.960  0.3165 -0.7961  0.6257
11729SOL     OW35764   5.927   1.766   2.994  0.1571 -0.3810  0.3343
11729SOL    HW135765   5.862   1.836   2.984 -0.7739 -1.2827 -0.1175
11729SOL    HW235766   5.875   1.686   2.997  1.3201 -1.3663 -2.3746
11730SOL     OW35767   7.603   4.730   8.545 -0.7346 -0.2289 -0.2155
11730SOL    HW135768   7.619   4.739   8.451 -0.1651  1.9520  0.0509
11730SOL    HW235769   7.577   4.638   8.555  1.4822 -1.1934 -2.1590
11731SOL     OW35770   0.115   4.872   4.663 -0.1624  0.4570 -0.1759
11731SOL    HW135771   0.117   4.841   4.754  0.1097 -0.0522 -0.3493
11731SOL    HW235772   0.187   4.825   4.621 -1.0770 -0.2961 -0.9566
11732SOL     OW35773   6.532   5.052   9.674  0.0325  0.1425  0.3294
11732SOL    HW135774   6.552   4.958   9.672 -0.2096  0.0623 -2.6599
11732SOL    HW235775   6.514   5.074   9.583 -0.4917  3.0028  1.0489
11733SOL     OW35776   5.315   3.349   2.491 -0.3885 -0.0802  0.2602
11733SOL    HW135777   5.343   3.427   2.442  0.2445 -1.0721 -1.0391
11733SOL    HW235778   5.394   3.318   2.534 -0.0468 -1.3041 -1.1492
11734SOL     OW35779   6.052   4.207   1.687 -0.1217 -0.0088 -0.3766
11734SOL    HW135780   6.066   4.278   1.625  0.3320 -0.3893 -0.7193
11734SOL    HW235781   6.085   4.240   1.771 -2.2728  1.1471  0.0889
11735SOL     OW35782   8.342   4.690   3.586 -0.2412  0.2534  0.0799
11735SOL    HW135783   8.265   4.687   3.642 -0.5385  0.3092 -0.3250
11735SOL    HW235784   8.379   4.777   3.602 -1.2186  0.8983 -0.9819
11736SOL     OW35785   0.454   8.112   0.493 -0.5110  0.2389  0.1842
11736SOL    HW135786   0.405   8.115   0.411  0.3915 -2.6367 -0.5636
11736SOL    HW235787   0.513   8.187   0.489 -1.2863  0.8138 -1.2262
11737SOL     OW35788   4.942   4.933   0.384  0.3656  0.0949  0.0702
11737SOL    HW135789   4.880   4.888   0.441  0.2047 -1.8769 -1.5681
11737SOL    HW235790   4.897   5.014   0.360 -0.8068 -0.4396  0.3684
11738SOL     OW35791   3.113   8.985   7.098 -0.1579  0.0020  0.5442
11738SOL    HW135792   3.041   8.973   7.160  1.2337  0.6903  2.3501
11738SOL    HW235793   3.086   8.934   7.021 -1.4745 -1.7509  2.0617
11739SOL     OW35794   6.247   1.843   4.097 -0.9700  0.2569  0.0735
11739SOL    HW135795   6.322   1.808   4.050 -1.1516 -0.4302  0.2929
11739SOL    HW235796   6.199   1.893   4.030  0.5917  2.2281  0.3182
11740SOL     OW35797   9.198   7.207   6.652  0.0160 -0.0337  0.6079
11740SOL    HW135798   9.116   7.158   6.656  1.2685 -2.3417 -0.0607
11740SOL    HW235799   9.211   7.225   6.559  0.5967 -0.3375  0.6228
11741SOL     OW35800   0.806   0.770   2.343  0.0246 -0.6024 -0.0649
11741SOL    HW135801   0.875   0.746   2.405  1.3231  2.9158  0.0585
11741SOL    HW235802   0.850   0.772   2.258 -0.1145  0.7618 -0.1202
11742SOL     OW35803   2.623   6.539   4.040  0.2059 -0.0520 -0.0940
11742SOL    HW135804   2.572   6.462   4.015 -0.3699  0.2972 -0.0139
11742SOL    HW235805   2.575   6.576   4.115  1.2596 -0.4235  0.7976
11743SOL     OW35806   0.738   4.131   8.317  0.5513 -0.3335 -0.0911
11743SOL    HW135807   0.768   4.073   8.247  1.1497 -0.5082  0.3049
11743SOL    HW235808   0.747   4.219   8.280 -1.0067 -0.4919 -0.9447
11744SOL     OW35809   6.936   0.947   3.324 -0.5967  0.4264 -0.7243
11744SOL    HW135810   7.026   0.922   3.346  0.0603  1.7032 -1.8007
11744SOL    HW235811   6.915   0.892   3.248  0.2884  1.9359 -2.1327
11745SOL     OW35812   8.321   4.779   9.135  0.2459 -0.4474  0.1005
11745SOL    HW135813   8.337   4.801   9.043  0.0648 -1.9632 -0.3217
11745SOL    HW235814   8.235   4.816   9.155  1.0592  1.4514  0.2152
11746SOL     OW35815   1.165   5.183   5.938 -0.1361  0.5005  0.0590
11746SOL    HW135816   1.166   5.109   5.998  0.7088  0.4284 -0.0314
11746SOL    HW235817   1.233   5.162   5.874 -0.9179  0.6405 -0.8416
11747SOL     OW35818   9.187   2.599   0.785 -0.7340 -0.0027  0.2297
11747SOL    HW135819   9.093   2.606   0.800 -0.5680  0.2235  1.2506
11747SOL    HW235820   9.198   2.519   0.734 -1.4979  0.1370 -0.1743
11748SOL     OW35821   4.292   9.440   9.331 -0.1790  0.5974 -0.1522
11748SOL    HW135822   4.340   9.381   9.273  0.5126 -1.0497  1.9852
11748SOL    HW235823   4.201   9.432   9.304 -0.1836 -1.9539  0.4441
11749SOL     OW35824   1.935   0.166   6.186 -0.0652  0.1067  0.2801
11749SOL    HW135825   2.001   0.144   6.251 -0.1788 -0.9526  0.0556
11749SOL    HW235826   1.854   0.172   6.236 -0.3855 -1.9828  0.0947
11750SOL     OW35827   1.607   9.930   9.152 -0.0932 -0.4706  0.3350
11750SOL    HW135828   1.616   9.861   9.086  0.6214 -0.0612 -0.0089
11750SOL    HW235829   1.516   9.958   9.146 -0.0040 -0.3654 -0.5557
11751SOL     OW35830   4.689   9.437   9.853  0.1455  0.1740  0.4588
11751SOL    HW135831   4.648   9.388   9.782  0.1528 -0.7651  1.0978
11751SOL    HW235832   4.672   9.529   9.831 -0.6020 -0.1353 -0.2970
11752SOL     OW35833   9.781   7.973   8.344 -0.0559  0.0246  0.2664
11752SOL    HW135834   9.760   7.950   8.434  1.1296 -1.2723  0.2440
11752SOL    HW235835   9.729   7.912   8.291 -0.0049  0.1264  0.0980
11753SOL     OW35836   5.552   8.981   5.065  0.3452 -0.3008 -0.0780
11753SOL    HW135837   5.553   9.066   5.020  1.1747 -0.6229 -0.6968
11753SOL    HW235838   5.533   9.003   5.156 -1.8327  0.3233 -0.6366
11754SOL     OW35839   5.021   2.410   5.915  0.2440 -0.1691 -0.3241
11754SOL    HW135840   5.113   2.418   5.889  0.0545  1.0305 -0.7157
11754SOL    HW235841   4.973   2.408   5.832 -0.1521  0.3587 -0.1128
11755SOL     OW35842   9.923   3.774   3.177 -0.4325  1.2366  0.0930
11755SOL    HW135843   9.992   3.722   3.219  0.7103  1.1653 -1.7896
11755SOL    HW235844   9.867   3.709   3.135  1.3598  1.4127 -2.8180
11756SOL     OW35845   9.957   2.092   4.091 -0.6219  0.7356 -0.0008
11756SOL    HW135846   9.921   2.179   4.110 -2.1400  0.8382 -2.7798
11756SOL    HW235847   9.977   2.095   3.997 -1.0483 -2.0381 -0.2456
11757SOL     OW35848   0.463   6.325   9.094  0.4415 -0.0077 -0.2334
11757SOL    HW135849   0.475   6.382   9.018 -0.8181 -0.9758 -1.2027
11757SOL    HW235850   0.377   6.286   9.081  1.5219 -2.6513  0.0201
11758SOL     OW35851   5.232   3.502   6.455  0.4326 -0.9911  0.1315
11758SOL    HW135852   5.301   3.436   6.446  0.7204 -0.7128  0.2810
11758SOL    HW235853   5.209   3.500   6.548  1.0143 -0.3099  0.2938
11759SOL     OW35854   2.727   9.517   4.862 -0.1324 -0.1616 -0.2473
11759SOL    HW135855   2.703   9.467   4.941  1.4614 -0.1633  0.2727
11759SOL    HW235856   2.752   9.450   4.799  0.6056 -0.0896 -0.0387
11760SOL     OW35857   1.313   0.961   6.126  0.3496 -0.2263  0.4165
11760SOL    HW135858   1.398   1.004   6.117  0.8873 -1.6453 -2.0561
11760SOL    HW235859   1.334   0.868   6.137 -0.8747 -0.6944 -0.9937
11761SOL     OW35860   0.022   2.621   2.829 -1.3994 -0.1247 -0.3219
11761SOL    HW135861  -0.020   2.647   2.747 -1.4149 -1.3467 -0.7261
11761SOL    HW235862   0.097   2.568   2.802 -1.0955 -0.1008  0.4442
11762SOL     OW35863   0.818   3.837   3.618 -0.1922  0.1864 -0.5380
11762SOL    HW135864   0.888   3.902   3.617  0.5697 -0.6154 -0.8129
11762SOL    HW235865   0.795   3.827   3.710 -0.5122  1.0321 -0.5137
11763SOL     OW35866   0.545   0.121   7.736  0.1516 -0.2814 -0.2019
11763SOL    HW135867   0.636   0.129   7.707 -0.4393 -0.1870 -2.1389
11763SOL    HW235868   0.524   0.029   7.724  0.0878 -0.3696  0.5694
11764SOL     OW35869   6.106   2.288   1.798 -0.2893  0.0611 -0.3273
11764SOL    HW135870   6.097   2.382   1.813 -1.6278 -0.0205 -0.4965
11764SOL    HW235871   6.178   2.281   1.736 -0.6035  1.0310 -0.8337
11765SOL     OW35872   5.393   8.027   6.127  0.5439  0.5691  0.7344
11765SOL    HW135873   5.422   8.035   6.217 -0.0119  0.6449  0.9123
11765SOL    HW235874   5.386   7.932   6.112  1.7416  0.5157  0.3972
11766SOL     OW35875   4.637   0.945   9.320 -0.6448  0.0152  0.2207
11766SOL    HW135876   4.725   0.941   9.281 -1.6349 -2.9105 -2.0623
11766SOL    HW235877   4.652   0.938   9.414  1.5572 -3.2990 -0.2276
11767SOL     OW35878   7.371   4.941   9.863  0.4569 -0.8189 -0.4025
11767SOL    HW135879   7.396   4.859   9.822  0.9268 -0.6127 -0.5366
11767SOL    HW235880   7.397   5.009   9.801 -1.7897 -0.6380 -1.2380
11768SOL     OW35881   2.057   6.252   3.321  0.0670 -0.0005 -0.2649
11768SOL    HW135882   2.082   6.256   3.229 -1.2146 -0.0597 -0.6399
11768SOL    HW235883   2.074   6.161   3.347  2.5261  0.5375  0.2244
11769SOL     OW35884   6.086   5.318   1.534  0.3732  0.3884  0.0149
11769SOL    HW135885   6.153   5.385   1.549 -0.1901  1.5298 -2.1183
11769SOL    HW235886   6.131   5.235   1.544  1.2701  1.0546  2.0232
11770SOL     OW35887   5.867   4.724   2.468  0.4484 -0.0301 -0.3748
11770SOL    HW135888   5.858   4.658   2.537  0.1675 -0.8148 -1.1419
11770SOL    HW235889   5.940   4.693   2.415 -0.6124 -0.5354 -1.5932
11771SOL     OW35890   1.572   6.398   3.809 -0.1815  0.0160  0.1844
11771SOL    HW135891   1.591   6.440   3.725  1.0322 -0.9032 -0.0188
11771SOL    HW235892   1.651   6.411   3.861  0.2906 -2.0779  0.0754
11772SOL     OW35893   4.641   9.443   6.251 -0.3202 -0.0795 -0.0815
11772SOL    HW135894   4.630   9.472   6.161 -1.2031  0.2951  0.1342
11772SOL    HW235895   4.718   9.386   6.249  0.8477  1.4599 -0.7064
11773SOL     OW35896   5.297   0.050   6.434  0.5113 -0.6047  0.2109
11773SOL    HW135897   5.321   0.040   6.526  0.9139 -1.0012  0.0635
11773SOL    HW235898   5.215   0.001   6.426 -0.7031  1.1919  0.8346
11774SOL     OW35899   2.561   6.164   8.956 -0.3587  0.1262  0.0544
11774SOL    HW135900   2.505   6.145   9.031  0.4190 -0.3223  0.5349
11774SOL    HW235901   2.551   6.088   8.898  0.4338 -0.3809  0.5652
11775SOL     OW35902   2.930   0.480   5.129  0.5479  0.2472 -0.1406
11775SOL    HW135903   3.011   0.457   5.176  0.0512  1.0645  1.1753
11775SOL    HW235904   2.860   0.441   5.181  0.0761 -0.2895 -1.1669
11776SOL     OW35905   7.733   4.110   8.635 -0.4390  0.4755 -0.0092
11776SOL    HW135906   7.813   4.118   8.583 -0.4196  0.0018 -0.0579
11776SOL    HW235907   7.734   4.020   8.667 -1.8093 -0.0987 -1.4285
11777SOL     OW35908   1.596   8.041   5.000  0.0673 -0.7995 -0.3111
11777SOL    HW135909   1.640   7.961   4.971  1.0989 -0.5748  0.5842
11777SOL    HW235910   1.615   8.046   5.094  1.0307  1.1155 -0.5554
11778SOL     OW35911   7.818   5.749   6.666 -0.3628  0.0707  0.1357
11778SOL    HW135912   7.866   5.828   6.641 -0.4174  0.2456  0.5749
11778SOL    HW235913   7.847   5.730   6.755 -1.2320  0.2904  0.4857
11779SOL     OW35914   4.256   4.166   5.314 -0.0340 -0.5003  0.1811
11779SOL    HW135915   4.329   4.104   5.319  0.0081 -0.3383  1.9474
11779SOL    HW235916   4.239   4.191   5.404 -0.5884  1.4719 -0.4186
11780SOL     OW35917   0.097   1.076   2.592 -0.1141 -0.0365 -0.1644
11780SOL    HW135918   0.180   1.083   2.639 -0.0139 -0.3433 -0.2943
11780SOL    HW235919   0.120   1.035   2.509 -0.3551  0.1286 -0.3128
11781SOL     OW35920   1.285   4.743   4.782  0.9331  0.1954  0.5743
11781SOL    HW135921   1.199   4.783   4.787  0.4791 -0.8779  2.8343
11781SOL    HW235922   1.345   4.810   4.815  1.0658  1.0371 -1.2461
11782SOL     OW35923   1.915   5.229   5.474 -0.2224  0.0959  0.1958
11782SOL    HW135924   1.900   5.313   5.432 -1.6072  0.5973  1.5965
11782SOL    HW235925   1.925   5.167   5.402  1.4066  1.5271 -0.8597
11783SOL     OW35926   0.799   0.570   7.955 -0.6027  0.4743  0.2557
11783SOL    HW135927   0.705   0.583   7.946 -0.6282  0.9217  1.1544
11783SOL    HW235928   0.838   0.640   7.903 -0.7679  1.2978  1.2196
11784SOL     OW35929   1.549   6.729   4.484 -0.3338 -0.0895  0.1590
11784SOL    HW135930   1.544   6.703   4.392 -0.3444 -0.2047  0.1910
11784SOL    HW235931   1.584   6.818   4.483  0.7836 -0.5139  0.1081
11785SOL     OW35932   2.637   0.045   7.236 -0.3212  0.4675  0.3690
11785SOL    HW135933   2.693  -0.029   7.215 -1.4458  0.0188 -1.1791
11785SOL    HW235934   2.676   0.119   7.190  0.5709  0.7839  1.5875
11786SOL     OW35935   8.516   5.513   9.016  0.6827  0.6654 -0.1031
11786SOL    HW135936   8.611   5.515   9.025  0.8605  1.8127 -1.9112
11786SOL    HW235937   8.484   5.525   9.106  2.2057 -0.4492  0.6377
11787SOL     OW35938   0.113   0.813   3.888  0.2421  0.2475 -0.3166
11787SOL    HW135939   0.062   0.777   3.816 -1.2330  1.1095  0.2387
11787SOL    HW235940   0.173   0.743   3.913 -0.3404 -0.6381 -1.3130
11788SOL     OW35941   9.734   7.683   6.392 -0.2369  0.1346 -0.1979
11788SOL    HW135942   9.812   7.630   6.410 -0.4086 -0.0042  0.1353
11788SOL    HW235943   9.674   7.622   6.348  0.3272  0.5613 -1.6450
11789SOL     OW35944   6.136   8.595   1.113 -0.4095 -0.3468 -0.4550
11789SOL    HW135945   6.219   8.596   1.064  0.0134  0.5805  0.2641
11789SOL    HW235946   6.109   8.687   1.117  0.3471 -0.1716  2.3316
11790SOL     OW35947   7.453   0.386   5.868 -0.3394  0.7026 -0.0330
11790SOL    HW135948   7.499   0.310   5.833 -0.1597  0.7170  0.1672
11790SOL    HW235949   7.514   0.458   5.858 -0.5019  0.8186 -0.2021
11791SOL     OW35950   3.844   8.569   2.084 -0.0974 -0.0432  0.1996
11791SOL    HW135951   3.854   8.546   1.991 -0.5060  1.2399 -0.1860
11791SOL    HW235952   3.763   8.526   2.110  0.5587 -1.2962  0.2823
11792SOL     OW35953   6.517   4.154   8.972 -0.0228 -0.1255  0.6244
11792SOL    HW135954   6.557   4.140   9.057  1.3733 -0.4458 -0.0554
11792SOL    HW235955   6.503   4.249   8.968  0.6073 -0.0149  0.9167
11793SOL     OW35956   8.914   8.598   2.970 -0.3088 -0.0125  0.3303
11793SOL    HW135957   8.846   8.657   2.938 -1.0157 -0.2198  1.4033
11793SOL    HW235958   8.872   8.550   3.041  0.9041 -0.2824  0.8845
11794SOL     OW35959   4.490   6.049   2.223 -0.5745  0.1434  0.8338
11794SOL    HW135960   4.433   5.988   2.177  0.3108 -0.6418  0.7527
11794SOL    HW235961   4.431   6.097   2.282 -2.1662  2.6691 -2.4635
11795SOL     OW35962   6.560   5.890   0.753  0.4337 -0.1648  0.1806
11795SOL    HW135963   6.628   5.922   0.813  1.4504 -2.8279  0.5843
11795SOL    HW235964   6.478   5.911   0.797  0.9236  2.7712 -0.1255
11796SOL     OW35965   8.291   6.662   5.378  0.1796  0.5562  0.1927
11796SOL    HW135966   8.385   6.670   5.391  0.4265  0.5576 -1.3705
11796SOL    HW235967   8.282   6.638   5.286 -1.3025 -0.6188  0.6030
11797SOL     OW35968   1.875   0.322   8.700 -0.2961 -0.3118 -0.0632
11797SOL    HW135969   1.937   0.391   8.725 -1.1509  0.3107  0.3652
11797SOL    HW235970   1.861   0.272   8.780 -1.5402  0.5071  0.2615
11798SOL     OW35971   3.586   2.588   7.425 -0.3879  0.6171  0.3356
11798SOL    HW135972   3.511   2.641   7.400 -0.2958  0.2838 -0.6922
11798SOL    HW235973   3.662   2.640   7.401 -0.2955  0.3709  0.0859
11799SOL     OW35974   1.812   9.388   4.452 -0.6797 -0.3186 -0.9068
11799SOL    HW135975   1.785   9.439   4.529 -1.1582 -1.3753 -0.3460
11799SOL    HW235976   1.799   9.447   4.378 -1.1917  0.3848 -0.2721
11800SOL     OW35977   5.162   2.351   7.114 -0.0322  0.3583  0.1050
11800SOL    HW135978   5.120   2.369   7.198 -1.5644 -0.9772 -0.3257
11800SOL    HW235979   5.250   2.319   7.137 -1.2254 -2.3433  1.3999
11801SOL     OW35980   8.768   6.922   7.935 -0.2810 -0.3122  0.3692
11801SOL    HW135981   8.733   6.837   7.913  0.6569 -0.1058 -2.2158
11801SOL    HW235982   8.863   6.910   7.934 -0.0697  1.0206 -1.5662
11802SOL     OW35983   9.428   0.045   1.403  0.5747 -0.4871  0.2498
11802SOL    HW135984   9.461  -0.044   1.416 -1.8147 -1.4357  0.2381
11802SOL    HW235985   9.362   0.037   1.334 -0.4530  1.0786  0.9951
11803SOL     OW35986   3.646   4.695   8.057 -1.0136  0.3997 -0.2512
11803SOL    HW135987   3.619   4.657   7.973 -0.7932 -0.2002 -0.0554
11803SOL    HW235988   3.705   4.766   8.033 -0.2969 -0.2951 -0.5850
11804SOL     OW35989   8.024   7.719   1.129 -0.1321 -0.3176 -0.5818
11804SOL    HW135990   8.022   7.805   1.088  2.7047 -0.1072 -0.4858
11804SOL    HW235991   8.008   7.658   1.057  0.3674  0.2187 -1.1681
11805SOL     OW35992   9.955   4.823   1.841  0.3838  0.3632 -0.0189
11805SOL    HW135993  10.043   4.793   1.861  0.7308  2.4241  1.9063
11805SOL    HW235994   9.899   4.775   1.903  0.1078 -0.9349 -1.2311
11806SOL     OW35995   5.360   3.362   7.558 -0.7277  0.2612  0.3934
11806SOL    HW135996   5.273   3.325   7.573 -1.3359  0.0387 -2.9511
11806SOL    HW235997   5.420   3.297   7.595 -1.9337 -0.4694  1.1253
11807SOL     OW35998   0.940   4.021   7.022 -0.0256 -0.2279  0.0588
11807SOL    HW135999   0.946   4.039   7.116  2.1514  0.7022 -0.1855
11807SOL    HW236000   0.850   4.042   6.999 -0.1054  1.3933  1.6165
11808SOL     OW36001   1.422   5.975   5.562  0.0884  0.2607  0.1638
11808SOL    HW136002   1.439   6.060   5.520  1.3893 -1.1231 -2.2847
11808SOL    HW236003   1.338   5.947   5.526 -1.4224  1.3281  2.5662
11809SOL     OW36004   7.746   1.745   1.794  0.2127  0.3218  0.5377
11809SOL    HW136005   7.840   1.729   1.784  0.6237  2.9101 -0.3641
11809SOL    HW236006   7.712   1.750   1.705 -0.7979 -0.4948  0.8492
11810SOL     OW36007   8.236   1.912   6.986 -0.0620  0.4047 -0.2473
11810SOL    HW136008   8.168   1.894   6.922 -0.9956 -1.5331  1.2191
11810SOL    HW236009   8.213   1.998   7.022 -1.2759  0.1102 -0.3013
11811SOL     OW36010   4.365   8.932   1.594  0.5229  0.3621 -0.5323
11811SOL    HW136011   4.316   8.906   1.672  0.4905  1.5283 -0.1488
11811SOL    HW236012   4.352   9.027   1.588 -0.8184  0.1004 -2.8817
11812SOL     OW36013   9.567   0.304   9.919  0.3158 -0.5765 -0.3408
11812SOL    HW136014   9.576   0.331  10.010 -2.7087 -2.7008  0.7877
11812SOL    HW236015   9.652   0.268   9.895  1.7623  1.8012  0.9235
11813SOL     OW36016   5.916   6.029   0.179  0.0377 -0.4173 -0.2941
11813SOL    HW136017   6.009   6.027   0.202 -0.3573 -2.3112  1.4758
11813SOL    HW236018   5.915   6.023   0.084  1.7310  0.9456 -0.4493
11814SOL     OW36019   9.132   6.581   0.536  0.0054  0.1671 -0.0832
11814SOL    HW136020   9.050   6.594   0.490 -0.5124  0.3899  0.8798
11814SOL    HW236021   9.148   6.486   0.530 -0.8020 -0.0152  0.5072
11815SOL     OW36022   4.647   0.939   6.937  0.0248  0.1551  0.3409
11815SOL    HW136023   4.683   0.877   6.873  0.4456  0.2651  0.4667
11815SOL    HW236024   4.630   1.019   6.886 -0.8677 -0.1772  0.1017
11816SOL     OW36025   7.205   6.503   0.273  0.1819 -0.2459  0.2908
11816SOL    HW136026   7.280   6.444   0.284  0.1964 -0.4014 -0.5590
11816SOL    HW236027   7.149   6.458   0.209 -0.3397  0.1537  0.4649
11817SOL     OW36028   2.289   7.313   4.615  0.2246 -0.5881 -0.1525
11817SOL    HW136029   2.259   7.258   4.543  0.2383 -1.1451  0.2612
11817SOL    HW236030   2.301   7.253   4.688  0.2547 -0.0363  0.3065
11818SOL     OW36031   5.633   1.023   7.516  0.0173  0.1843  0.2277
11818SOL    HW136032   5.707   0.963   7.511  0.5258  0.6872  1.5058
11818SOL    HW236033   5.560   0.973   7.477  0.9340 -0.4143 -0.7750
11819SOL     OW36034   5.176   2.113   3.174  0.2071 -0.0306  0.4010
11819SOL    HW136035   5.248   2.092   3.115 -0.4539 -0.6185 -0.2140
11819SOL    HW236036   5.104   2.138   3.116 -1.0626 -2.4684  0.8026
11820SOL     OW36037   8.449   3.687   8.738 -0.3966  0.2368 -0.3983
11820SOL    HW136038   8.464   3.749   8.810  0.3194  0.1976 -0.4984
11820SOL    HW236039   8.533   3.686   8.691 -1.3695  1.5673 -2.2664
11821SOL     OW36040   5.349   4.903   3.876  0.2113 -0.1090  0.1937
11821SOL    HW136041   5.299   4.983   3.861  1.0243  0.1867 -1.0969
11821SOL    HW236042   5.354   4.896   3.971 -1.2432  0.4870  0.3430
11822SOL     OW36043   8.942   9.656   9.889 -0.0657  0.3015  0.3253
11822SOL    HW136044   8.913   9.619   9.806  1.6406 -0.8280  0.1755
11822SOL    HW236045   8.869   9.712   9.917 -1.0681 -0.0312 -1.4394
11823SOL     OW36046   7.581   3.671   1.011  0.1763 -0.0650 -0.0339
11823SOL    HW136047   7.515   3.603   1.000  0.2900  0.0083 -1.3077
11823SOL    HW236048   7.531   3.752   1.022 -0.0739  0.4352 -3.6725
11824SOL     OW36049   6.210   2.261   6.852  0.2350 -0.4935 -0.4154
11824SOL    HW136050   6.205   2.309   6.935 -0.7038  3.4331 -2.5069
11824SOL    HW236051   6.285   2.299   6.807 -0.8337 -0.6157 -2.3943
11825SOL     OW36052   8.055   1.029   5.996 -0.3482 -0.4940 -0.0966
11825SOL    HW136053   8.020   1.074   5.920 -0.8540 -1.9587 -0.7620
11825SOL    HW236054   7.989   1.043   6.064  0.1915  0.9725  0.1693
11826SOL     OW36055   8.581   9.835   4.277 -0.0838  0.3684 -0.3528
11826SOL    HW136056   8.613   9.809   4.191  1.7198  0.6520  0.1925
11826SOL    HW236057   8.500   9.786   4.288  1.5614 -2.6249 -0.6593
11827SOL     OW36058   8.457   7.791   9.097 -0.6008 -0.3992  0.5934
11827SOL    HW136059   8.452   7.697   9.113 -0.3738 -1.0832 -2.5930
11827SOL    HW236060   8.550   7.808   9.081 -0.6234  0.4232  1.2573
11828SOL     OW36061   7.985   4.123   4.059  0.1932  0.1142  0.0772
11828SOL    HW136062   8.004   4.064   4.132  0.1028  0.9543  0.7970
11828SOL    HW236063   8.057   4.186   4.061  0.2564  0.0703 -0.6458
11829SOL     OW36064   0.554   9.719   5.434 -0.9343  0.3661 -0.2079
11829SOL    HW136065   0.602   9.684   5.509  0.3249  0.5346 -0.9137
11829SOL    HW236066   0.473   9.753   5.472 -1.1886 -1.2382  0.8213
11830SOL     OW36067   4.281   9.456   0.134 -0.0981  0.1626 -0.4055
11830SOL    HW136068   4.215   9.507   0.180  0.5674 -0.7972  1.7111
11830SOL    HW236069   4.359   9.511   0.134  0.3528 -0.4485  1.0547
11831SOL     OW36070   9.140   2.380   9.096 -0.4732 -0.0034 -0.4464
11831SOL    HW136071   9.195   2.384   9.175 -0.4745  3.6139 -0.4691
11831SOL    HW236072   9.050   2.383   9.130 -0.5905 -1.7447 -0.5406
11832SOL     OW36073   5.183   1.886   7.092  0.1768  0.9817 -0.0551
11832SOL    HW136074   5.245   1.930   7.150  1.7651  1.2745 -1.8903
11832SOL    HW236075   5.220   1.798   7.078 -0.2322  0.8774 -0.5320
11833SOL     OW36076   7.791   7.799   4.793 -0.0305 -0.6948  0.0739
11833SOL    HW136077   7.789   7.770   4.884 -1.2185 -0.2986  0.1941
11833SOL    HW236078   7.734   7.738   4.747 -1.7761  0.7840  0.1535
11834SOL     OW36079   6.000   3.299   1.667 -0.7627  0.1966 -0.0589
11834SOL    HW136080   6.047   3.219   1.691 -0.2466  0.0017 -1.5738
11834SOL    HW236081   5.926   3.268   1.614 -1.8665  0.5933  1.2012
11835SOL     OW36082   5.522   3.796   0.762 -0.1584  0.1669  0.0222
11835SOL    HW136083   5.445   3.739   0.771  0.5947 -1.2168 -1.6706
11835SOL    HW236084   5.587   3.741   0.718  1.8108  1.3089  1.3623
11836SOL     OW36085   3.446   9.915   2.754 -0.2626  0.4584 -0.0051
11836SOL    HW136086   3.481   9.910   2.665 -0.0647 -0.3758  0.1122
11836SOL    HW236087   3.416  10.006   2.763  1.1866  1.0083 -0.3605
11837SOL     OW36088   4.181   2.901   2.471 -0.2565  0.2567  0.9639
11837SOL    HW136089   4.270   2.866   2.476 -0.7591 -1.4563 -0.8638
11837SOL    HW236090   4.126   2.832   2.507 -1.0877 -0.0532 -0.7721
11838SOL     OW36091   5.498   4.952   2.317 -0.3342  0.5284 -0.6990
11838SOL    HW136092   5.420   4.906   2.285  0.3908 -0.6397 -0.8192
11838SOL    HW236093   5.571   4.896   2.292  0.5894  1.8242 -0.9514
11839SOL     OW36094   5.327   5.708   8.437 -0.3926  0.1364 -0.0779
11839SOL    HW136095   5.378   5.627   8.434  0.8424  0.8584  0.6841
11839SOL    HW236096   5.248   5.688   8.386  0.6431 -1.0002 -1.3295
11840SOL     OW36097   6.820   3.113   0.442 -0.1957  0.2967  0.5441
11840SOL    HW136098   6.751   3.102   0.507 -2.4579 -1.1298 -1.8690
11840SOL    HW236099   6.880   3.041   0.459 -1.6065 -1.0361  0.1937
11841SOL     OW36100   6.906   4.072   8.231 -0.0302  0.0587  0.3981
11841SOL    HW136101   6.943   4.137   8.291  1.5122 -0.1632 -0.2712
11841SOL    HW236102   6.962   3.995   8.241 -0.0171 -0.1345 -0.9892
11842SOL     OW36103   4.508   4.752   5.881 -0.1690  1.0070 -0.0600
11842SOL    HW136104   4.583   4.807   5.904  1.4558 -0.2195 -2.1271
11842SOL    HW236105   4.457   4.805   5.820 -0.7959  1.6664  0.9972
11843SOL     OW36106   7.341   3.971   6.355 -0.2934  0.2752  0.5448
11843SOL    HW136107   7.325   3.915   6.279 -0.5200  1.8201 -0.6091
11843SOL    HW236108   7.276   4.041   6.347  1.7238  2.2331  0.3304
11844SOL     OW36109   0.614   8.369   3.839  0.4368 -0.5440  0.0615
11844SOL    HW136110   0.578   8.438   3.783  1.4010  0.0771  0.1830
11844SOL    HW236111   0.549   8.299   3.835  0.0021 -0.1068 -1.0180
11845SOL     OW36112   7.285   3.198   0.641  0.5596 -0.0400  0.1441
11845SOL    HW136113   7.335   3.140   0.698 -1.3774 -1.0680  0.8656
11845SOL    HW236114   7.194   3.178   0.660 -0.1725  0.1536 -2.7639
11846SOL     OW36115   4.333   1.469   6.160 -0.3440  0.5278  0.0815
11846SOL    HW136116   4.323   1.456   6.065  0.6883 -1.3116  0.1850
11846SOL    HW236117   4.404   1.410   6.185  0.0978  1.7503  1.8514
11847SOL     OW36118   2.508   4.627   0.527  0.1071  0.4508  0.0392
11847SOL    HW136119   2.463   4.622   0.442 -2.5553  0.7642  1.3336
11847SOL    HW236120   2.466   4.701   0.572  2.4679  1.2164  1.1113
11848SOL     OW36121   7.428   9.826   6.769 -0.6305  0.0156  0.0910
11848SOL    HW136122   7.509   9.782   6.744 -1.3282 -1.3455  0.1057
11848SOL    HW236123   7.360   9.781   6.719 -1.8631 -1.5655  2.9339
11849SOL     OW36124   6.327   4.515   7.422  0.1536  0.8098  0.6912
11849SOL    HW136125   6.311   4.457   7.347 -1.4656  0.2674  1.4098
11849SOL    HW236126   6.416   4.547   7.409  1.2318 -2.0076  0.3419
11850SOL     OW36127   8.531   7.452   5.534  0.2472  0.1987  0.8637
11850SOL    HW136128   8.574   7.369   5.555  0.4682  0.0374 -0.1391
11850SOL    HW236129   8.546   7.463   5.440 -1.7114  0.2511  0.5163
11851SOL     OW36130   5.042   9.042   8.503  0.4722 -0.5389 -0.2316
11851SOL    HW136131   5.012   8.975   8.564 -0.3003  0.6272  0.7070
11851SOL    HW236132   4.962   9.079   8.466  0.9123 -0.6731 -1.3644
11852SOL     OW36133   1.565   3.526   3.205 -0.6535 -0.0533 -0.0828
11852SOL    HW136134   1.652   3.516   3.243  0.7036  3.9994 -1.6333
11852SOL    HW236135   1.515   3.574   3.271 -0.8671 -0.0789 -0.2239
11853SOL     OW36136   7.424   9.829   7.464 -0.3610 -0.6587 -0.3219
11853SOL    HW136137   7.465   9.835   7.378  1.0046  0.5169  0.3484
11853SOL    HW236138   7.394   9.918   7.482 -1.1885 -1.0258  0.1650
11854SOL     OW36139   2.952   9.794   1.422 -0.0584 -0.6724  0.6540
11854SOL    HW136140   2.920   9.869   1.373 -1.3184 -1.9818 -0.6173
11854SOL    HW236141   3.044   9.815   1.441  0.2437  0.2544 -1.5388
11855SOL     OW36142   0.729   0.940   9.233 -0.7908 -0.1565 -0.5476
11855SOL    HW136143   0.675   0.884   9.288  0.8357 -0.7017  0.5728
11855SOL    HW236144   0.802   0.884   9.206 -0.1434  0.8814 -1.0076
11856SOL     OW36145   5.046   6.501   6.407  0.3775  0.2498 -0.2576
11856SOL    HW136146   4.957   6.535   6.405  0.0063 -0.7179 -1.0387
11856SOL    HW236147   5.042   6.426   6.466  0.1131 -1.1871 -2.0162
11857SOL     OW36148   3.939   7.477   6.897  0.2304  0.1906  0.1321
11857SOL    HW136149   3.994   7.553   6.877  1.8513 -0.0105  3.1889
11857SOL    HW236150   3.850   7.508   6.881  0.9426  2.2219 -0.2382
11858SOL     OW36151   4.737   7.855   4.744 -0.3267 -0.2514 -0.5204
11858SOL    HW136152   4.711   7.764   4.726 -0.9883 -0.0167 -0.7815
11858SOL    HW236153   4.813   7.847   4.801 -1.5948 -0.9702  1.1848
11859SOL     OW36154   7.871   8.477   1.475 -0.4106  0.5702  0.3047
11859SOL    HW136155   7.812   8.552   1.478 -0.4556  0.5078  1.9466
11859SOL    HW236156   7.846   8.423   1.550  1.0215  0.0016  0.4154
11860SOL     OW36157   7.278   7.830   1.968 -0.3537  0.3151 -0.4132
11860SOL    HW136158   7.287   7.825   1.873  2.0176  1.5058 -0.3289
11860SOL    HW236159   7.368   7.826   2.001 -1.0472  0.9154  1.7373
11861SOL     OW36160   1.922   7.719   5.378 -0.1934 -0.6572 -0.4910
11861SOL    HW136161   2.005   7.725   5.427 -1.0888 -1.5040  1.2376
11861SOL    HW236162   1.897   7.627   5.385 -0.9524 -0.5524 -1.5814
11862SOL     OW36163   5.889   0.318   6.832  0.5371 -0.1721 -0.3648
11862SOL    HW136164   5.976   0.356   6.820  0.9425 -0.4368  1.4280
11862SOL    HW236165   5.833   0.393   6.850  0.8653 -0.1649  0.7326
11863SOL     OW36166   9.699   9.400   0.076 -0.1395 -0.0342 -0.5235
11863SOL    HW136167   9.622   9.356   0.039 -0.9192  0.2780  0.6811
11863SOL    HW236168   9.724   9.464   0.010  0.0625 -1.2132 -1.6221
11864SOL     OW36169   3.987   7.147   3.635  0.5681 -0.0325  0.3005
11864SOL    HW136170   4.058   7.091   3.604  0.0383 -0.9775  0.7487
11864SOL    HW236171   3.953   7.103   3.713  0.0195  0.8280  0.5675
11865SOL     OW36172   3.014   7.464   7.700 -1.0498 -0.4004  0.6921
11865SOL    HW136173   3.103   7.434   7.716 -1.0772 -0.1091  1.4290
11865SOL    HW236174   2.973   7.393   7.650 -0.6856 -0.9533  1.1696
11866SOL     OW36175   4.186   3.365   8.706  0.4775  0.2504  0.1849
11866SOL    HW136176   4.132   3.440   8.731  0.7650  0.4079  0.3353
11866SOL    HW236177   4.269   3.403   8.679  0.7013 -0.0308  0.4754
11867SOL     OW36178   2.869   0.458   6.376 -0.3679  0.2577 -0.5247
11867SOL    HW136179   2.864   0.380   6.430 -2.7085  1.1282  0.6489
11867SOL    HW236180   2.959   0.459   6.344  0.4509 -1.5568  1.4564
11868SOL     OW36181   1.623   0.548   2.102 -0.5064  0.6636 -0.2186
11868SOL    HW136182   1.648   0.640   2.109 -1.3391  1.0785 -2.0759
11868SOL    HW236183   1.570   0.531   2.180  0.3445  1.5009  0.5686
11869SOL     OW36184   5.381   4.430   8.472 -0.4018  0.0933  0.2451
11869SOL    HW136185   5.383   4.335   8.459 -0.8314  0.3421 -2.0087
11869SOL    HW236186   5.338   4.464   8.394  3.0550  2.4245 -0.8940
11870SOL     OW36187   2.824   2.526   7.614  0.3046 -0.0827  0.1505
11870SOL    HW136188   2.894   2.539   7.551  0.3806  2.0757  0.5784
11870SOL    HW236189   2.760   2.471   7.569  0.8666  0.4939 -1.4097
11871SOL     OW36190   2.774   8.033   1.789 -0.9453  0.2193  0.5539
11871SOL    HW136191   2.754   7.979   1.712 -0.5389  0.0836  0.5418
11871SOL    HW236192   2.767   8.123   1.757 -0.5724  0.1626  0.2962
11872SOL     OW36193   0.106   1.247   6.547  0.0961  0.0548  0.0643
11872SOL    HW136194   0.124   1.155   6.567  0.3755  0.1750  0.3623
11872SOL    HW236195   0.027   1.268   6.597  1.0554  0.4894  1.4486
11873SOL     OW36196   8.130   6.886   9.153  0.0599  0.4962  0.3297
11873SOL    HW136197   8.216   6.850   9.130  1.0192  2.2677  1.0092
11873SOL    HW236198   8.069   6.839   9.096  1.4409 -0.9053 -0.0687
11874SOL     OW36199   2.759   9.572   9.467 -0.5247 -0.0044  0.4866
11874SOL    HW136200   2.678   9.587   9.418  1.1528  1.3838 -2.0702
11874SOL    HW236201   2.828   9.605   9.410  1.7117  1.0455  3.5284
11875SOL     OW36202   3.948   5.176   9.652 -0.3589  0.8882  0.1451
11875SOL    HW136203   4.028   5.124   9.640 -0.0139  0.9849  1.7296
11875SOL    HW236204   3.978   5.254   9.699 -1.2799  1.2821  0.0944
11876SOL     OW36205   0.352   5.934   3.211 -0.4478  0.2053  0.4086
11876SOL    HW136206   0.300   5.855   3.196 -1.6066  0.7674  1.2557
11876SOL    HW236207   0.361   5.938   3.306  0.3326  0.6348  0.3166
11877SOL     OW36208   6.114   0.479   3.384  0.1781  0.4702  0.1726
11877SOL    HW136209   6.036   0.503   3.435  0.2571 -1.1875  1.1388
11877SOL    HW236210   6.079   0.443   3.303  0.0149  1.6279 -0.2965
11878SOL     OW36211   7.659   0.265   7.003  0.1610 -0.3505  0.3132
11878SOL    HW136212   7.620   0.339   6.955  0.0203 -1.0883 -0.7497
11878SOL    HW236213   7.595   0.195   6.996 -0.0713 -0.3527  2.0312
11879SOL     OW36214   4.682   2.840   4.943  0.0828  0.2010  0.2428
11879SOL    HW136215   4.623   2.805   5.010  0.7664 -0.2669  0.6151
11879SOL    HW236216   4.693   2.932   4.965 -2.7267  1.0926 -1.4501
11880SOL     OW36217   5.671   7.806   7.383  0.3685  0.1304  0.6156
11880SOL    HW136218   5.606   7.806   7.453  1.6618 -1.7145  1.9075
11880SOL    HW236219   5.662   7.719   7.342  0.9304  0.4652 -0.2446
11881SOL     OW36220   1.134   5.909   7.343 -0.1528 -0.5093 -0.1164
11881SOL    HW136221   1.085   5.866   7.273  1.2514 -1.5438 -0.5153
11881SOL    HW236222   1.101   5.869   7.424 -0.2455 -0.9167 -0.3511
11882SOL     OW36223   4.276   6.210   6.110  0.5976  0.3087  0.1407
11882SOL    HW136224   4.285   6.152   6.034  1.2258  0.5650  0.0169
11882SOL    HW236225   4.354   6.193   6.163  0.9941  1.3328 -0.1016
11883SOL     OW36226   6.465   4.855   0.311 -0.2912  0.3545 -0.0187
11883SOL    HW136227   6.515   4.822   0.237  1.6622 -0.1240  1.4279
11883SOL    HW236228   6.420   4.778   0.346 -2.0357  0.7609 -1.2416
11884SOL     OW36229   4.626   8.576   3.990  0.2077  0.7677 -0.0386
11884SOL    HW136230   4.636   8.670   4.005  1.2052  0.5781  0.5308
11884SOL    HW236231   4.684   8.557   3.916  0.1750  0.5574 -0.0101
11885SOL     OW36232   5.627   8.484   2.159 -0.1640 -0.3100  0.2774
11885SOL    HW136233   5.567   8.412   2.141 -0.2253 -0.1873 -0.0170
11885SOL    HW236234   5.693   8.479   2.089  0.8896 -1.2033  1.2875
11886SOL     OW36235   4.122   4.681   0.356  0.0864 -0.0790  0.3751
11886SOL    HW136236   4.139   4.657   0.447 -3.0607  0.1727  1.1806
11886SOL    HW236237   4.029   4.661   0.343 -0.2147  2.2554 -1.9975
11887SOL     OW36238   6.698   6.803   0.118 -0.4680 -0.4805  0.2706
11887SOL    HW136239   6.778   6.753   0.100 -1.1263 -1.3437 -0.3608
11887SOL    HW236240   6.653   6.752   0.186 -0.2568  0.2613  0.9802
11888SOL     OW36241   4.345   2.236   5.397  0.1424 -0.1977  0.3272
11888SOL    HW136242   4.251   2.219   5.399 -0.0869  0.7621  3.9517
11888SOL    HW236243   4.385   2.154   5.424  0.3846 -0.5222 -0.9450
11889SOL     OW36244   6.212   6.299   3.383 -0.2857 -0.1013  0.1919
11889SOL    HW136245   6.257   6.377   3.352  3.3919 -2.1031 -0.0593
11889SOL    HW236246   6.175   6.325   3.467  2.3513  1.4896  0.9688
11890SOL     OW36247   5.625   6.550   4.183  0.0344  0.1974 -0.2686
11890SOL    HW136248   5.704   6.504   4.154  0.2514 -0.2140  0.9199
11890SOL    HW236249   5.601   6.606   4.109  3.3457  2.8743  0.3998
11891SOL     OW36250   2.849   9.828   7.916 -0.0812 -0.0433  0.2584
11891SOL    HW136251   2.780   9.806   7.852 -1.1543 -0.0333  1.3768
11891SOL    HW236252   2.816   9.907   7.960  1.1749  0.6098  0.0651
11892SOL     OW36253   9.723   9.055   2.929 -0.4503 -0.3665 -0.0808
11892SOL    HW136254   9.705   9.144   2.957 -0.8209 -1.0294  1.9744
11892SOL    HW236255   9.643   9.006   2.950  0.6618 -1.6834  1.3304
11893SOL     OW36256   7.506   5.491   1.802  0.1353 -0.1074 -0.3803
11893SOL    HW136257   7.559   5.568   1.780  1.9474 -0.8683  1.0737
11893SOL    HW236258   7.496   5.495   1.897 -0.3203 -1.3067 -0.3582
11894SOL     OW36259   4.726   6.956   1.876 -0.0201  0.7407  0.1358
11894SOL    HW136260   4.637   6.983   1.899 -0.1852  1.6456 -1.4753
11894SOL    HW236261   4.779   6.983   1.951 -1.1157 -0.0461  1.2320
11895SOL     OW36262   1.980   7.251   1.773 -0.7772 -0.3995  0.0471
11895SOL    HW136263   1.909   7.274   1.713  0.2403 -0.2050 -1.1402
11895SOL    HW236264   2.040   7.326   1.768  0.6847 -1.5733 -0.8735
11896SOL     OW36265   7.489   2.122   9.343 -0.4367 -0.2066 -0.7668
11896SOL    HW136266   7.510   2.203   9.297 -1.2547 -0.5204 -1.7011
11896SOL    HW236267   7.447   2.151   9.424  0.7869  0.3346 -0.2981
11897SOL     OW36268   1.912   0.176   5.329 -0.1570  0.1530  0.1420
11897SOL    HW136269   2.002   0.163   5.358 -0.4337  1.1389  1.5037
11897SOL    HW236270   1.859   0.167   5.408 -1.4740 -2.0688 -0.8707
11898SOL     OW36271   0.455   2.866   9.445  0.7727  0.1130 -0.0716
11898SOL    HW136272   0.396   2.919   9.391 -0.1452 -1.9808 -1.2293
11898SOL    HW236273   0.527   2.925   9.467  0.9707  1.2346 -3.2128
11899SOL     OW36274   8.606   3.582   7.757 -0.2987 -0.2097 -0.0110
11899SOL    HW136275   8.685   3.603   7.707  0.1674 -1.5196  0.1307
11899SOL    HW236276   8.535   3.624   7.709  0.3154 -0.2342 -0.9633
11900SOL     OW36277   7.207   1.273   2.172  0.5142  0.2756 -0.0637
11900SOL    HW136278   7.288   1.227   2.149 -0.1631 -0.4957 -0.9695
11900SOL    HW236279   7.198   1.261   2.266  0.2115 -1.7110 -0.3026
11901SOL     OW36280   9.616   2.442   7.041  0.3191  0.1872  0.0209
11901SOL    HW136281   9.608   2.480   7.129  1.1660 -1.0310  0.6538
11901SOL    HW236282   9.610   2.347   7.055 -0.5444  0.0039 -1.3700
11902SOL     OW36283   7.934   3.908   4.574 -0.5164  0.0189  0.0649
11902SOL    HW136284   7.893   3.900   4.488  1.4461 -0.1959 -0.8954
11902SOL    HW236285   8.028   3.906   4.556 -0.0304 -1.6348  2.3301
11903SOL     OW36286   6.923   2.106   8.133 -0.0632  0.3875 -0.1960
11903SOL    HW136287   6.973   2.046   8.077 -0.9569 -0.0558 -0.5348
11903SOL    HW236288   6.833   2.100   8.100 -0.4895  0.5834  0.8976
11904SOL     OW36289   8.237   1.680   0.542 -0.3686 -1.0123 -0.0392
11904SOL    HW136290   8.303   1.670   0.473  0.4381  0.7780  0.4270
11904SOL    HW236291   8.172   1.741   0.506  0.7796  1.0644  1.1993
11905SOL     OW36292   7.328   9.868   6.037 -0.6455 -0.0129 -0.3027
11905SOL    HW136293   7.315   9.949   6.086  0.2800 -0.7328  1.2236
11905SOL    HW236294   7.419   9.873   6.007 -0.7904 -0.1846 -0.7657
11906SOL     OW36295   7.021   2.032   2.989  0.0242 -0.8275 -0.5198
11906SOL    HW136296   7.040   1.951   3.036  0.2472 -2.3186 -3.0165
11906SOL    HW236297   7.002   2.004   2.899 -0.1100  1.8813 -1.4250
11907SOL     OW36298   1.417   9.535   4.041 -0.3280 -0.6723 -0.1451
11907SOL    HW136299   1.452   9.624   4.038 -0.9681 -0.4004  0.0819
11907SOL    HW236300   1.417   9.512   4.134  2.9444 -2.2227 -0.4067
11908SOL     OW36301   0.636   7.260   8.615 -0.4828  0.3944 -0.0731
11908SOL    HW136302   0.727   7.232   8.603 -1.0883 -1.7162 -0.2079
11908SOL    HW236303   0.585   7.194   8.568 -2.0099  3.2321 -2.6868
11909SOL     OW36304   6.546   0.075   3.744  0.3284 -0.1515  0.3089
11909SOL    HW136305   6.466   0.022   3.743 -0.2169  0.6596 -1.2405
11909SOL    HW236306   6.579   0.070   3.655  0.8958  1.1718  0.4222
11910SOL     OW36307   2.905   7.971   4.974  0.4575  0.3932  0.2759
11910SOL    HW136308   2.811   7.986   4.984  0.6061  1.0848  0.7805
11910SOL    HW236309   2.922   7.989   4.882 -0.0102 -0.3873  0.0297
11911SOL     OW36310   4.706   0.228   7.017  0.4009 -0.1952  0.0771
11911SOL    HW136311   4.652   0.207   7.093 -0.5240  0.1652 -0.4738
11911SOL    HW236312   4.730   0.320   7.028  0.3079 -0.1564 -0.0393
11912SOL     OW36313   5.450   1.079   1.211  0.5259  0.2303  0.2080
11912SOL    HW136314   5.410   1.006   1.257 -1.0489  0.7473 -0.2849
11912SOL    HW236315   5.380   1.144   1.204  1.4777  1.1994 -0.6306
11913SOL     OW36316   6.050   2.358   9.293 -0.5601  0.4797 -0.4242
11913SOL    HW136317   6.055   2.389   9.383 -0.0931  2.4282 -1.0775
11913SOL    HW236318   6.131   2.309   9.279 -0.1975  0.9668 -0.0540
11914SOL     OW36319   4.282   0.277   2.099  0.4274 -0.1417  0.2128
11914SOL    HW136320   4.343   0.290   2.172  0.5045  1.3840 -0.0906
11914SOL    HW236321   4.274   0.363   2.059 -0.8418 -0.6201 -0.6269
11915SOL     OW36322   9.735   5.396   4.363  0.2805  0.1881  0.6748
11915SOL    HW136323   9.797   5.446   4.416  0.5914  0.7530 -0.1830
11915SOL    HW236324   9.649   5.428   4.389  0.3037 -0.8193  2.0967
11916SOL     OW36325   2.594   6.900   1.643 -0.3405 -0.0952 -0.3951
11916SOL    HW136326   2.598   6.805   1.634  0.6050  0.0273 -1.5049
11916SOL    HW236327   2.606   6.933   1.554 -1.9987  1.0595 -0.2349
11917SOL     OW36328   0.285   3.046   1.161 -0.1678 -0.3193  0.0153
11917SOL    HW136329   0.327   3.070   1.243 -0.9507 -1.6923  0.8618
11917SOL    HW236330   0.200   3.091   1.163  0.7026  1.4739 -1.1296
11918SOL     OW36331   0.221   4.936   2.441  0.3492 -0.6608 -0.0539
11918SOL    HW136332   0.163   4.915   2.515  0.7461  1.2126  0.8239
11918SOL    HW236333   0.163   4.935   2.365 -0.4822 -0.5528  0.5640
11919SOL     OW36334   9.599   3.432   6.571  1.0959  0.1759 -0.0003
11919SOL    HW136335   9.551   3.424   6.653  1.7887  0.6065  0.4563
11919SOL    HW236336   9.532   3.459   6.507  0.4936 -0.4828  0.3446
11920SOL     OW36337   2.698   3.557   3.045  0.0506 -0.1483  0.1552
11920SOL    HW136338   2.638   3.551   2.970 -1.0185 -0.6628  1.0189
11920SOL    HW236339   2.726   3.466   3.059 -0.2789 -0.1555  0.7821
11921SOL     OW36340   8.764   9.920   3.649 -0.6812 -0.0353  0.5653
11921SOL    HW136341   8.705   9.974   3.597 -1.0587  1.0464  2.0244
11921SOL    HW236342   8.780   9.972   3.728  1.3857 -0.7781  0.6797
11922SOL     OW36343   2.191   0.171   5.529  0.3381 -0.0481 -0.6193
11922SOL    HW136344   2.150   0.251   5.495  0.4096 -0.8190 -2.6288
11922SOL    HW236345   2.282   0.196   5.545 -0.1333  0.8353  0.9102
11923SOL     OW36346   7.938   4.477   2.992  0.0153 -0.5385  0.1383
11923SOL    HW136347   8.006   4.538   2.966  0.0780 -0.6008  0.1524
11923SOL    HW236348   7.966   4.446   3.078 -0.1188 -0.4351  0.2187
11924SOL     OW36349   6.922   2.248   2.476  0.8427  0.0181 -0.2136
11924SOL    HW136350   6.947   2.162   2.443 -0.6593 -0.2792 -0.6599
11924SOL    HW236351   6.866   2.230   2.551 -1.0343  0.5024 -1.4233
11925SOL     OW36352   0.264   0.398   4.555 -0.4661  0.6138 -0.0802
11925SOL    HW136353   0.179   0.358   4.570 -0.4531  1.0511  1.3632
11925SOL    HW236354   0.295   0.422   4.643  0.7651  1.2250 -0.6501
11926SOL     OW36355   4.087   4.203   6.020 -0.4770 -0.4542 -0.4710
11926SOL    HW136356   4.041   4.131   6.062  2.6079 -1.0200  2.3686
11926SOL    HW236357   4.079   4.276   6.081 -0.3771  0.4698 -1.5214
11927SOL     OW36358   5.982   4.520   5.639  0.4716  0.0133 -0.5303
11927SOL    HW136359   6.023   4.458   5.700 -0.6585 -0.3388 -0.0915
11927SOL    HW236360   5.959   4.595   5.694 -0.7542 -0.3970 -0.4518
11928SOL     OW36361   2.739   5.891   7.092 -0.4653  0.0137  0.4345
11928SOL    HW136362   2.720   5.828   7.023 -1.2765  0.2097  0.4643
11928SOL    HW236363   2.797   5.955   7.050 -0.6434 -0.0754  0.0458
11929SOL     OW36364   4.555   7.897   1.506 -0.0885  0.7312 -0.3840
11929SOL    HW136365   4.632   7.841   1.510 -0.8991 -0.3757  0.2573
11929SOL    HW236366   4.497   7.854   1.443 -1.7613 -0.5966  1.8909
11930SOL     OW36367   0.065   5.808   7.758  0.2146 -0.6995  0.0247
11930SOL    HW136368   0.030   5.822   7.669  1.4169  1.9267 -0.1233
11930SOL    HW236369   0.120   5.730   7.750 -0.4326 -1.0508 -1.3053
11931SOL     OW36370   7.152   1.913   6.828 -0.5780  0.1102 -0.1706
11931SOL    HW136371   7.197   1.879   6.750  2.9666  4.2726 -0.3685
11931SOL    HW236372   7.206   1.883   6.901 -1.4283 -0.3053  0.2901
11932SOL     OW36373   6.002   7.559   6.294  0.3776 -0.0668 -0.1359
11932SOL    HW136374   6.069   7.608   6.247  0.3525 -0.2715 -0.3883
11932SOL    HW236375   5.926   7.618   6.296 -0.0755 -0.5499 -1.5450
11933SOL     OW36376   3.204   4.287   6.518  0.1355 -0.3675  0.2258
11933SOL    HW136377   3.252   4.253   6.443 -0.3573  1.5228 -0.9951
11933SOL    HW236378   3.189   4.210   6.573 -0.4048 -2.0106 -2.0820
11934SOL     OW36379   8.687   1.016   9.008 -0.7809  0.6899  0.1213
11934SOL    HW136380   8.617   0.990   8.948 -0.6936  2.4097 -0.7935
11934SOL    HW236381   8.647   1.011   9.095 -2.4188  2.6052 -0.4390
11935SOL     OW36382   8.295   9.681   5.484  0.5380  0.1550  0.4445
11935SOL    HW136383   8.300   9.720   5.397  1.9806  2.2049  1.3719
11935SOL    HW236384   8.343   9.598   5.476  1.9677  1.0300 -0.3721
11936SOL     OW36385   1.628   7.376   3.207 -0.1066 -0.1133 -0.4005
11936SOL    HW136386   1.694   7.367   3.275 -0.0945  0.8421 -0.2631
11936SOL    HW236387   1.636   7.467   3.179 -1.9275  0.2873  0.2265
11937SOL     OW36388   6.570   6.862   1.831  0.2848  0.5960 -0.6647
11937SOL    HW136389   6.482   6.864   1.792 -0.9363  0.2020  1.8532
11937SOL    HW236390   6.597   6.770   1.825 -0.5217  0.2551  0.6310
11938SOL     OW36391   4.812   3.655   3.214 -0.3276  0.7775 -0.3460
11938SOL    HW136392   4.840   3.595   3.284 -0.2270  2.1769  0.8593
11938SOL    HW236393   4.717   3.654   3.219 -0.4870 -1.2136 -2.0698
11939SOL     OW36394   5.390   1.279   6.089 -0.0472  0.2275  0.8459
11939SOL    HW136395   5.409   1.326   6.170 -0.8182  1.4600  0.3360
11939SOL    HW236396   5.472   1.283   6.039 -0.2890  1.6778  0.5153
11940SOL     OW36397   0.642   6.156   9.239 -0.5162  0.2183  0.6070
11940SOL    HW136398   0.571   6.113   9.286  0.0701 -1.8504 -0.3151
11940SOL    HW236399   0.599   6.209   9.172 -1.1960 -0.4712  0.4950
11941SOL     OW36400   7.849   9.688   8.043  0.3525  0.1174  0.1853
11941SOL    HW136401   7.797   9.609   8.025 -0.3196  0.6751 -0.3820
11941SOL    HW236402   7.799   9.759   8.003  0.4372  0.9773  1.5463
11942SOL     OW36403   6.743   4.451   5.013  0.3088  0.0225  0.3507
11942SOL    HW136404   6.647   4.448   5.014  0.2900 -0.6548 -0.9253
11942SOL    HW236405   6.764   4.522   4.953  0.5787 -0.5313 -0.2300
11943SOL     OW36406   2.040   8.314   6.823 -0.4561 -0.1842  0.0405
11943SOL    HW136407   1.960   8.332   6.871 -0.3857 -0.3068  0.2026
11943SOL    HW236408   2.071   8.231   6.858 -0.2334 -0.1137  0.0119
11944SOL     OW36409   1.955   1.326   7.103  0.6084 -0.0596 -0.6086
11944SOL    HW136410   1.973   1.413   7.068  0.4406  0.5504  0.7908
11944SOL    HW236411   1.860   1.318   7.101  0.5186  0.4633  0.8062
11945SOL     OW36412   1.626   3.324   9.232  0.0128  0.1463  0.1455
11945SOL    HW136413   1.608   3.410   9.270 -1.3918 -0.1712  0.2511
11945SOL    HW236414   1.562   3.315   9.161  0.1459 -0.7941  0.1340
11946SOL     OW36415   9.296   9.668   5.669 -0.1823  0.2277  0.6397
11946SOL    HW136416   9.294   9.620   5.752  0.3815  0.7000  0.9378
11946SOL    HW236417   9.297   9.760   5.695 -0.4429  0.3844  0.0975
11947SOL     OW36418   0.488   5.302   8.468 -0.0894 -0.5153 -0.5752
11947SOL    HW136419   0.572   5.307   8.514  0.1110  0.6988 -1.0624
11947SOL    HW236420   0.464   5.393   8.450 -1.0798 -0.8880 -1.2314
11948SOL     OW36421   8.967   0.366   3.278  0.1870 -0.4045 -0.2028
11948SOL    HW136422   8.889   0.384   3.330  0.0062 -0.1769 -0.5459
11948SOL    HW236423   9.005   0.287   3.316  0.7536  0.4480  1.0686
11949SOL     OW36424   2.379   5.368   2.271  0.4206  0.0827  0.5317
11949SOL    HW136425   2.324   5.445   2.255 -0.4825 -0.7007 -0.2717
11949SOL    HW236426   2.324   5.311   2.325  1.0961  0.0056  1.1414
11950SOL     OW36427   1.984   0.807   1.270  0.6393 -0.2580 -0.2759
11950SOL    HW136428   2.041   0.831   1.197  0.2424  0.0368 -0.4903
11950SOL    HW236429   1.950   0.891   1.303 -0.3169 -0.4832 -0.6725
11951SOL     OW36430   1.468   7.315   4.949  0.2688  0.6868  0.3439
11951SOL    HW136431   1.415   7.354   5.019 -3.4010 -2.8242 -0.0265
11951SOL    HW236432   1.519   7.247   4.994 -0.6459 -0.2778 -0.0007
11952SOL     OW36433   6.720   3.119   4.060 -0.1286 -0.4889  0.2697
11952SOL    HW136434   6.733   3.041   4.114 -1.0361 -1.0757 -0.3427
11952SOL    HW236435   6.796   3.174   4.079  0.1343 -1.1850  1.2797
11953SOL     OW36436   0.494   0.416   2.940 -0.0439 -0.4103  0.3237
11953SOL    HW136437   0.542   0.452   3.014  1.6294 -1.5556 -0.1474
11953SOL    HW236438   0.538   0.451   2.863 -1.1490 -0.0135 -0.1463
11954SOL     OW36439   4.525   4.119   3.747 -0.2396 -0.0645  0.4154
11954SOL    HW136440   4.449   4.092   3.697  0.2321  1.6835 -1.3667
11954SOL    HW236441   4.526   4.060   3.822 -3.9259  0.5187  1.1024
11955SOL     OW36442   5.659   5.406   5.035  0.0772  0.5783  0.4113
11955SOL    HW136443   5.614   5.372   5.113  0.5717 -0.3757  0.2965
11955SOL    HW236444   5.588   5.422   4.972 -0.4577  2.3970  1.3863
11956SOL     OW36445   6.894   5.789   5.938 -0.4668 -0.2378  0.3430
11956SOL    HW136446   6.943   5.872   5.940 -0.1720 -0.3948 -0.1263
11956SOL    HW236447   6.878   5.774   5.845 -2.9258  0.6825  0.5371
11957SOL     OW36448   0.398   8.988   7.598 -0.1762  0.0475  0.4183
11957SOL    HW136449   0.349   9.069   7.583  0.4004  0.1366 -1.0839
11957SOL    HW236450   0.405   8.947   7.512  0.0861 -1.3001  1.0519
11958SOL     OW36451   4.752   9.830   9.289 -0.1774 -0.1764 -0.1554
11958SOL    HW136452   4.794   9.792   9.212 -0.5367  0.3066 -0.5932
11958SOL    HW236453   4.660   9.839   9.265 -0.3782 -0.4056  0.4830
11959SOL     OW36454   4.794   7.751   6.699 -0.0479 -0.2605 -0.1782
11959SOL    HW136455   4.721   7.704   6.739 -0.3680  2.0788  2.2650
11959SOL    HW236456   4.817   7.698   6.623 -4.5817 -0.8803 -1.4196
11960SOL     OW36457   9.020   9.455   4.785 -0.2379 -0.4753  0.0431
11960SOL    HW136458   9.030   9.374   4.835  0.5451 -1.5011 -1.6784
11960SOL    HW236459   9.085   9.448   4.715 -0.6042  1.3535 -0.5338
11961SOL     OW36460   0.842   5.480   3.977 -0.2111  0.3891 -0.0634
11961SOL    HW136461   0.889   5.478   3.893 -0.2709 -2.3669 -0.1324
11961SOL    HW236462   0.902   5.438   4.039 -2.1624 -2.6669 -0.0192
11962SOL     OW36463   5.975   2.287   0.777  0.2177 -0.2726 -0.1272
11962SOL    HW136464   5.898   2.241   0.810 -0.7425  0.6109 -1.0829
11962SOL    HW236465   6.037   2.284   0.850 -0.4669 -1.5369  0.4408
11963SOL     OW36466   3.016   9.899   2.883 -0.6851 -0.4752  0.2385
11963SOL    HW136467   3.013   9.963   2.812 -0.9399 -0.6829  0.0604
11963SOL    HW236468   3.051   9.820   2.843  0.5495 -0.1722  0.6776
11964SOL     OW36469   0.758   1.374   3.356  0.5371  0.4410  0.2002
11964SOL    HW136470   0.790   1.298   3.308  1.8831  1.1293 -0.0198
11964SOL    HW236471   0.710   1.337   3.430  2.9612 -0.6729  1.3200
11965SOL     OW36472   0.073   7.535   2.771 -0.5459 -0.2076 -0.4056
11965SOL    HW136473   0.161   7.519   2.738 -1.0429 -0.9732 -1.4357
11965SOL    HW236474   0.048   7.453   2.812 -0.3653  0.3765  0.9107
11966SOL     OW36475   6.578   1.532   2.131 -0.4475  0.2060 -0.4198
11966SOL    HW136476   6.559   1.472   2.059  0.1138 -0.2554 -0.1875
11966SOL    HW236477   6.510   1.513   2.196 -1.5528  1.2945 -1.2003
11967SOL     OW36478   4.926   9.282   6.224  0.2964 -0.3258  0.2396
11967SOL    HW136479   4.960   9.240   6.303 -1.1102 -0.9386  0.5431
11967SOL    HW236480   4.994   9.267   6.158  0.8998 -0.9559  0.9829
11968SOL     OW36481   5.855   6.026   6.898  0.4845  0.6225 -0.4331
11968SOL    HW136482   5.858   6.057   6.989  0.9987 -0.2395 -0.1535
11968SOL    HW236483   5.819   5.938   6.904 -0.8507  1.0709 -1.2178
11969SOL     OW36484   0.426   9.723   4.981 -0.3779  0.5497 -0.2997
11969SOL    HW136485   0.416   9.703   4.887 -0.0235  3.0257 -0.9261
11969SOL    HW236486   0.338   9.709   5.017 -0.6357  0.0236 -1.0807
11970SOL     OW36487   3.544   2.121   7.706 -0.2304  0.3232 -0.1632
11970SOL    HW136488   3.536   2.202   7.656 -1.6147  0.8003  0.7698
11970SOL    HW236489   3.496   2.138   7.787  1.8163 -0.4988  1.2806
11971SOL     OW36490   2.193   6.053   8.264 -0.2853  0.2073  0.5464
11971SOL    HW136491   2.119   6.020   8.213 -0.1969  1.6715 -0.5764
11971SOL    HW236492   2.269   6.008   8.227 -0.3833  0.2296  0.3152
11972SOL     OW36493   0.718   1.600   7.089  0.5553  0.2110  0.1937
11972SOL    HW136494   0.808   1.593   7.119  0.5981 -0.6103 -0.0976
11972SOL    HW236495   0.724   1.654   7.010  1.0876 -1.4402 -0.9544
11973SOL     OW36496   2.181   8.657   7.944 -0.0701 -0.1902  0.9002
11973SOL    HW136497   2.266   8.684   7.979 -0.0660 -0.3026  0.9788
11973SOL    HW236498   2.180   8.692   7.855  0.3443 -0.7634  0.6645
11974SOL     OW36499   9.290   6.363   5.348 -0.2549  0.7688 -0.2028
11974SOL    HW136500   9.276   6.384   5.256  0.9020  0.8239 -0.3836
11974SOL    HW236501   9.376   6.321   5.351 -1.4144 -1.7579  0.5061
11975SOL     OW36502   2.248   5.199   6.914 -0.5368 -0.2058  0.1085
11975SOL    HW136503   2.223   5.266   6.977  0.0953 -0.1569  0.3052
11975SOL    HW236504   2.225   5.237   6.829 -2.2521 -0.6401  0.3393
11976SOL     OW36505   6.555   1.826   4.219 -0.1195  0.1475  0.3723
11976SOL    HW136506   6.616   1.754   4.202 -0.1325  0.1517  0.3076
11976SOL    HW236507   6.594   1.874   4.292  0.4553  0.7157 -0.2938
11977SOL     OW36508   8.582   3.635   7.370 -0.0676 -0.1915  0.0060
11977SOL    HW136509   8.613   3.632   7.460 -2.1282  1.8968  0.8990
11977SOL    HW236510   8.656   3.669   7.320  0.2920  1.2104  1.4085
11978SOL     OW36511   1.697   1.882   7.406 -0.3690  0.2087 -0.0236
11978SOL    HW136512   1.784   1.921   7.395 -0.9982  1.3776 -1.1856
11978SOL    HW236513   1.639   1.939   7.356 -2.0260  0.2119  1.7681
11979SOL     OW36514   1.422   4.098   2.914 -0.2058  0.2492 -0.1137
11979SOL    HW136515   1.359   4.087   2.843  0.0475  0.7568 -0.4268
11979SOL    HW236516   1.470   4.015   2.917  0.6596  0.6682 -1.4077
11980SOL     OW36517   6.563   6.042   7.511 -0.2170 -0.0080 -0.0771
11980SOL    HW136518   6.624   6.072   7.443 -1.6031  0.1799 -1.2926
11980SOL    HW236519   6.481   6.087   7.491 -0.5655  0.4039  2.0243
11981SOL     OW36520   1.517   2.057   8.040  0.2558 -0.8851 -0.6348
11981SOL    HW136521   1.488   2.147   8.026  1.0888 -0.6058 -0.6001
11981SOL    HW236522   1.504   2.041   8.133  1.0451 -0.4591 -0.4478
11982SOL     OW36523   3.252   4.018   0.416 -0.6401  0.8284  0.0962
11982SOL    HW136524   3.224   4.008   0.507 -0.0084 -0.3699  0.1824
11982SOL    HW236525   3.320   4.086   0.419 -0.3245  0.4956  0.5873
11983SOL     OW36526   9.938   9.074   5.408 -0.0554 -0.1475  0.0145
11983SOL    HW136527   9.915   9.166   5.394 -0.1547 -0.2326 -0.3839
11983SOL    HW236528   9.916   9.058   5.500 -0.3708  0.1289 -0.0119
11984SOL     OW36529   1.622   6.858   7.277  0.5801  0.0226  0.0088
11984SOL    HW136530   1.559   6.796   7.238  1.3073  0.7964 -2.6556
11984SOL    HW236531   1.568   6.922   7.323 -0.3444 -1.1018  0.5264
11985SOL     OW36532   1.603   7.618   7.786 -0.1911 -0.0130 -0.1752
11985SOL    HW136533   1.648   7.688   7.737  0.1827  1.0585  1.6177
11985SOL    HW236534   1.647   7.616   7.871 -0.0211 -2.6437 -0.2420
11986SOL     OW36535   6.448   7.359   7.043 -0.3037 -0.1689  0.0930
11986SOL    HW136536   6.364   7.368   6.998 -0.1700  2.3225  0.1733
11986SOL    HW236537   6.512   7.346   6.973 -0.4863  0.3768 -0.1813
11987SOL     OW36538   3.392   0.327   1.712  0.4768 -0.3928  0.1442
11987SOL    HW136539   3.340   0.280   1.778  0.7324 -1.0456 -0.1042
11987SOL    HW236540   3.458   0.263   1.685  1.0405  0.2286  0.0266
11988SOL     OW36541   5.771   7.057   5.128 -0.3410  0.0040  0.0098
11988SOL    HW136542   5.763   7.112   5.206  0.4861  0.3584 -0.1489
11988SOL    HW236543   5.683   7.022   5.115 -0.3650 -0.5792  1.4861
11989SOL     OW36544   2.571   6.963   0.466 -0.0860  0.4154 -0.2488
11989SOL    HW136545   2.609   6.927   0.386 -2.4258 -1.5078 -0.6068
11989SOL    HW236546   2.617   6.919   0.537  0.9437  0.9981 -0.5323
11990SOL     OW36547   1.004   5.949   7.967  0.1554  0.0053  0.2874
11990SOL    HW136548   1.018   6.043   7.960  1.0033 -0.1031  0.4293
11990SOL    HW236549   0.909   5.938   7.960  0.1570  0.7333 -1.2672
11991SOL     OW36550   3.357   7.911   0.251  0.0386  0.0191 -0.4037
11991SOL    HW136551   3.366   7.866   0.167 -0.2089 -3.2931  1.1808
11991SOL    HW236552   3.265   7.936   0.255 -0.2771 -1.0495 -0.5902
11992SOL     OW36553   1.763   0.234   0.115 -0.1484  0.4982 -0.0231
11992SOL    HW136554   1.669   0.231   0.133 -0.0934  1.1428  0.3839
11992SOL    HW236555   1.770   0.216   0.021 -0.4771 -2.5490  0.4355
11993SOL     OW36556   9.886   6.430   7.445  0.7126 -0.2810 -0.2592
11993SOL    HW136557   9.899   6.512   7.492  1.4770  1.5351 -3.3997
11993SOL    HW236558   9.794   6.409   7.459  0.6343  0.7726  1.0197
11994SOL     OW36559   0.306   7.725   3.927 -0.2716  0.1249  0.3521
11994SOL    HW136560   0.228   7.686   3.887 -0.7683  0.4261  1.0324
11994SOL    HW236561   0.286   7.731   4.020  0.5986  0.1219  0.5509
11995SOL     OW36562   3.936   2.760   7.146  0.1960 -0.0152 -0.4270
11995SOL    HW136563   3.884   2.760   7.065 -2.5218 -0.6274  1.1894
11995SOL    HW236564   3.976   2.847   7.148 -0.2410  0.2676 -2.0711
11996SOL     OW36565   1.090   2.522   8.518 -0.2365  0.3409  0.6108
11996SOL    HW136566   1.156   2.484   8.460 -0.7757  1.5783 -0.8734
11996SOL    HW236567   1.139   2.581   8.575  0.2637 -0.6796  1.2572
11997SOL     OW36568   3.944   9.757   3.815 -0.1263 -0.1934  0.7936
11997SOL    HW136569   3.958   9.682   3.757  0.8379  0.3005  0.3504
11997SOL    HW236570   3.861   9.795   3.786  1.9841  2.2692 -2.9457
11998SOL     OW36571   8.918   3.765   9.304 -0.1873  0.7970 -0.1140
11998SOL    HW136572   9.013   3.767   9.319 -0.3057  0.2254  0.8241
11998SOL    HW236573   8.900   3.677   9.271 -0.4723  0.6731  0.3598
11999SOL     OW36574   7.729   5.180   2.005  0.1244  0.8290 -0.3495
11999SOL    HW136575   7.728   5.247   1.938 -0.0974  0.1425 -1.0487
11999SOL    HW236576   7.683   5.106   1.966  2.5861 -0.6891 -0.6193
12000SOL     OW36577   7.695   4.436   4.035 -0.5482  0.4335 -0.6613
12000SOL    HW136578   7.601   4.419   4.043 -0.3404 -1.2759 -1.2605
12000SOL    HW236579   7.708   4.453   3.942 -0.3035  0.9249 -0.5367
12001SOL     OW36580   1.762   2.120   2.780  0.4620  0.4488  0.1082
12001SOL    HW136581   1.788   2.108   2.689  1.2848  2.0384  0.1043
12001SOL    HW236582   1.835   2.166   2.821 -0.4327  0.9236  1.2444
12002SOL     OW36583   6.527   4.659   0.138 -0.1409  0.8654 -0.3749
12002SOL    HW136584   6.455   4.607   0.175  0.7770 -0.7315 -0.7210
12002SOL    HW236585   6.513   4.656   0.043 -0.3934  1.7585 -0.3750
12003SOL     OW36586   9.178   7.968   3.141  0.1235  0.2766 -0.0091
12003SOL    HW136587   9.176   7.874   3.163  0.7923  0.0612 -0.7866
12003SOL    HW236588   9.269   7.993   3.157  0.2866  0.4442 -1.1564
12004SOL     OW36589   0.633   3.733   6.938  0.6936 -0.0064 -0.4708
12004SOL    HW136590   0.728   3.719   6.935  0.5085 -1.3556 -0.5546
12004SOL    HW236591   0.613   3.737   7.031  0.8255  0.2716 -0.4523
12005SOL     OW36592   1.606   7.939   1.153  0.2526  0.2862  0.3320
12005SOL    HW136593   1.559   7.892   1.084 -0.4787  1.5407 -0.0511
12005SOL    HW236594   1.663   8.000   1.107  2.0209 -0.9227  0.7997
12006SOL     OW36595   9.096   8.529   1.270 -0.0348 -0.2273 -0.3643
12006SOL    HW136596   9.159   8.540   1.199 -1.8999  1.1871 -1.8949
12006SOL    HW236597   9.075   8.618   1.298 -0.0124 -0.7352  1.3801
12007SOL     OW36598   8.568   1.440   5.056 -0.6410  0.3968 -0.2336
12007SOL    HW136599   8.553   1.400   5.141 -3.7055  1.0205 -0.3855
12007SOL    HW236600   8.553   1.370   4.993 -2.1051  0.7987 -0.3573
12008SOL     OW36601   2.214   7.531   6.636  0.1778 -0.2839 -0.6346
12008SOL    HW136602   2.174   7.446   6.623  0.6357 -0.5433 -0.3689
12008SOL    HW236603   2.269   7.544   6.559  2.6791 -1.7015  0.7903
12009SOL     OW36604   1.529   5.219   9.237  0.0215  0.1799 -0.2894
12009SOL    HW136605   1.567   5.150   9.291 -1.3052  0.2653  0.7997
12009SOL    HW236606   1.520   5.179   9.150  0.4056 -0.6084  0.0240
12010SOL     OW36607   9.565   3.362   8.951 -0.2132 -0.0816 -0.0701
12010SOL    HW136608   9.552   3.429   8.883 -1.2094 -1.3090 -1.1576
12010SOL    HW236609   9.482   3.313   8.952  0.4438 -1.2165  0.7715
12011SOL     OW36610   5.572   2.161   7.624  0.2618 -0.0574 -0.0735
12011SOL    HW136611   5.593   2.118   7.542 -0.6515  0.5337 -0.6450
12011SOL    HW236612   5.648   2.217   7.642  0.7240 -0.6367 -0.1965
12012SOL     OW36613   3.043   7.009   8.459 -0.2015 -0.0485 -0.0301
12012SOL    HW136614   3.043   6.996   8.554 -0.9836  0.1801  0.0070
12012SOL    HW236615   2.993   6.935   8.425  1.4575 -1.0390 -0.4139
12013SOL     OW36616   4.252   1.269   9.782 -0.8144  0.0014 -0.1824
12013SOL    HW136617   4.233   1.194   9.725 -2.4809  1.2367 -1.3654
12013SOL    HW236618   4.167   1.311   9.795  0.0742  1.7145  0.4197
12014SOL     OW36619   6.092   5.174   6.673  0.2496 -0.3357  0.2299
12014SOL    HW136620   6.121   5.085   6.653  1.5296  0.2618 -0.6608
12014SOL    HW236621   6.000   5.175   6.647  0.5117 -1.0954 -0.7814
12015SOL     OW36622   0.956   9.544   1.801  0.2760  0.0390  0.5926
12015SOL    HW136623   0.925   9.500   1.722 -0.0720  0.2579  0.6058
12015SOL    HW236624   0.969   9.473   1.864 -1.8900  0.0718  1.1566
12016SOL     OW36625   7.411   9.429   7.341 -0.4212  0.0560 -0.0316
12016SOL    HW136626   7.348   9.482   7.389  1.7052  1.4222  1.4254
12016SOL    HW236627   7.494   9.475   7.351  0.9873 -2.0379 -1.2411
12017SOL     OW36628   8.694   3.572   4.259  0.2834 -0.5175  0.2347
12017SOL    HW136629   8.614   3.617   4.231  0.5174 -0.6457 -0.6840
12017SOL    HW236630   8.718   3.615   4.341  0.9017  1.5661 -0.9673
12018SOL     OW36631   8.587   8.273   2.500  0.2794 -0.4360 -0.2719
12018SOL    HW136632   8.561   8.195   2.450 -2.0579  0.8695 -1.2501
12018SOL    HW236633   8.531   8.343   2.467  0.2835  1.0622  2.5633
12019SOL     OW36634   7.193   6.462   6.429  0.5583  0.6407  0.2101
12019SOL    HW136635   7.127   6.395   6.446  0.4122  0.8729  0.5747
12019SOL    HW236636   7.143   6.541   6.411  0.6902  0.3566 -1.6416
12020SOL     OW36637   8.626   7.523   1.115  0.4620  0.6522 -0.2282
12020SOL    HW136638   8.717   7.496   1.101  0.7751  1.5493 -0.0356
12020SOL    HW236639   8.607   7.498   1.206  1.1640  2.1100  0.3679
12021SOL     OW36640   2.946   5.790   5.803  0.1071 -0.2874  0.4951
12021SOL    HW136641   2.987   5.727   5.862  2.0925  0.4974  0.0455
12021SOL    HW236642   2.908   5.738   5.733  0.8935 -1.0516  0.6196
12022SOL     OW36643   9.001   3.464   1.016  0.1159 -0.4188  0.5857
12022SOL    HW136644   9.053   3.513   1.080  1.0303  0.5364 -0.8293
12022SOL    HW236645   9.065   3.436   0.951 -0.9075 -0.6504 -0.3372
12023SOL     OW36646   3.264   5.243   8.467 -0.3422  0.4102  0.1406
12023SOL    HW136647   3.200   5.309   8.493 -0.4605  0.2193  0.3489
12023SOL    HW236648   3.286   5.264   8.377  0.4162  1.3694  0.5323
12024SOL     OW36649   4.041   3.080   9.849 -0.1769 -0.3369  0.4580
12024SOL    HW136650   3.996   3.058   9.768 -2.4189  0.7283  1.2987
12024SOL    HW236651   4.113   3.137   9.823 -1.9234  1.4615 -0.7239
12025SOL     OW36652   8.118   2.523   7.879  0.3108 -0.1272 -0.0657
12025SOL    HW136653   8.103   2.606   7.924 -0.1300  0.5980 -1.4991
12025SOL    HW236654   8.208   2.529   7.847 -0.2136  0.4790 -1.4946
12026SOL     OW36655   1.591   5.486   9.916 -0.0734  0.1829 -0.3993
12026SOL    HW136656   1.588   5.579   9.937 -1.7426  0.7010 -2.5111
12026SOL    HW236657   1.529   5.446   9.976 -0.6953  0.7288 -0.6687
12027SOL     OW36658   2.492   6.407   7.882  0.0568 -0.1491 -0.7628
12027SOL    HW136659   2.418   6.440   7.831  0.2065 -0.0222 -0.8993
12027SOL    HW236660   2.475   6.313   7.891 -2.2195  0.4087  2.6264
12028SOL     OW36661   0.182   2.596   6.303 -0.3563 -0.3203 -0.7504
12028SOL    HW136662   0.271   2.627   6.288  0.4337 -1.7333  0.7263
12028SOL    HW236663   0.189   2.501   6.307 -1.8920 -0.4542 -0.3334
12029SOL     OW36664   0.644   9.502   7.151 -0.3240  0.0723  0.0080
12029SOL    HW136665   0.690   9.418   7.146 -1.8076 -0.8427  1.1030
12029SOL    HW236666   0.682   9.554   7.080  1.2353 -1.2034 -0.1464
12030SOL     OW36667   3.555   1.223   6.229  0.3184 -0.5360  0.2836
12030SOL    HW136668   3.537   1.140   6.272 -0.2954  0.6852  2.5317
12030SOL    HW236669   3.635   1.255   6.271  0.1738  0.3249 -0.0823
12031SOL     OW36670   7.479   7.015   1.053 -0.5445 -0.0382  0.0529
12031SOL    HW136671   7.525   7.097   1.035 -1.0825 -0.0430 -1.5309
12031SOL    HW236672   7.436   6.993   0.970  0.5231 -2.5146  0.0415
12032SOL     OW36673   4.980   7.366   0.342  0.0528  0.2513  0.6242
12032SOL    HW136674   4.913   7.314   0.386  0.0592 -0.0925  0.2327
12032SOL    HW236675   4.935   7.445   0.315 -0.2578 -0.0785  0.1595
12033SOL     OW36676   7.966   7.091   2.174 -0.0525 -0.0762  0.0221
12033SOL    HW136677   7.951   7.006   2.216 -1.3954 -0.2973 -0.8185
12033SOL    HW236678   7.881   7.135   2.179 -0.2710 -0.0834 -2.3050
12034SOL     OW36679   3.459   7.046   6.037 -0.3402 -0.2690  0.5329
12034SOL    HW136680   3.545   7.040   6.080  1.4178 -0.7651 -2.7330
12034SOL    HW236681   3.453   7.136   6.007  0.0378 -0.7295 -1.0159
12035SOL     OW36682   2.480   4.992   0.728  0.1727 -0.1707  0.3698
12035SOL    HW136683   2.429   4.925   0.682  0.8410 -0.4145 -0.0335
12035SOL    HW236684   2.524   5.040   0.658  0.2596  0.2302  0.6984
12036SOL     OW36685   5.327   0.090   5.186  0.1122 -0.1188 -0.1298
12036SOL    HW136686   5.389   0.155   5.219 -0.5296  0.4793 -0.0794
12036SOL    HW236687   5.375   0.007   5.189  1.5163  0.5868 -1.7526
12037SOL     OW36688   8.247   8.385   6.619 -0.5124 -0.0382 -0.5995
12037SOL    HW136689   8.215   8.457   6.564 -1.9562 -0.7697 -0.7642
12037SOL    HW236690   8.273   8.427   6.701 -0.0299  0.8426 -1.1894
12038SOL     OW36691   2.863   0.918   3.806 -0.1403 -0.5038 -0.2701
12038SOL    HW136692   2.931   0.982   3.785 -0.7037  0.2399  0.1183
12038SOL    HW236693   2.908   0.834   3.807  0.6016 -0.1238 -0.8518
12039SOL     OW36694   5.544   4.962   1.460 -0.0665 -0.9106  0.0242
12039SOL    HW136695   5.574   5.053   1.462 -2.0413 -0.1732  3.4092
12039SOL    HW236696   5.624   4.910   1.472  0.8032  0.5564  0.9089
12040SOL     OW36697   1.949   9.137   4.157  0.1149  0.3261 -0.0679
12040SOL    HW136698   2.019   9.148   4.220  1.2714 -2.0917 -0.7991
12040SOL    HW236699   1.876   9.100   4.208  0.2781  0.4226  0.2346
12041SOL     OW36700   7.205   5.604   5.421  0.1459  0.3037 -0.2202
12041SOL    HW136701   7.113   5.629   5.430 -0.1560 -0.3549 -1.3758
12041SOL    HW236702   7.241   5.669   5.360  0.0246 -0.4359 -1.0916
12042SOL     OW36703   9.396   6.002   6.644 -0.0167 -0.5842 -0.1528
12042SOL    HW136704   9.379   5.908   6.651  1.1153 -0.8187 -0.4173
12042SOL    HW236705   9.329   6.035   6.584 -0.7954 -1.1063  0.4139
12043SOL     OW36706   1.388   1.363   1.023 -0.6867 -0.7410  0.2510
12043SOL    HW136707   1.339   1.443   1.037 -1.1868 -0.7375 -1.4038
12043SOL    HW236708   1.480   1.391   1.020 -0.7745 -0.3919  0.7397
12044SOL     OW36709   7.277   4.658   0.965 -0.7588 -0.2378 -0.4531
12044SOL    HW136710   7.200   4.715   0.958 -0.5352  0.0445 -0.6264
12044SOL    HW236711   7.347   4.716   0.994 -0.4012 -0.3120 -1.1420
12045SOL     OW36712   3.899   4.828   0.000 -0.0227 -0.1366  0.1438
12045SOL    HW136713   3.859   4.915  -0.010 -0.3082 -0.3561 -0.6395
12045SOL    HW236714   3.982   4.846   0.045  0.0698  0.5824 -0.2925
12046SOL     OW36715   2.190   8.592   3.119 -0.0582 -0.8100 -0.1119
12046SOL    HW136716   2.184   8.636   3.204 -2.5753  0.2779 -0.7715
12046SOL    HW236717   2.128   8.519   3.126 -3.0324  1.3248 -2.0460
12047SOL     OW36718   9.845   4.011   6.489 -0.0474  0.1314  0.5241
12047SOL    HW136719   9.858   4.040   6.580  0.5888  1.0225  0.1547
12047SOL    HW236720   9.878   3.921   6.488 -1.9967 -0.6771  1.6723
12048SOL     OW36721   0.963   5.175   7.729  0.5858  0.0802  0.0324
12048SOL    HW136722   0.974   5.244   7.664  2.0565 -0.2001 -0.0579
12048SOL    HW236723   1.047   5.130   7.730 -0.2047 -1.4656  0.3776
12049SOL     OW36724   4.328   4.121   6.339  0.5397  0.0529 -0.0007
12049SOL    HW136725   4.289   4.034   6.343  2.2330 -0.9111 -2.3314
12049SOL    HW236726   4.333   4.149   6.431  0.2370 -2.4324  0.8531
12050SOL     OW36727   7.599   5.280   2.275 -0.5934 -0.0659  0.3916
12050SOL    HW136728   7.598   5.240   2.188 -0.4190 -0.8714  0.7568
12050SOL    HW236729   7.586   5.207   2.336 -2.7428  0.7196  0.9760
12051SOL     OW36730   1.529   8.772   4.447  0.3673  0.3300  0.4672
12051SOL    HW136731   1.597   8.826   4.489  0.2220  0.2181  0.8542
12051SOL    HW236732   1.450   8.790   4.499 -0.2076  1.4144 -0.7187
12052SOL     OW36733   2.392   0.048   4.142  0.1244  0.5001  0.2166
12052SOL    HW136734   2.381  -0.046   4.159 -0.6432  0.6809  0.7561
12052SOL    HW236735   2.485   0.057   4.120  0.3339 -0.2935  0.7201
12053SOL     OW36736   5.375   1.601   4.831 -0.6556  0.0172 -0.2867
12053SOL    HW136737   5.300   1.660   4.838 -0.7472 -0.2998  1.8162
12053SOL    HW236738   5.450   1.659   4.813 -1.0892  0.5159 -0.5106
12054SOL     OW36739   4.755   9.354   4.988  0.3976 -0.4332 -0.3163
12054SOL    HW136740   4.789   9.377   4.902  1.2918  0.3517  0.2118
12054SOL    HW236741   4.830   9.316   5.034 -0.1743 -1.2283 -0.0137
12055SOL     OW36742   7.519   4.067   8.361  0.3009  0.2913  0.4861
12055SOL    HW136743   7.542   4.149   8.405  1.6277 -0.6536  1.6412
12055SOL    HW236744   7.564   4.073   8.276  0.6508  0.6407  0.6893
12056SOL     OW36745   7.393   3.726   2.617 -0.1400  0.2407  0.3664
12056SOL    HW136746   7.477   3.741   2.661 -0.1849 -0.2092  0.6038
12056SOL    HW236747   7.339   3.800   2.643  1.0419  2.0643 -1.9585
12057SOL     OW36748   8.180   2.907   6.815 -0.6816  0.1551  0.0440
12057SOL    HW136749   8.203   2.845   6.746 -0.8578 -0.5647  0.6246
12057SOL    HW236750   8.261   2.955   6.832  0.1444 -1.5939  1.2908
12058SOL     OW36751   8.288   7.281   5.320  0.4928 -0.1455  0.6517
12058SOL    HW136752   8.262   7.229   5.396 -0.1124 -1.2778 -0.2897
12058SOL    HW236753   8.205   7.301   5.275  0.9234 -0.6573 -0.4205
12059SOL     OW36754   5.491   2.065   6.174  0.4118  0.5692 -0.3730
12059SOL    HW136755   5.402   2.041   6.149 -0.2716  3.5177 -1.1591
12059SOL    HW236756   5.535   2.081   6.090  0.6590  2.2466  0.0309
12060SOL     OW36757   6.779   7.005   6.252 -0.0393  0.1080  0.2640
12060SOL    HW136758   6.868   7.029   6.278  0.5466 -0.2895 -1.2683
12060SOL    HW236759   6.774   7.028   6.159 -0.5833 -2.3600 -0.4126
12061SOL     OW36760   7.942   9.664   7.040  1.0316  0.4554  0.5292
12061SOL    HW136761   8.007   9.594   7.052  0.3993  0.0994  2.0295
12061SOL    HW236762   7.994   9.738   7.009  1.7422 -0.6008 -0.9430
12062SOL     OW36763   8.604   5.750   8.083  0.7336  0.0315  0.0332
12062SOL    HW136764   8.530   5.808   8.068 -0.2726 -1.3415 -0.5395
12062SOL    HW236765   8.633   5.725   7.995  2.3605  1.0934  0.2230
12063SOL     OW36766   4.045   7.159   9.357  0.2617 -0.2284 -0.2763
12063SOL    HW136767   4.085   7.131   9.275  1.5311  0.1687  0.1827
12063SOL    HW236768   3.981   7.091   9.377  2.0365 -1.9417 -0.0802
12064SOL     OW36769   6.492   3.729   7.167 -0.5060 -0.0212 -0.4424
12064SOL    HW136770   6.397   3.725   7.165 -0.5433  0.9566 -1.1780
12064SOL    HW236771   6.520   3.687   7.085 -0.2303 -1.5161  0.3764
12065SOL     OW36772   8.834   4.148   5.893  0.0329  0.0569 -0.2347
12065SOL    HW136773   8.746   4.136   5.857  0.6144 -3.1522 -0.8861
12065SOL    HW236774   8.841   4.080   5.961  2.3203 -0.4482 -0.9093
12066SOL     OW36775   5.455   2.533   9.919  0.5258 -0.0989 -0.1480
12066SOL    HW136776   5.446   2.554  10.012  0.9771 -0.3720 -0.0396
12066SOL    HW236777   5.418   2.445   9.910  1.7164 -0.6335  0.0320
12067SOL     OW36778   0.822   4.317   4.309 -0.0686  0.6146  0.1351
12067SOL    HW136779   0.901   4.267   4.329  0.2611  1.7472  1.8981
12067SOL    HW236780   0.854   4.405   4.290 -0.7586  0.5622 -1.4421
12068SOL     OW36781   2.333   6.104   7.464  0.0462  0.5074 -0.6276
12068SOL    HW136782   2.319   6.015   7.430  1.3768 -0.1605  0.4780
12068SOL    HW236783   2.317   6.161   7.388 -1.0678 -0.6312 -1.2986
12069SOL     OW36784   2.552   6.322   0.720  0.5468  0.6380 -0.3119
12069SOL    HW136785   2.598   6.338   0.802 -0.7929 -1.0715  0.8535
12069SOL    HW236786   2.462   6.348   0.738  0.7179  2.8211 -2.1715
12070SOL     OW36787   1.473   1.577   9.391  0.3823  0.0978  0.2485
12070SOL    HW136788   1.482   1.652   9.332 -0.8270 -0.8348 -1.2106
12070SOL    HW236789   1.562   1.554   9.415  0.7783  2.0122  0.7710
12071SOL     OW36790   5.114   3.859   9.710  0.8600 -0.2863  0.3742
12071SOL    HW136791   5.049   3.794   9.685 -0.0012 -0.0393  1.8369
12071SOL    HW236792   5.160   3.819   9.785  1.7969 -0.0941 -0.0844
12072SOL     OW36793   3.460   3.943   5.173 -0.2059  0.0291  0.2004
12072SOL    HW136794   3.472   3.848   5.174 -0.4035 -0.0391 -1.4986
12072SOL    HW236795   3.371   3.957   5.205 -0.6675 -0.4652 -0.8397
12073SOL     OW36796   5.382   6.332   4.148  0.6581 -0.2453  0.3574
12073SOL    HW136797   5.294   6.340   4.184  0.5497 -0.6299  0.1923
12073SOL    HW236798   5.375   6.259   4.086  0.6884  0.7772 -0.8931
12074SOL     OW36799   5.477   1.451   3.102  0.0796  0.4691 -0.5303
12074SOL    HW136800   5.557   1.409   3.133  0.9611  1.5442 -1.2799
12074SOL    HW236801   5.462   1.413   3.015  2.2337  3.2710 -2.2933
12075SOL     OW36802   6.499   6.504   9.988 -0.3859 -0.2397 -0.2664
12075SOL    HW136803   6.464   6.415   9.985 -1.8783  0.3360 -2.4747
12075SOL    HW236804   6.572   6.504   9.927 -1.0849  0.2883 -1.1252
12076SOL     OW36805   9.865   9.284   3.630 -0.1933 -0.5569  0.1247
12076SOL    HW136806   9.945   9.308   3.583 -0.3947  0.1982  0.1620
12076SOL    HW236807   9.882   9.309   3.721 -0.4000 -0.5760  0.1687
12077SOL     OW36808   7.377   4.013   6.645 -0.0853  0.5019 -0.0815
12077SOL    HW136809   7.380   4.018   6.549  0.4144 -2.1557 -0.2849
12077SOL    HW236810   7.367   3.919   6.664 -1.5047  1.0730  2.4640
12078SOL     OW36811   0.081   7.540   4.613  0.1714 -0.5533 -0.3403
12078SOL    HW136812   0.122   7.457   4.588  0.5774 -0.7364  0.8611
12078SOL    HW236813   0.127   7.566   4.693  0.0241  0.8212 -0.6842
12079SOL     OW36814   8.733   2.344   2.291 -0.4604  0.0568 -0.5287
12079SOL    HW136815   8.641   2.341   2.319 -0.1750  0.5901  0.5418
12079SOL    HW236816   8.783   2.337   2.373  0.4218  1.7842 -0.8581
12080SOL     OW36817   6.021   5.698   1.195 -0.6901  0.2273 -0.2425
12080SOL    HW136818   5.955   5.739   1.139 -0.8930 -1.1000 -1.0172
12080SOL    HW236819   6.099   5.753   1.185 -1.3524  1.1956 -0.1548
12081SOL     OW36820   5.803   5.163   9.104 -0.1339  0.3578 -0.0139
12081SOL    HW136821   5.895   5.170   9.077  0.3598  0.3619  1.5322
12081SOL    HW236822   5.764   5.103   9.042  1.0392 -0.0158 -0.4203
12082SOL     OW36823   5.956   2.186   9.575 -0.2577 -0.4802  0.3669
12082SOL    HW136824   5.925   2.253   9.513  3.1180  0.6139 -0.3745
12082SOL    HW236825   5.951   2.104   9.526  0.9235  0.1470 -0.8815
12083SOL     OW36826   8.804   1.564   0.248 -0.0371 -0.0327 -0.5943
12083SOL    HW136827   8.878   1.561   0.308 -0.1958 -0.9881 -0.4346
12083SOL    HW236828   8.843   1.559   0.161  0.2524  2.1092 -0.6612
12084SOL     OW36829   1.979   6.932   6.670  0.4121  0.4663  0.2792
12084SOL    HW136830   1.983   6.916   6.765 -0.1625 -1.3853  0.0362
12084SOL    HW236831   2.066   6.905   6.639  0.5759  1.0074  0.2639
12085SOL     OW36832   6.322   0.104   8.625 -0.0750 -0.1252 -0.2661
12085SOL    HW136833   6.374   0.086   8.547 -0.4814  1.4862 -0.9517
12085SOL    HW236834   6.237   0.133   8.590 -0.7650 -0.8246  0.7966
12086SOL     OW36835   6.871   7.643   9.717  0.0144  0.4101  0.2244
12086SOL    HW136836   6.802   7.607   9.662 -0.7542  1.1346  0.6853
12086SOL    HW236837   6.929   7.569   9.736 -0.2757 -0.0631 -0.6942
12087SOL     OW36838   7.291   0.386   4.630 -0.6361  0.2078 -0.3863
12087SOL    HW136839   7.347   0.443   4.682 -1.7069  0.2644  0.7847
12087SOL    HW236840   7.305   0.299   4.667  0.5836 -0.2195 -1.8026
12088SOL     OW36841   2.083   4.253   2.952 -0.1386  0.4631 -0.0887
12088SOL    HW136842   2.101   4.342   2.922  0.8345  0.4920  0.5158
12088SOL    HW236843   2.164   4.225   2.995 -0.3647 -0.7836 -0.4158
12089SOL     OW36844   7.163   4.277   4.818 -0.2180  0.1895  0.1110
12089SOL    HW136845   7.138   4.357   4.864  1.0233  0.4742  0.3199
12089SOL    HW236846   7.126   4.206   4.872  0.0006  0.5745  0.7775
12090SOL     OW36847   2.732   5.246   2.030 -0.1289  0.0054 -0.0192
12090SOL    HW136848   2.822   5.215   2.029 -0.4556 -1.0007  0.3155
12090SOL    HW236849   2.708   5.247   2.123 -0.9284 -1.1771 -0.1934
12091SOL     OW36850   4.789   1.822   9.573 -0.1104 -0.1693 -0.7807
12091SOL    HW136851   4.719   1.797   9.633  1.6186  2.5594  2.7696
12091SOL    HW236852   4.840   1.741   9.561 -1.1868 -1.0940  0.5197
12092SOL     OW36853   4.551   4.299   4.738  0.2016 -0.2063  0.1015
12092SOL    HW136854   4.545   4.232   4.807 -3.3656  0.2342  0.3738
12092SOL    HW236855   4.460   4.317   4.714  1.2085  2.0104 -2.4951
12093SOL     OW36856   3.883   7.027   6.786 -0.9335 -0.2734 -0.2902
12093SOL    HW136857   3.935   6.947   6.780  0.9045  0.5974  2.3525
12093SOL    HW236858   3.808   7.004   6.841 -2.6888 -1.1069 -2.8179
12094SOL     OW36859   2.361   6.559   0.830 -0.1474 -0.0322 -0.1576
12094SOL    HW136860   2.397   6.645   0.807  1.8322 -0.6664  0.3711
12094SOL    HW236861   2.389   6.545   0.921 -1.4386 -0.7666  0.1601
12095SOL     OW36862   2.704   6.113   6.738  0.3116  0.7024 -0.0900
12095SOL    HW136863   2.748   6.189   6.776  2.1842 -1.0763  1.5286
12095SOL    HW236864   2.769   6.074   6.679 -0.3319 -0.1026 -0.2913
12096SOL     OW36865   4.306   0.653   3.763  0.3916  0.1396 -0.2549
12096SOL    HW136866   4.390   0.665   3.808  0.0977  2.8313 -0.2753
12096SOL    HW236867   4.240   0.665   3.832 -0.0172 -1.2968 -0.3702
12097SOL     OW36868   6.764   9.067   4.029  0.0682  0.3677  0.0298
12097SOL    HW136869   6.859   9.062   4.025  0.0474 -0.1063  0.1210
12097SOL    HW236870   6.733   8.983   3.995 -0.2584 -0.5018  2.3129
12098SOL     OW36871   0.449   5.326   7.526 -0.1804 -0.9647 -0.0559
12098SOL    HW136872   0.361   5.328   7.489 -0.1230 -1.0536 -0.1982
12098SOL    HW236873   0.490   5.248   7.488  0.4156 -0.1965 -1.0551
12099SOL     OW36874   9.723   0.757   3.342 -0.0807  1.1162 -0.0761
12099SOL    HW136875   9.750   0.666   3.340 -0.3158  1.0542 -1.6961
12099SOL    HW236876   9.723   0.784   3.250 -4.9835  1.2338 -0.3119
12100SOL     OW36877   5.249   5.739   7.006  0.2733 -0.4647  0.6886
12100SOL    HW136878   5.220   5.801   6.939 -0.3521 -1.9131 -0.4399
12100SOL    HW236879   5.172   5.726   7.062  1.2223  1.9470  2.7753
12101SOL     OW36880   0.216   7.299   1.700  0.3800  0.5182  0.3942
12101SOL    HW136881   0.216   7.288   1.605 -0.5139  0.9741  0.3304
12101SOL    HW236882   0.192   7.212   1.734 -0.3726  0.6315  0.1592
12102SOL     OW36883   0.612   2.235   8.337  0.0251 -0.2276 -0.8171
12102SOL    HW136884   0.613   2.145   8.369  1.5064 -0.7440 -2.2177
12102SOL    HW236885   0.548   2.234   8.265 -1.7327  0.4397  0.6668
12103SOL     OW36886   4.685   1.350   5.691  0.1668 -0.3387  0.6418
12103SOL    HW136887   4.614   1.396   5.736  1.2808  1.0666  1.0376
12103SOL    HW236888   4.654   1.342   5.600 -0.3313  0.6710  0.7056
12104SOL     OW36889   0.750   3.674   2.451 -0.2345 -0.0917 -0.4998
12104SOL    HW136890   0.684   3.611   2.480 -1.0175  0.1102 -1.7457
12104SOL    HW236891   0.833   3.625   2.453 -0.3636 -0.2878  1.2681
12105SOL     OW36892   3.190   3.884   4.157 -0.1264 -0.3750 -0.0353
12105SOL    HW136893   3.253   3.875   4.229  1.4169 -0.7014 -1.3506
12105SOL    HW236894   3.163   3.975   4.159  0.1311 -0.3104  0.7815
12106SOL     OW36895   7.605   0.550   3.042 -0.1516  0.0312  0.5158
12106SOL    HW136896   7.579   0.630   3.089 -0.2255  0.1188  0.3266
12106SOL    HW236897   7.695   0.567   3.015 -0.1767  0.0619  0.4510
12107SOL     OW36898   2.641   2.495   0.809 -0.4707 -0.2836 -0.4322
12107SOL    HW136899   2.555   2.535   0.809 -0.5939 -0.5167 -1.5565
12107SOL    HW236900   2.702   2.569   0.807 -0.5963 -0.0934  1.1791
12108SOL     OW36901   2.612   1.194   0.079  0.4734 -0.2527 -0.1084
12108SOL    HW136902   2.627   1.270   0.135 -0.2008 -0.2148  0.0267
12108SOL    HW236903   2.518   1.179   0.083 -0.0163  1.3366 -3.3116
12109SOL     OW36904   5.686   5.095   2.751  0.3726 -0.6196  0.3530
12109SOL    HW136905   5.697   5.057   2.664 -0.8912  0.9235 -0.5520
12109SOL    HW236906   5.764   5.149   2.764 -0.1211  0.3358 -0.5120
12110SOL     OW36907   2.949   0.290   7.175  0.5164 -0.2816 -0.0545
12110SOL    HW136908   2.932   0.237   7.096  2.0195  0.7877 -1.1503
12110SOL    HW236909   2.991   0.229   7.236 -1.0213 -1.2267  0.1156
12111SOL     OW36910   2.775   5.130   4.300  0.5094 -0.1047 -0.3593
12111SOL    HW136911   2.754   5.044   4.338 -1.5373 -0.1670 -1.4818
12111SOL    HW236912   2.829   5.111   4.224 -0.2636 -0.4702 -0.8346
12112SOL     OW36913   0.185   5.391   4.189  0.2082 -0.2480 -0.0482
12112SOL    HW136914   0.262   5.348   4.225 -0.2741 -1.1874 -0.0974
12112SOL    HW236915   0.114   5.329   4.204 -0.4075  0.2942 -0.6374
12113SOL     OW36916   5.768   6.105   8.140 -0.3059 -0.2862 -0.3294
12113SOL    HW136917   5.811   6.179   8.183 -1.2627  1.2782 -1.9330
12113SOL    HW236918   5.839   6.053   8.104  0.3561  0.1792  0.2826
12114SOL     OW36919   6.351   6.098   3.981  0.4113 -0.0357 -0.3250
12114SOL    HW136920   6.330   6.048   3.902  1.4794 -1.7800  0.4408
12114SOL    HW236921   6.443   6.123   3.969  0.0791  1.2054 -0.3942
12115SOL     OW36922   0.562   8.018   1.656 -0.5912  0.0979  0.2206
12115SOL    HW136923   0.528   7.979   1.575  2.4105  0.4533 -1.3674
12115SOL    HW236924   0.655   7.994   1.656 -0.2710  1.0058  3.0777
12116SOL     OW36925   1.014   9.821   5.199  0.4435  0.5510 -0.5571
12116SOL    HW136926   0.920   9.800   5.207  0.3176  1.3098  0.0668
12116SOL    HW236927   1.016   9.898   5.143  0.7803 -0.0836 -1.4304
12117SOL     OW36928   7.312   7.528   7.183  0.0225  0.4964  1.0633
12117SOL    HW136929   7.263   7.542   7.102 -1.2824  0.8482  1.8841
12117SOL    HW236930   7.283   7.442   7.214 -0.0877  0.7062  1.5579
12118SOL     OW36931   3.181   9.676   0.579 -0.5172 -0.3963  0.2240
12118SOL    HW136932   3.156   9.690   0.487 -0.4737 -0.8191  0.1452
12118SOL    HW236933   3.135   9.596   0.604  1.4747 -1.7377 -0.2056
12119SOL     OW36934   2.663   4.298   9.375 -0.1914  0.0986 -0.4022
12119SOL    HW136935   2.666   4.307   9.471  2.4915 -2.1721 -0.1106
12119SOL    HW236936   2.600   4.363   9.346  0.1039  2.0047  2.7768
12120SOL     OW36937   9.296   4.243   0.096  0.8459  0.2753  0.0457
12120SOL    HW136938   9.336   4.156   0.092  0.0278 -0.1474  0.6747
12120SOL    HW236939   9.347   4.291   0.161  1.4695  0.3653 -0.5013
12121SOL     OW36940   2.681   1.668   6.013  0.3722 -0.0623  0.3433
12121SOL    HW136941   2.772   1.682   6.039  0.2352  1.7371  0.0419
12121SOL    HW236942   2.633   1.739   6.056 -1.1765 -1.8964  1.7949
12122SOL     OW36943   8.188   0.070   7.944 -0.1542  1.0733 -0.3583
12122SOL    HW136944   8.220   0.160   7.936 -1.7519  1.6979 -0.0029
12122SOL    HW236945   8.154   0.049   7.857  0.1261  0.8248 -0.4132
12123SOL     OW36946   0.342   9.798   3.487  0.0748  0.3782 -0.2308
12123SOL    HW136947   0.315   9.832   3.572  0.5517 -0.3033  0.2064
12123SOL    HW236948   0.357   9.705   3.502  2.4762  0.6660 -0.4803
12124SOL     OW36949   6.624   4.713   4.290 -0.0673  0.1076 -0.1871
12124SOL    HW136950   6.704   4.700   4.340 -0.6450  0.3473  0.8333
12124SOL    HW236951   6.580   4.627   4.294  0.7596 -0.4314 -1.9138
12125SOL     OW36952   6.225   1.527   0.904  0.0924 -0.0080  0.2439
12125SOL    HW136953   6.188   1.504   0.989  1.1674 -0.1043  0.6916
12125SOL    HW236954   6.288   1.457   0.886  0.3400  0.3577 -0.3348
12126SOL     OW36955   6.385   6.751   6.660  0.3608  0.9052 -0.3076
12126SOL    HW136956   6.458   6.796   6.702  1.4576 -0.6950 -0.4308
12126SOL    HW236957   6.310   6.809   6.675  1.3749  1.9587  0.9607
12127SOL     OW36958   2.047   5.048   2.782 -0.3731  0.2246  0.3302
12127SOL    HW136959   1.963   5.061   2.737 -0.1047 -1.5599 -0.7861
12127SOL    HW236960   2.112   5.055   2.712  0.3286  0.6043  1.0181
12128SOL     OW36961   2.328   1.483   0.022 -0.1183  0.1268 -0.4969
12128SOL    HW136962   2.294   1.514   0.106 -0.1881  0.5832 -0.6911
12128SOL    HW236963   2.258   1.501  -0.041 -0.4221 -1.0246 -0.5095
12129SOL     OW36964   4.003   6.883   6.267  0.5663 -0.4153 -0.8424
12129SOL    HW136965   3.981   6.796   6.233  0.6481 -0.7804 -0.0111
12129SOL    HW236966   3.927   6.907   6.321  0.9798 -0.4378 -0.2324
12130SOL     OW36967   1.386   4.824   9.528  0.3891  0.0465 -0.8111
12130SOL    HW136968   1.393   4.912   9.565 -1.9457 -0.0932  0.1140
12130SOL    HW236969   1.461   4.818   9.469  1.4641  2.0912  0.2124
12131SOL     OW36970   4.093   8.378   3.484 -0.4072  0.0953  0.2374
12131SOL    HW136971   4.180   8.418   3.479 -0.5174  0.5240  1.4340
12131SOL    HW236972   4.100   8.299   3.430  0.2664  0.9253 -0.9231
12132SOL     OW36973   0.715   4.280   8.733 -0.4218  0.3536  0.0077
12132SOL    HW136974   0.772   4.352   8.762 -0.8458  0.5372  0.3981
12132SOL    HW236975   0.715   4.218   8.805  4.4176 -2.9042 -2.2763
12133SOL     OW36976   2.831   8.284   7.436  0.7643  0.2715  0.2004
12133SOL    HW136977   2.859   8.244   7.518  0.8430  0.6839  0.3788
12133SOL    HW236978   2.772   8.220   7.396  3.8075 -1.7726 -1.3964
12134SOL     OW36979   4.970   3.028   4.476  0.4247 -0.2791 -0.0637
12134SOL    HW136980   4.901   3.021   4.543  0.1319 -1.0413 -0.4242
12134SOL    HW236981   4.923   3.052   4.396  0.7402  0.3865 -0.0509
12135SOL     OW36982   9.251   7.220   7.139  0.2259 -0.0561 -0.2959
12135SOL    HW136983   9.327   7.180   7.180 -0.7031 -1.6726 -0.0512
12135SOL    HW236984   9.236   7.301   7.188  1.1263 -0.2746  0.3542
12136SOL     OW36985   1.741   5.022   9.292  0.6671 -0.0781 -0.1129
12136SOL    HW136986   1.803   5.052   9.225  1.0900  1.0138  0.7355
12136SOL    HW236987   1.778   5.054   9.374 -0.4125 -0.4464  0.5294
12137SOL     OW36988   6.247   5.951   8.746 -0.2021  0.2564  0.2535
12137SOL    HW136989   6.318   6.009   8.720  0.6914 -0.2346  1.5063
12137SOL    HW236990   6.171   5.982   8.697  0.8797  0.7362 -1.1939
12138SOL     OW36991   2.955   2.709   2.102 -0.3092 -0.1092  0.3510
12138SOL    HW136992   2.899   2.658   2.044 -1.1841  1.7023 -0.4533
12138SOL    HW236993   2.899   2.732   2.176  0.1019 -0.3620  0.7481
12139SOL     OW36994   8.447   1.585   6.425 -0.2987 -0.3327  0.2798
12139SOL    HW136995   8.518   1.556   6.368  0.6236  0.7771  0.8276
12139SOL    HW236996   8.463   1.540   6.508 -1.8053 -2.1728 -0.3566
12140SOL     OW36997   7.387   5.068   4.603  0.3941 -0.1109 -0.1755
12140SOL    HW136998   7.404   5.159   4.628  0.0991 -0.1869  0.3032
12140SOL    HW236999   7.397   5.068   4.508 -1.2347  0.7916 -0.3870
12141SOL     OW37000   9.974   2.282   2.074  0.2873  0.1646  0.1573
12141SOL    HW137001  10.033   2.307   2.003  0.9680  0.1090  0.6959
12141SOL    HW237002   9.901   2.344   2.068  0.7394  0.6765 -0.0829
12142SOL     OW37003   1.425   4.731   6.915 -0.0162  0.1295  0.0347
12142SOL    HW137004   1.502   4.778   6.947  0.1095  0.5243 -0.8417
12142SOL    HW237005   1.460   4.663   6.858 -0.2606 -0.4008  0.5027
12143SOL     OW37006   8.587   4.660   2.145 -0.5144  0.3900  0.2027
12143SOL    HW137007   8.675   4.668   2.109 -0.2625 -0.2678  0.6719
12143SOL    HW237008   8.544   4.595   2.089 -0.0868 -0.7209  1.1289
12144SOL     OW37009   9.250   6.099   3.016 -0.1469 -0.1584  0.2026
12144SOL    HW137010   9.218   6.009   3.009  0.1615 -0.3192  0.7812
12144SOL    HW237011   9.202   6.147   2.948 -0.0010 -0.8421 -0.3893
12145SOL     OW37012   4.342   5.025   8.148  0.0748  0.7825  0.3874
12145SOL    HW137013   4.423   4.995   8.190 -1.0207  0.1453  2.1437
12145SOL    HW237014   4.279   4.955   8.166 -0.4063  0.2211 -2.7549
12146SOL     OW37015   4.876   9.328   2.501  0.0326 -0.3313 -0.4847
12146SOL    HW137016   4.935   9.347   2.574 -0.8093  1.0634 -0.1376
12146SOL    HW237017   4.914   9.251   2.459  0.5252 -1.2022  1.4515
12147SOL     OW37018   7.468   3.621   7.692 -0.4649 -0.5212  0.5221
12147SOL    HW137019   7.548   3.587   7.650 -2.4586 -3.3185 -1.3225
12147SOL    HW237020   7.450   3.561   7.763 -0.8472  0.2408  1.0845
12148SOL     OW37021   2.077   7.589   5.823  0.0706 -0.2457 -1.2632
12148SOL    HW137022   2.123   7.505   5.824  0.0893 -0.2576 -2.1514
12148SOL    HW237023   2.145   7.653   5.800  0.1012  0.0484 -0.3865
12149SOL     OW37024   1.907   2.100   1.812 -0.3429  0.2099 -0.1021
12149SOL    HW137025   1.922   2.146   1.895  1.9628 -0.7055  0.0439
12149SOL    HW237026   1.917   2.007   1.833  0.2322 -0.0396 -1.3885
12150SOL     OW37027   2.844   2.313   4.532  0.4469 -0.6276 -0.0278
12150SOL    HW137028   2.787   2.249   4.575 -0.8810  0.5964  0.1286
12150SOL    HW237029   2.819   2.397   4.571 -0.2275  0.4447 -2.5315
12151SOL     OW37030   4.757   0.536   7.799 -0.2254  0.0406 -0.0774
12151SOL    HW137031   4.687   0.473   7.817 -0.8306  0.8093  0.2639
12151SOL    HW237032   4.806   0.497   7.726 -1.5000 -0.1140 -0.8666
12152SOL     OW37033   7.793   4.503   0.796 -0.0876 -0.6007 -0.1877
12152SOL    HW137034   7.705   4.494   0.760 -0.5766  0.0201  0.7946
12152SOL    HW237035   7.804   4.425   0.851 -0.3376 -0.2944  0.3035
12153SOL     OW37036   3.634   0.237   5.026  0.2322 -0.3164  0.3799
12153SOL    HW137037   3.698   0.178   4.988 -1.1855 -0.8580 -1.2901
12153SOL    HW237038   3.564   0.180   5.058 -0.4063  0.3463  0.2197
12154SOL     OW37039   8.188   0.273   9.251 -0.3269 -0.2474 -0.0780
12154SOL    HW137040   8.180   0.366   9.273 -0.3518 -0.2953  0.1217
12154SOL    HW237041   8.129   0.230   9.313  0.5084 -0.4944  0.5569
12155SOL     OW37042   5.489   8.274   6.785  0.0835  0.5405  0.0110
12155SOL    HW137043   5.509   8.363   6.756 -0.3734 -0.1862 -2.7500
12155SOL    HW237044   5.404   8.255   6.747 -0.5687 -0.5740  1.8856
12156SOL     OW37045   2.263   0.574   0.884  0.6707 -0.0775 -0.5064
12156SOL    HW137046   2.186   0.563   0.940  1.3341 -1.5497  0.1689
12156SOL    HW237047   2.312   0.645   0.925  0.3372 -0.0302 -0.1821
12157SOL     OW37048   4.459   2.531   1.002  0.2521  0.3389  0.0359
12157SOL    HW137049   4.472   2.623   1.022  2.2283  0.1215  0.0218
12157SOL    HW237050   4.547   2.493   1.009 -0.5620 -1.5959  0.3348
12158SOL     OW37051   6.646   3.909   7.619 -0.2804  0.1967 -0.3143
12158SOL    HW137052   6.612   3.984   7.669 -2.5254 -1.7877  1.3218
12158SOL    HW237053   6.588   3.902   7.543 -2.3996 -1.8951  1.3679
12159SOL     OW37054   2.360   2.352   7.733  0.0335 -0.0316  0.0368
12159SOL    HW137055   2.264   2.355   7.735  0.0373  0.4030 -0.2260
12159SOL    HW237056   2.381   2.259   7.731 -0.4610 -0.1597 -2.1711
12160SOL     OW37057   4.128   0.519   7.843  0.4460  0.7395 -0.3808
12160SOL    HW137058   4.153   0.439   7.890  1.0647  0.7574 -0.6588
12160SOL    HW237059   4.209   0.571   7.841  0.7768  0.2365 -2.4606
12161SOL     OW37060   0.688   9.095   4.964 -0.0698 -0.1225  0.3470
12161SOL    HW137061   0.776   9.115   4.998 -0.4759  0.6016  1.0094
12161SOL    HW237062   0.669   9.008   4.998  0.9774 -0.9213 -1.0239
12162SOL     OW37063   2.237   9.671   8.930 -0.8609  0.0629  0.8447
12162SOL    HW137064   2.154   9.625   8.946 -1.6086  0.4484 -1.5285
12162SOL    HW237065   2.210   9.760   8.909  0.0776  0.0411 -0.5593
12163SOL     OW37066   1.268   2.367   8.396  0.0207  0.2686 -0.0545
12163SOL    HW137067   1.321   2.293   8.426 -0.2502  0.2277  0.3268
12163SOL    HW237068   1.332   2.426   8.356  0.0754 -0.7376 -1.5315
12164SOL     OW37069   7.830   5.466   0.003 -0.1534 -0.0192 -0.1383
12164SOL    HW137070   7.773   5.396  -0.028 -1.4361  1.0565 -0.3117
12164SOL    HW237071   7.799   5.485   0.091 -0.4901  0.9895 -0.4606
12165SOL     OW37072   1.771   2.670   6.504 -0.0905  0.4933  0.0464
12165SOL    HW137073   1.841   2.729   6.530  0.4807  0.2589 -0.8945
12165SOL    HW237074   1.709   2.727   6.458 -0.1374  0.5650  0.1965
12166SOL     OW37075   0.828   1.679   7.944 -0.5970 -0.0511  0.6163
12166SOL    HW137076   0.884   1.755   7.927  1.8500 -1.8655  0.2247
12166SOL    HW237077   0.786   1.699   8.029 -0.1641  1.7824  0.4403
12167SOL     OW37078   2.066   4.772   6.310 -0.2073 -0.0598 -0.0942
12167SOL    HW137079   2.068   4.699   6.248  0.3421  0.6360 -0.9349
12167SOL    HW237080   2.078   4.731   6.396 -0.8349 -1.0335 -0.4543
12168SOL     OW37081   2.481   9.571   5.810 -0.9393  0.2566 -0.1735
12168SOL    HW137082   2.435   9.564   5.894 -0.6570 -1.7923 -0.1321
12168SOL    HW237083   2.483   9.481   5.777  2.2888  0.3581 -0.5766
12169SOL     OW37084   7.180   8.155   6.745 -0.3466 -0.5430 -0.2024
12169SOL    HW137085   7.186   8.212   6.822  2.1656 -0.9519 -0.0180
12169SOL    HW237086   7.088   8.161   6.718 -0.8586  1.1175  1.6625
12170SOL     OW37087   5.325   4.020   7.040  0.5667  0.0150  0.2017
12170SOL    HW137088   5.345   4.080   6.968  2.6277 -0.6877  0.1177
12170SOL    HW237089   5.241   3.981   7.016  0.6319  0.6779 -1.2169
12171SOL     OW37090   6.162   4.297   8.067 -0.0906 -0.2850  0.1156
12171SOL    HW137091   6.255   4.322   8.072  0.2888 -1.7624  1.1023
12171SOL    HW237092   6.114   4.378   8.083  1.0275  0.5242 -0.5035
12172SOL     OW37093   3.615   7.496   7.711 -0.0536 -0.0859  0.0609
12172SOL    HW137094   3.653   7.543   7.637  2.0592  2.6640  2.6529
12172SOL    HW237095   3.521   7.513   7.704 -0.1226 -1.0992 -2.6524
12173SOL     OW37096   9.913   4.467   2.024  0.0345  0.0514  0.0703
12173SOL    HW137097   9.865   4.466   2.107  0.6003  0.8288  0.4216
12173SOL    HW237098  10.005   4.472   2.050  0.2395 -0.1358 -0.6036
12174SOL     OW37099   4.690   3.357   6.258  0.6402  0.0253 -0.4738
12174SOL    HW137100   4.622   3.393   6.200 -0.1219  0.0189  0.3886
12174SOL    HW237101   4.669   3.393   6.344  1.6493 -0.1167 -0.1608
12175SOL     OW37102   1.593   6.194   0.408  0.0947  0.1054 -0.1545
12175SOL    HW137103   1.646   6.139   0.350 -0.5498 -0.8749  0.1557
12175SOL    HW237104   1.558   6.262   0.351  0.4024 -0.1713 -0.6837
12176SOL     OW37105   6.227   4.747   5.815 -1.0151  0.1419 -0.0695
12176SOL    HW137106   6.161   4.765   5.748  0.3693 -0.3385 -1.6286
12176SOL    HW237107   6.311   4.757   5.770 -0.0502 -1.3668  1.2683
12177SOL     OW37108   2.675   2.565   2.479  0.1023 -0.6364  0.9276
12177SOL    HW137109   2.580   2.581   2.474 -0.0866 -2.1027 -1.1086
12177SOL    HW237110   2.705   2.626   2.547 -2.1280  0.6012  0.9162
12178SOL     OW37111   8.584   0.527   1.262  0.2733 -0.0383  0.1383
12178SOL    HW137112   8.588   0.563   1.174 -3.4256  0.0577 -0.1217
12178SOL    HW237113   8.597   0.433   1.250 -0.2689 -0.0342 -0.5183
12179SOL     OW37114   6.487   3.303   4.993 -0.5803 -0.0451  0.3344
12179SOL    HW137115   6.426   3.263   5.055  0.0115 -1.8669 -0.2231
12179SOL    HW237116   6.569   3.254   5.004  0.7027  2.0219  0.7183
12180SOL     OW37117   3.566   5.679   0.034 -0.1577 -0.1574 -0.1881
12180SOL    HW137118   3.551   5.772   0.048 -0.8598 -0.2930  0.0218
12180SOL    HW237119   3.487   5.637   0.069  0.3607 -0.8604  0.1568
12181SOL     OW37120   7.546   3.211   1.728 -0.0887 -0.1571 -0.6170
12181SOL    HW137121   7.483   3.191   1.798 -2.1178  1.3369 -1.9109
12181SOL    HW237122   7.603   3.277   1.766  0.1221 -0.8395  0.2812
12182SOL     OW37123   2.173   8.490   8.517 -0.1102 -0.2807  0.0810
12182SOL    HW137124   2.086   8.523   8.496  0.9763  2.4279 -0.5021
12182SOL    HW237125   2.208   8.459   8.433 -0.7563 -2.1895  0.4593
12183SOL     OW37126   5.592   8.493   0.807 -0.2902 -0.0444  0.2553
12183SOL    HW137127   5.684   8.488   0.779 -0.4433 -1.3109 -0.0907
12183SOL    HW237128   5.596   8.524   0.897  0.4795 -0.0651  0.2375
12184SOL     OW37129   1.746   0.948   2.321  0.3341 -0.5830 -0.5293
12184SOL    HW137130   1.665   0.955   2.270  1.9489  2.9572 -3.0886
12184SOL    HW237131   1.722   0.898   2.398 -4.0867 -0.3576 -1.4852
12185SOL     OW37132   3.612   5.825   2.151 -0.2935 -0.4076 -0.0756
12185SOL    HW137133   3.541   5.762   2.153  0.0265 -0.8012  2.2488
12185SOL    HW237134   3.683   5.783   2.199  0.5850  0.9838 -0.0889
12186SOL     OW37135   7.804   9.709   9.324 -1.3100  0.2016  0.0818
12186SOL    HW137136   7.803   9.639   9.260 -0.6511 -0.7305  1.0565
12186SOL    HW237137   7.849   9.781   9.280  0.5417 -0.9389 -0.0127
12187SOL     OW37138   9.495   9.895   8.098 -0.1628 -0.5061  0.2207
12187SOL    HW137139   9.551   9.969   8.074 -1.2235  0.1298 -0.3704
12187SOL    HW237140   9.555   9.820   8.102  0.8515  0.2915  0.3926
12188SOL     OW37141   5.673   0.971   7.982 -0.2737  0.1718 -0.1092
12188SOL    HW137142   5.617   0.939   7.911  1.6571  0.7714 -2.0120
12188SOL    HW237143   5.730   1.035   7.940 -0.3095  1.9991  2.4247
12189SOL     OW37144   4.331   1.313   2.188 -0.3806 -0.1310  0.4776
12189SOL    HW137145   4.242   1.291   2.161 -0.2707 -0.6632  0.5444
12189SOL    HW237146   4.326   1.319   2.284 -0.1785 -0.9226  0.5411
12190SOL     OW37147   3.184   3.849   4.902 -0.0095 -0.7097 -0.7739
12190SOL    HW137148   3.172   3.850   4.997  0.9375 -2.5414 -0.5910
12190SOL    HW237149   3.192   3.941   4.878  0.0059 -0.2205  0.9561
12191SOL     OW37150   0.101   5.049   8.785 -0.2154  0.1926 -0.1755
12191SOL    HW137151   0.069   4.984   8.723 -0.0820  0.2313 -0.2867
12191SOL    HW237152   0.185   5.014   8.815 -0.5346 -0.0866  0.3936
12192SOL     OW37153   5.287   1.793   1.403  0.3814  0.1619  0.3724
12192SOL    HW137154   5.303   1.737   1.479 -2.1899  0.4103  1.2105
12192SOL    HW237155   5.340   1.755   1.334 -0.9988 -3.2453  0.9690
12193SOL     OW37156   8.562   1.462   6.629  0.3162 -0.2188  0.2185
12193SOL    HW137157   8.596   1.539   6.675 -1.7024  0.2196  1.1259
12193SOL    HW237158   8.522   1.409   6.699  0.9317 -1.7021 -0.5066
12194SOL     OW37159   4.978   3.391   9.653 -0.3156 -0.3271 -0.0718
12194SOL    HW137160   4.965   3.316   9.712  0.6659  1.1715  2.1982
12194SOL    HW237161   5.058   3.370   9.605 -0.3786 -0.9780  0.0876
12195SOL     OW37162   2.776   0.092   8.375 -0.2385  0.7505 -0.0156
12195SOL    HW137163   2.853   0.138   8.340  0.1781 -0.7213 -1.1141
12195SOL    HW237164   2.811   0.032   8.440 -0.6340  1.0231  0.4599
12196SOL     OW37165   7.681   5.188   7.454  0.0900  0.2422  0.1321
12196SOL    HW137166   7.671   5.273   7.411 -1.9580 -0.6384 -1.2672
12196SOL    HW237167   7.640   5.199   7.539 -0.0026  0.6973  0.0306
12197SOL     OW37168   6.981   9.378   4.271  0.5261 -0.1127  0.2031
12197SOL    HW137169   6.966   9.406   4.362  1.0805 -0.1663  0.3169
12197SOL    HW237170   6.897   9.341   4.243  0.0427  0.8467  0.3468
12198SOL     OW37171   0.454   1.566   0.780 -0.0200  0.1078  0.4778
12198SOL    HW137172   0.382   1.590   0.839 -0.0069 -0.0392  0.5544
12198SOL    HW237173   0.479   1.478   0.808  0.0289  0.0633  0.2928
12199SOL     OW37174   6.850   9.119   9.485  0.2379  0.5050 -0.0057
12199SOL    HW137175   6.758   9.144   9.473  0.5309  0.5827 -2.9259
12199SOL    HW237176   6.896   9.202   9.497  0.0107  0.5159  0.8149
12200SOL     OW37177   9.408   4.697   2.032  0.0141  0.4189  0.0845
12200SOL    HW137178   9.389   4.781   1.991  0.7267  1.0973  1.1046
12200SOL    HW237179   9.381   4.708   2.123  1.2354 -0.0371  0.5145
12201SOL     OW37180   6.355   3.624   0.835  0.4807  0.2189 -0.0731
12201SOL    HW137181   6.364   3.705   0.885 -1.2427  0.9051 -0.7763
12201SOL    HW237182   6.310   3.564   0.894 -0.0112  0.4489 -0.2113
12202SOL     OW37183   3.105   1.252   1.743  0.0323  0.4104  0.0612
12202SOL    HW137184   3.098   1.253   1.647 -0.1111 -0.1601  0.0625
12202SOL    HW237185   3.020   1.284   1.773  0.2867  1.1523 -0.0087
12203SOL     OW37186   7.965   5.168   7.905  0.4022 -0.3237  1.0534
12203SOL    HW137187   7.873   5.184   7.884  0.3180 -1.8470  0.1889
12203SOL    HW237188   7.974   5.073   7.904  2.4412 -0.1730 -0.8850
12204SOL     OW37189   8.735   4.975   9.139  0.5010  0.0895  0.1103
12204SOL    HW137190   8.756   4.994   9.048 -0.4460  0.9297  0.0487
12204SOL    HW237191   8.763   4.885   9.153 -0.5130 -0.4810 -1.3809
12205SOL     OW37192   0.099   8.136   1.802  0.3840 -0.0509 -0.2856
12205SOL    HW137193   0.194   8.126   1.809  0.2722 -0.5655  0.7791
12205SOL    HW237194   0.072   8.067   1.741  0.4908 -1.2387  0.9717
12206SOL     OW37195   3.131   0.387   5.752 -0.2122  0.1067  0.7909
12206SOL    HW137196   3.162   0.467   5.795  0.8176 -1.2486  2.7520
12206SOL    HW237197   3.036   0.387   5.768 -0.1065  0.5473  1.4572
12207SOL     OW37198   3.108   2.306   0.724  0.1205  0.1120 -0.7986
12207SOL    HW137199   3.114   2.365   0.799  0.7355  1.3534 -1.8055
12207SOL    HW237200   3.156   2.227   0.753  0.0864  0.4439  0.2146
12208SOL     OW37201   4.632   5.495   2.679  0.2339  0.0760 -0.0732
12208SOL    HW137202   4.713   5.462   2.718  1.3663  2.0259 -0.6407
12208SOL    HW237203   4.563   5.468   2.740  1.2440 -1.9089  0.2615
12209SOL     OW37204   9.298   9.099   1.589 -0.2876  0.8614  0.2029
12209SOL    HW137205   9.384   9.057   1.591 -0.6640 -0.0355 -1.0812
12209SOL    HW237206   9.267   9.096   1.679  0.8431  0.8112  0.6033
12210SOL     OW37207   9.259   4.067   5.917  0.0159 -0.3864 -0.1193
12210SOL    HW137208   9.327   4.117   5.874 -0.4997  0.7153  0.3073
12210SOL    HW237209   9.187   4.065   5.854  0.0732 -0.7006 -0.1789
12211SOL     OW37210   9.350   0.848   2.545 -0.9104 -0.0022  0.5000
12211SOL    HW137211   9.296   0.896   2.483 -1.2519 -0.0399  0.7604
12211SOL    HW237212   9.330   0.889   2.630  0.3944  0.7966  0.4453
12212SOL     OW37213   7.840   4.271   7.962 -0.0833 -0.8337 -0.2900
12212SOL    HW137214   7.894   4.197   7.988 -1.2973 -1.6893 -0.0917
12212SOL    HW237215   7.763   4.265   8.019 -2.0612 -1.7908 -2.8802
12213SOL     OW37216   8.967   7.637   4.384  0.3504  0.3245  0.4512
12213SOL    HW137217   8.904   7.631   4.456 -1.1145  0.0183 -0.7784
12213SOL    HW237218   8.925   7.696   4.321  0.2374 -1.5729 -1.3756
12214SOL     OW37219   2.620   2.059   2.265 -0.1600  0.0719 -0.4892
12214SOL    HW137220   2.681   1.985   2.264  0.2157  0.2689  1.7157
12214SOL    HW237221   2.671   2.132   2.231  1.2616  0.4482  2.1485
12215SOL     OW37222   6.825   7.812   7.175 -0.1085 -0.4733  0.4646
12215SOL    HW137223   6.845   7.894   7.219  2.0940  0.2187 -1.5879
12215SOL    HW237224   6.892   7.751   7.206  0.3039 -0.5109 -0.4741
12216SOL     OW37225   0.147   1.077   6.061  0.1130  0.0552  0.4940
12216SOL    HW137226   0.223   1.134   6.046 -0.9500  1.5866  0.7922
12216SOL    HW237227   0.106   1.069   5.975 -0.9090  1.4602  0.8394
12217SOL     OW37228   4.920   3.770   7.703 -0.5266 -0.0134 -0.1698
12217SOL    HW137229   4.869   3.808   7.631 -0.9690  1.4170  0.8402
12217SOL    HW237230   4.932   3.843   7.764  0.0367 -1.1244  1.0912
12218SOL     OW37231   9.501   6.210   1.966 -0.2536  0.3191 -0.8938
12218SOL    HW137232   9.581   6.220   1.913  0.4490 -0.1193  0.0479
12218SOL    HW237233   9.497   6.290   2.018  0.5097 -0.3576  0.2570
12219SOL     OW37234   2.947   0.212   0.180 -0.2211  0.2857  0.8732
12219SOL    HW137235   2.869   0.180   0.226 -0.8105  0.5729  0.1003
12219SOL    HW237236   3.006   0.240   0.250  0.1694 -2.0717  1.5747
12220SOL     OW37237   9.740   6.235   4.952  0.0875 -0.0209  0.0178
12220SOL    HW137238   9.810   6.281   4.906  1.5501 -1.5624  0.6161
12220SOL    HW237239   9.782   6.158   4.990 -2.1622 -1.6217 -0.5310
12221SOL     OW37240   4.342   2.696   8.968  0.4245  0.0025  0.5947
12221SOL    HW137241   4.398   2.744   9.028  1.3390 -0.7791  0.3822
12221SOL    HW237242   4.257   2.692   9.013  1.0253 -0.3495  1.7228
12222SOL     OW37243   6.571   0.618   6.455  0.1296  0.5234 -0.0852
12222SOL    HW137244   6.519   0.697   6.469 -1.0968 -0.3337  0.3788
12222SOL    HW237245   6.507   0.547   6.455  1.3468 -0.6345  0.9761
12223SOL     OW37246   9.325   1.309   2.750  0.3628  0.0548  0.1685
12223SOL    HW137247   9.381   1.348   2.682  0.6002 -0.8234 -0.1570
12223SOL    HW237248   9.386   1.285   2.819  0.8296 -3.1353 -1.1904
12224SOL     OW37249   2.409   8.209   1.707 -0.4826  0.2871  0.2230
12224SOL    HW137250   2.318   8.230   1.685 -0.8122 -0.6409  0.6424
12224SOL    HW237251   2.409   8.203   1.803  0.1272  0.7098  0.2572
12225SOL     OW37252   7.282   9.181   7.905  0.5271  0.3093  0.3620
12225SOL    HW137253   7.344   9.109   7.893  1.1203  0.7542  0.6773
12225SOL    HW237254   7.300   9.241   7.833  0.6002  0.5315  0.5601
12226SOL     OW37255   2.318   0.817   2.446  0.0619 -0.0241  0.2477
12226SOL    HW137256   2.248   0.856   2.499  0.2255  1.9282 -0.9135
12226SOL    HW237257   2.279   0.736   2.412 -0.4788 -0.6612  2.2410
12227SOL     OW37258   5.720   7.945   4.331 -0.2625  0.8693  0.0731
12227SOL    HW137259   5.651   7.880   4.343  0.4125  0.3135  1.0440
12227SOL    HW237260   5.797   7.908   4.374  0.9592  1.0159 -1.8829
12228SOL     OW37261   6.118   5.510   3.013 -0.6485 -0.2698  0.5024
12228SOL    HW137262   6.137   5.603   3.027  0.4045 -0.5465  1.0146
12228SOL    HW237263   6.061   5.508   2.936 -0.4840  0.7797  0.3421
12229SOL     OW37264   4.982   0.308   5.291 -0.5106  0.0042 -0.9332
12229SOL    HW137265   4.968   0.324   5.384  1.7732 -0.3767 -0.4771
12229SOL    HW237266   4.949   0.386   5.248  0.4224  1.1737  0.3957
12230SOL     OW37267   6.924   5.850   0.898  0.0278  0.0652  0.7570
12230SOL    HW137268   6.935   5.900   0.979  0.6702  0.5573  0.3775
12230SOL    HW237269   6.979   5.773   0.911  1.7916  1.1359  0.0030
12231SOL     OW37270   1.893   3.592   8.523 -0.4300  0.0043  1.0456
12231SOL    HW137271   1.872   3.677   8.560 -0.6239  0.1409  0.6284
12231SOL    HW237272   1.809   3.560   8.488 -0.3400 -0.3153  1.1193
12232SOL     OW37273   5.712   3.890   0.980 -0.3153 -0.3275 -0.1271
12232SOL    HW137274   5.727   3.953   0.910 -0.1297  0.2640  0.4372
12232SOL    HW237275   5.646   3.829   0.944 -1.8651  1.2261 -0.0480
12233SOL     OW37276   4.576   9.712   8.425  0.2018  0.1414  0.2528
12233SOL    HW137277   4.529   9.653   8.484  1.6454 -1.5445 -0.2159
12233SOL    HW237278   4.556   9.800   8.458 -2.0766 -0.5604  0.9287
12234SOL     OW37279   3.905   9.616   7.945 -1.1357 -0.7958  0.1760
12234SOL    HW137280   3.841   9.566   7.896 -1.1039 -2.6965  1.9717
12234SOL    HW237281   3.903   9.579   8.033  0.5916  0.8164  0.9625
12235SOL     OW37282   7.173   1.884   1.379 -0.1903  0.5306  0.7538
12235SOL    HW137283   7.241   1.914   1.440  0.5960  0.2908  0.0168
12235SOL    HW237284   7.103   1.949   1.387  0.0873  0.7385  1.5844
12236SOL     OW37285   5.473   2.727   4.825  0.0217 -0.5666 -0.4174
12236SOL    HW137286   5.420   2.778   4.886 -0.8337 -0.3141 -1.3359
12236SOL    HW237287   5.482   2.784   4.749  1.2516 -0.7870 -0.4499
12237SOL     OW37288   9.167   3.337   1.991  0.4898  0.2213  0.2218
12237SOL    HW137289   9.247   3.348   2.042  0.3374 -1.7709  0.9935
12237SOL    HW237290   9.100   3.316   2.056 -0.1323 -0.4870 -0.6222
12238SOL     OW37291   5.660   9.599   3.175  0.2043  0.2808 -0.3558
12238SOL    HW137292   5.685   9.506   3.171  1.6523  0.5459  1.4156
12238SOL    HW237293   5.573   9.601   3.136  0.1981 -1.8049 -0.5930
12239SOL     OW37294   7.125   0.086   8.218  0.0417  0.0716  0.6441
12239SOL    HW137295   7.190   0.052   8.155  0.1951  0.5009  0.5645
12239SOL    HW237296   7.169   0.079   8.303  0.1570  0.2663  0.6025
12240SOL     OW37297   6.926   9.044   3.692  0.7337 -0.1146  0.3460
12240SOL    HW137298   6.978   9.012   3.766 -0.1775  2.2079  2.1198
12240SOL    HW237299   6.968   9.126   3.667 -0.1748  0.1531 -0.3496
12241SOL     OW37300   6.439   3.283   9.187  0.6559  0.3684  0.0695
12241SOL    HW137301   6.515   3.333   9.156  1.6110 -0.6105  0.7725
12241SOL    HW237302   6.402   3.336   9.257  1.5462  0.2034  0.6789
12242SOL     OW37303   4.016   0.363   3.045  0.1485  0.4094  0.5916
12242SOL    HW137304   3.926   0.351   3.015 -0.0429 -1.5931  1.8016
12242SOL    HW237305   4.070   0.319   2.979  0.5936  3.7650 -1.5405
12243SOL     OW37306   5.656   5.040   0.814  0.2590  0.3530 -0.1640
12243SOL    HW137307   5.637   4.971   0.751 -2.8929  0.3705  0.5750
12243SOL    HW237308   5.651   4.997   0.899 -0.1045  1.1740  0.2417
12244SOL     OW37309   0.988   9.830   9.936 -0.1327  0.2602  0.5661
12244SOL    HW137310   0.970   9.923   9.921  2.1520  0.6199 -0.3031
12244SOL    HW237311   0.983   9.790   9.849 -0.3790 -0.3058  0.8358
12245SOL     OW37312   7.248   6.220   6.801  0.0375  0.6727 -0.3158
12245SOL    HW137313   7.319   6.216   6.865 -0.7213 -0.5284  0.4902
12245SOL    HW237314   7.282   6.175   6.724  0.0417 -0.2124  0.1956
12246SOL     OW37315   2.044   9.650   8.278 -0.5192  0.2475  0.0475
12246SOL    HW137316   2.134   9.659   8.248 -0.7547 -0.7574 -1.0116
12246SOL    HW237317   2.033   9.720   8.343  0.6042  1.2103 -0.7702
12247SOL     OW37318   9.453   8.150   1.479 -0.7779  0.6518  0.6606
12247SOL    HW137319   9.395   8.104   1.540 -0.8130  0.4972  0.5136
12247SOL    HW237320   9.394   8.203   1.425 -0.7418  0.8307  0.7972
12248SOL     OW37321   1.695   9.500   7.239  0.2414  0.1703 -0.4286
12248SOL    HW137322   1.656   9.586   7.227 -0.9248 -0.5114 -1.9510
12248SOL    HW237323   1.675   9.476   7.329 -1.8651  0.3732 -0.7909
12249SOL     OW37324   6.758   3.456   4.990  0.3094  0.1041  0.1721
12249SOL    HW137325   6.700   3.383   5.010  0.0768  0.0936 -0.5197
12249SOL    HW237326   6.793   3.437   4.903  0.7906  0.4690  0.2789
12250SOL     OW37327   2.806   6.996   2.027 -0.0655 -0.6834  0.5956
12250SOL    HW137328   2.734   7.041   1.983  0.0357  0.5957  1.6957
12250SOL    HW237329   2.849   6.947   1.957 -1.3929 -0.6693 -0.2607
12251SOL     OW37330   0.159   4.569   5.565 -0.0548 -0.2644 -0.2067
12251SOL    HW137331   0.251   4.554   5.544 -0.2762  0.7145 -2.0660
12251SOL    HW237332   0.137   4.650   5.520 -2.7286 -2.2339 -2.8214
12252SOL     OW37333   9.059   3.685   2.326  1.0679 -0.4497 -0.1065
12252SOL    HW137334   9.001   3.699   2.251  0.4991 -0.0150  0.4030
12252SOL    HW237335   9.145   3.714   2.296  0.6065  0.8465 -0.2226
12253SOL     OW37336   7.761   7.735   5.062 -0.5151  0.1806  0.0640
12253SOL    HW137337   7.818   7.721   5.137  0.7182  0.5485 -0.7720
12253SOL    HW237338   7.677   7.759   5.100 -0.1403 -0.4288  1.3320
12254SOL     OW37339   8.915   0.627   8.945  0.1186 -0.7782 -0.3443
12254SOL    HW137340   8.931   0.656   9.034 -0.7208  1.0391 -0.7436
12254SOL    HW237341   8.865   0.698   8.905  0.4970 -1.5370 -2.2771
12255SOL     OW37342   4.993   2.062   0.441  0.0232 -0.1319 -0.7234
12255SOL    HW137343   4.919   2.053   0.380  0.5727  0.3306 -1.4748
12255SOL    HW237344   5.070   2.052   0.386  0.5370  0.8239 -0.1904
12256SOL     OW37345   9.567   0.720   0.842 -0.3543  0.2293  0.5493
12256SOL    HW137346   9.658   0.719   0.812 -0.2197  0.7781  0.9334
12256SOL    HW237347   9.538   0.629   0.832 -0.1356  0.2742 -0.6857
12257SOL     OW37348   7.926   2.300   0.125  0.0049  0.5232 -0.8623
12257SOL    HW137349   7.973   2.222   0.094  0.4760  0.4164  0.0625
12257SOL    HW237350   7.971   2.323   0.207 -0.1375  1.7610 -1.1179
12258SOL     OW37351   5.563   9.570   8.620  0.2585  0.1931  0.3202
12258SOL    HW137352   5.477   9.605   8.642  0.1441  0.1720 -0.0843
12258SOL    HW237353   5.612   9.570   8.703 -0.6993 -1.4129  0.9331
12259SOL     OW37354   6.327   0.472   0.198  0.6050  0.0850 -0.2447
12259SOL    HW137355   6.291   0.512   0.277 -0.0089  0.8316 -0.8869
12259SOL    HW237356   6.279   0.390   0.189  0.6755 -0.0044  0.1446
12260SOL     OW37357   9.203   4.285   5.680 -0.1569  0.0264  0.1285
12260SOL    HW137358   9.148   4.219   5.721  0.2940 -2.3909 -2.8134
12260SOL    HW237359   9.210   4.258   5.588  3.0500  2.1447 -0.4425
12261SOL     OW37360   1.863   2.282   7.353  0.0164  0.0923  0.3857
12261SOL    HW137361   1.851   2.190   7.330  0.3173  0.5560 -1.7883
12261SOL    HW237362   1.776   2.312   7.379 -0.2928 -0.5220  0.0778
12262SOL     OW37363   7.401   1.417   8.052 -0.3583  0.4080  0.0914
12262SOL    HW137364   7.418   1.396   7.960  0.0383 -1.2112  0.5062
12262SOL    HW237365   7.339   1.490   8.049  0.0613  0.7417 -1.4476
12263SOL     OW37366   4.717   7.161   5.664  0.0010 -0.0174  0.5766
12263SOL    HW137367   4.735   7.070   5.643  0.3877 -0.1445  1.4345
12263SOL    HW237368   4.803   7.203   5.666 -0.2838  0.9689 -2.3129
12264SOL     OW37369   2.495   8.198   9.297  0.3414 -0.3964 -0.3373
12264SOL    HW137370   2.458   8.148   9.369  0.9341  2.2231  1.9750
12264SOL    HW237371   2.431   8.189   9.226 -0.0050 -3.5116  0.2334
12265SOL     OW37372   9.519   4.605   6.530  0.3252  0.0973 -0.0773
12265SOL    HW137373   9.542   4.517   6.563 -1.6768 -0.3108  0.3486
12265SOL    HW237374   9.467   4.588   6.452  1.3363  0.9819 -0.9700
12266SOL     OW37375   9.313   5.784   2.110 -0.4108 -0.1461  0.1879
12266SOL    HW137376   9.351   5.698   2.088 -1.3582 -1.0381  1.8769
12266SOL    HW237377   9.222   5.765   2.132 -1.0798  1.5505 -0.8931
12267SOL     OW37378   5.059   8.201   3.127  0.2614 -0.5559 -0.1355
12267SOL    HW137379   5.063   8.106   3.114  1.7190 -0.7221  1.2091
12267SOL    HW237380   5.149   8.226   3.149  0.4464  1.5468 -2.8026
12268SOL     OW37381   5.520   6.610   5.414 -1.0398  0.6462 -0.2800
12268SOL    HW137382   5.499   6.586   5.324  0.0743  1.7245 -0.8565
12268SOL    HW237383   5.530   6.705   5.412  1.1633  0.4826  0.4986
12269SOL     OW37384   2.844   1.032   8.456  0.4659  0.0287 -0.4327
12269SOL    HW137385   2.859   1.101   8.520  0.5334  2.2569 -2.7042
12269SOL    HW237386   2.932   1.003   8.430  0.4707 -2.2620  1.7138
12270SOL     OW37387   9.825   6.109   0.686  0.1089 -0.4514  0.1668
12270SOL    HW137388   9.807   6.027   0.733 -0.0631 -0.4413  0.1171
12270SOL    HW237389   9.841   6.173   0.756  1.7063 -0.8500  0.2098
12271SOL     OW37390   0.880   0.147   6.604  0.6610 -0.0529 -0.3991
12271SOL    HW137391   0.823   0.120   6.675 -0.4788 -0.6254 -1.4900
12271SOL    HW237392   0.949   0.080   6.602  1.2708  0.5035  0.7569
12272SOL     OW37393   8.129   0.964   9.649  0.2980  0.3241 -0.1063
12272SOL    HW137394   8.208   0.958   9.703 -0.6178 -1.0690  1.1627
12272SOL    HW237395   8.136   1.049   9.606  1.5095  1.1339  1.5590
12273SOL     OW37396   9.891   8.411   6.306 -0.3676 -0.3954  0.1157
12273SOL    HW137397   9.863   8.364   6.385  1.3690 -1.9724 -0.1475
12273SOL    HW237398   9.964   8.466   6.336  0.4958 -1.2295 -0.4283
12274SOL     OW37399   9.074   8.501   9.604 -0.2827  0.2321  0.1646
12274SOL    HW137400   9.143   8.489   9.670 -0.5839 -0.2687  0.3858
12274SOL    HW237401   9.008   8.436   9.626 -0.7623  0.6112 -0.1408
12275SOL     OW37402   0.247   5.626   1.829 -0.1039  0.4869  0.1698
12275SOL    HW137403   0.296   5.552   1.793  0.5292  0.0018  1.9266
12275SOL    HW237404   0.232   5.684   1.754 -1.8531 -2.0334 -1.5572
12276SOL     OW37405   2.891   2.797   4.835 -0.1044 -0.0864 -0.2779
12276SOL    HW137406   2.922   2.823   4.922 -2.0105  0.5025  0.2853
12276SOL    HW237407   2.932   2.712   4.819  0.1736 -0.2777  1.2684
12277SOL     OW37408   0.349   3.036   6.568 -0.0976 -0.2946  0.3145
12277SOL    HW137409   0.358   3.009   6.477 -0.4910 -0.9401  0.4654
12277SOL    HW237410   0.367   3.130   6.567 -1.5500  0.0118 -0.6708
12278SOL     OW37411   4.299   3.631   4.847 -0.3735 -1.3292  0.2901
12278SOL    HW137412   4.387   3.630   4.809 -0.2453 -3.5905  0.4830
12278SOL    HW237413   4.250   3.692   4.792  0.5305 -2.3922 -1.8196
12279SOL     OW37414   0.891   3.387   6.260 -0.1618 -0.1694 -0.1132
12279SOL    HW137415   0.944   3.311   6.284 -0.3384 -0.2579 -0.0021
12279SOL    HW237416   0.885   3.384   6.165 -0.3309 -0.4024 -0.0952
12280SOL     OW37417   0.075   0.254   7.591  0.6662 -0.1954  0.5081
12280SOL    HW137418   0.059   0.342   7.624  0.3849  0.4704 -1.2724
12280SOL    HW237419  -0.011   0.220   7.570  0.8127 -0.7030  0.7145
12281SOL     OW37420   4.287   1.388   2.917  0.0639 -0.0451  0.0008
12281SOL    HW137421   4.276   1.308   2.967 -0.1884 -0.4789 -0.7280
12281SOL    HW237422   4.321   1.452   2.979  0.5083 -0.7919  0.5289
12282SOL     OW37423   1.850   1.449   6.745 -0.3917 -0.3692 -0.3868
12282SOL    HW137424   1.817   1.371   6.700  0.1672  0.0743 -1.5959
12282SOL    HW237425   1.780   1.472   6.807 -0.5547 -1.8341  0.0131
12283SOL     OW37426   4.606   5.773   5.706  0.5911 -0.0451  0.2674
12283SOL    HW137427   4.694   5.745   5.679  0.1236 -1.1935 -0.1097
12283SOL    HW237428   4.606   5.867   5.689  2.0944  0.1774  1.2524
12284SOL     OW37429   9.384   0.722   8.245  0.3998 -0.4595 -0.3173
12284SOL    HW137430   9.311   0.661   8.233 -0.4976  0.4161  0.4589
12284SOL    HW237431   9.414   0.706   8.334 -2.0390  2.3776  1.2294
12285SOL     OW37432   2.834   7.104   1.149  0.5334  0.1456  0.5552
12285SOL    HW137433   2.776   7.037   1.112 -0.7377  1.1471  0.6806
12285SOL    HW237434   2.913   7.056   1.175  0.6370 -0.9160 -1.5517
12286SOL     OW37435   6.920   2.851   4.749  0.4975  0.1254  0.2016
12286SOL    HW137436   6.952   2.941   4.761  3.6498 -0.8486 -0.0155
12286SOL    HW237437   6.891   2.849   4.658 -0.3508  1.1132  0.4311
12287SOL     OW37438   9.419   4.562   0.284 -0.1188 -0.4215 -0.0040
12287SOL    HW137439   9.420   4.569   0.188  1.5585 -2.6956 -0.2432
12287SOL    HW237440   9.429   4.652   0.314  0.7624  0.2272 -2.0141
12288SOL     OW37441   0.146   9.832   6.913  0.0770 -0.1522 -0.2648
12288SOL    HW137442   0.125   9.887   6.989  0.0847 -0.6398  0.0935
12288SOL    HW237443   0.235   9.802   6.930  0.2422  0.0950 -0.6881
12289SOL     OW37444   8.009   7.340   0.108 -0.5832  0.0706  0.1039
12289SOL    HW137445   7.990   7.311   0.019  1.8252  0.1303 -0.5207
12289SOL    HW237446   8.075   7.278   0.139  0.1073  1.2468  1.0693
12290SOL     OW37447   6.539   9.187   0.130  0.6252 -0.4227  0.3455
12290SOL    HW137448   6.477   9.200   0.202  2.8925 -0.1393  2.3797
12290SOL    HW237449   6.572   9.274   0.110 -0.7724 -0.3274 -1.9310
12291SOL     OW37450   3.094   6.863   7.981  0.0045  0.1559  0.4640
12291SOL    HW137451   3.030   6.919   7.938  1.5029  1.9686  0.4742
12291SOL    HW237452   3.042   6.796   8.025 -1.6926 -0.4300 -2.2226
12292SOL     OW37453   7.521   4.081   5.739 -0.2268  0.4316  0.3019
12292SOL    HW137454   7.595   4.108   5.792  0.1017 -1.2465  0.7724
12292SOL    HW237455   7.466   4.159   5.731  1.2980  1.5570  0.4071
12293SOL     OW37456   8.115   3.331   7.482  0.8540 -0.5047 -0.0386
12293SOL    HW137457   8.038   3.286   7.517  1.0189 -0.2918  0.6052
12293SOL    HW237458   8.129   3.290   7.396  0.2425 -0.7933 -0.0107
12294SOL     OW37459   6.951   5.179   6.590  0.1888 -0.7489  0.2110
12294SOL    HW137460   6.957   5.269   6.558 -1.3562 -0.2335  1.2307
12294SOL    HW237461   6.872   5.144   6.548  1.6186 -2.2186 -1.4264
12295SOL     OW37462   2.935   1.107   4.459 -0.0979  0.4541  0.7881
12295SOL    HW137463   3.008   1.046   4.470  1.0218  1.5231 -0.3474
12295SOL    HW237464   2.900   1.119   4.547  0.0409 -1.3439  1.1140
12296SOL     OW37465   6.404   4.767   5.371 -0.2364  0.2670 -0.0510
12296SOL    HW137466   6.425   4.859   5.353 -1.7752  0.5897 -0.3524
12296SOL    HW237467   6.489   4.725   5.384  0.4966  1.7599  0.2447
12297SOL     OW37468   1.782   2.170   0.833  0.5277 -0.0562 -0.1355
12297SOL    HW137469   1.817   2.254   0.804  1.4878 -0.4671 -0.1965
12297SOL    HW237470   1.762   2.183   0.926  1.7657 -0.0885  0.1516
12298SOL     OW37471   1.342   1.628   7.778  0.3341  0.0108 -0.2123
12298SOL    HW137472   1.370   1.591   7.862 -1.0534  2.5258  1.4641
12298SOL    HW237473   1.248   1.608   7.773  0.0001  1.5058 -0.2343
12299SOL     OW37474   0.318   1.189   1.558 -0.1380  0.0758 -0.4108
12299SOL    HW137475   0.316   1.109   1.611  2.4336  0.7951  0.9793
12299SOL    HW237476   0.410   1.215   1.558 -0.6781  2.2773 -2.0187
12300SOL     OW37477   5.794   5.763   5.955 -0.0066  0.2222  0.5607
12300SOL    HW137478   5.834   5.830   5.899  0.0315 -0.0623  0.2475
12300SOL    HW237479   5.868   5.714   5.991  0.2079  2.4090  3.4607
12301SOL     OW37480   4.063   5.356   1.016  0.1565 -0.0616 -0.1572
12301SOL    HW137481   4.012   5.286   0.974  1.3289 -1.3015  0.4142
12301SOL    HW237482   4.055   5.430   0.956  1.1629 -1.5382 -2.2480
12302SOL     OW37483   2.477   9.665   1.279 -0.1339 -0.4690  0.6649
12302SOL    HW137484   2.401   9.641   1.227  0.3180 -0.4609 -0.0197
12302SOL    HW237485   2.446   9.665   1.369 -0.8307 -0.9053  0.4330
12303SOL     OW37486   7.422   4.923   8.485 -0.1412 -0.1083 -0.4556
12303SOL    HW137487   7.404   4.881   8.401  0.2243 -0.7102 -0.2377
12303SOL    HW237488   7.485   4.865   8.528  0.2169  0.5638 -0.0633
12304SOL     OW37489   1.075   8.202   3.978 -0.0181 -0.0903 -0.1018
12304SOL    HW137490   0.981   8.219   3.984  0.1382  0.6564  0.2964
12304SOL    HW237491   1.102   8.247   3.898  0.1640  0.4792  0.2752
12305SOL     OW37492   4.372   5.808   7.613  0.1003  0.2365 -0.0075
12305SOL    HW137493   4.451   5.758   7.632  1.3900  2.7336  1.7731
12305SOL    HW237494   4.305   5.768   7.669  0.8839 -0.0720  0.7417
12306SOL     OW37495   0.936   2.928   3.211  0.0606  0.1915 -0.1512
12306SOL    HW137496   0.853   2.912   3.166 -0.0573 -0.1039  0.1700
12306SOL    HW237497   0.913   2.982   3.286  0.2635  0.7120 -0.4554
12307SOL     OW37498   2.769   6.609   1.067 -0.0890  0.0849 -0.2691
12307SOL    HW137499   2.703   6.619   1.135  0.0767  0.1705 -0.1193
12307SOL    HW237500   2.747   6.526   1.025 -0.6042  0.3700 -0.5687
12308SOL     OW37501   7.280   5.615   9.348  0.2744  0.3675 -0.5296
12308SOL    HW137502   7.311   5.620   9.438 -1.0638  0.5465 -0.0591
12308SOL    HW237503   7.347   5.661   9.297  0.3053  1.6148  0.5709
12309SOL     OW37504   4.332   8.418   6.778 -0.2273  0.3791  0.4995
12309SOL    HW137505   4.367   8.452   6.860  0.8925  1.4881 -0.4194
12309SOL    HW237506   4.395   8.443   6.712 -0.9770 -0.7403 -0.6884
12310SOL     OW37507   4.642   2.465   9.877 -0.2213 -0.6380  0.4185
12310SOL    HW137508   4.728   2.426   9.859  0.5605  1.4115 -0.6322
12310SOL    HW237509   4.642   2.481   9.971 -0.1760 -2.1875  0.7103
12311SOL     OW37510   9.955   3.051   7.505 -0.4123 -0.4883  0.2043
12311SOL    HW137511   9.988   3.046   7.415  0.1272 -0.0302  0.3693
12311SOL    HW237512   9.962   2.962   7.538  0.9857 -0.3627  0.3340
12312SOL     OW37513   1.743   6.405   1.247 -0.3510  0.3299  0.0441
12312SOL    HW137514   1.814   6.346   1.222 -0.7175 -0.0388 -0.1332
12312SOL    HW237515   1.772   6.491   1.216 -0.0081  0.1747 -0.0798
12313SOL     OW37516   3.938   6.765   6.857  0.3795  0.2755  0.0375
12313SOL    HW137517   3.926   6.753   6.952 -2.7424 -1.8147 -0.5014
12313SOL    HW237518   4.032   6.753   6.844  0.8983  0.4970  2.8394
12314SOL     OW37519   2.616   7.510   0.312 -0.2067 -0.2601 -0.4930
12314SOL    HW137520   2.538   7.488   0.363  1.1424 -0.3709  1.6487
12314SOL    HW237521   2.659   7.426   0.297 -0.3717 -0.1770 -1.4828
12315SOL     OW37522   3.895   5.167   0.874 -0.4256 -0.3034  0.3295
12315SOL    HW137523   3.878   5.135   0.786 -0.8100 -0.6702  0.5340
12315SOL    HW237524   3.830   5.123   0.929 -0.3104  0.0612  0.7676
12316SOL     OW37525   7.916   1.709   6.564 -0.2182 -0.4025  0.5176
12316SOL    HW137526   7.968   1.695   6.485  0.6226  0.7348  0.8338
12316SOL    HW237527   7.867   1.628   6.576  0.2156 -0.8710 -0.7436
12317SOL     OW37528   4.927   3.383   3.363 -0.2642  0.0677  0.1192
12317SOL    HW137529   4.904   3.383   3.456 -1.5941  1.1506 -0.1855
12317SOL    HW237530   5.004   3.439   3.357  0.0096 -0.2474  0.5929
12318SOL     OW37531   4.648   5.363   0.770  0.2907 -0.5575 -0.2693
12318SOL    HW137532   4.645   5.290   0.709  0.2835 -0.1747 -0.7326
12318SOL    HW237533   4.591   5.429   0.732  0.5184 -0.1976 -0.0027
12319SOL     OW37534   8.384   6.769   9.081 -0.0326  0.3418 -0.0823
12319SOL    HW137535   8.468   6.812   9.101  0.2509 -0.4538  0.4818
12319SOL    HW237536   8.404   6.708   9.010 -0.7244  2.0681 -1.8505
12320SOL     OW37537   4.970   8.015   8.340 -0.0008  0.3342 -0.1478
12320SOL    HW137538   5.021   8.020   8.420  1.6501 -0.4588 -1.1058
12320SOL    HW237539   4.879   8.014   8.370  0.5343  1.0966  1.6423
12321SOL     OW37540   4.962   9.006   3.207  0.3529 -0.3728  0.0332
12321SOL    HW137541   4.939   9.065   3.278  0.6816  0.4525 -0.5175
12321SOL    HW237542   4.884   8.954   3.191 -0.2720  0.5792 -0.0921
12322SOL     OW37543   0.396   1.241   3.710 -0.2027 -0.3168  0.0493
12322SOL    HW137544   0.332   1.275   3.647 -0.1336 -1.6304 -0.7838
12322SOL    HW237545   0.384   1.295   3.788  1.4987  3.1901 -1.8561
12323SOL     OW37546   9.660   5.524   4.624 -0.0592  0.4112  0.8766
12323SOL    HW137547   9.609   5.550   4.547  1.8806 -1.3837 -1.1784
12323SOL    HW237548   9.594   5.507   4.691 -1.8550  1.9566 -0.3706
12324SOL     OW37549   0.184   0.049   9.567  0.3578 -0.1074  0.1064
12324SOL    HW137550   0.149   0.130   9.604  0.3322 -0.0562 -0.0297
12324SOL    HW237551   0.145  -0.020   9.621  2.8514  0.0660  2.3066
12325SOL     OW37552   6.137   4.818   2.146  0.7159 -0.1744 -0.6689
12325SOL    HW137553   6.123   4.757   2.219 -1.6759  1.7469  0.6127
12325SOL    HW237554   6.051   4.830   2.106  0.9938  2.4491 -0.7116
12326SOL     OW37555   4.228   1.357   8.701  0.1436 -0.6517  0.7124
12326SOL    HW137556   4.284   1.432   8.718 -0.4468 -0.4612  1.8686
12326SOL    HW237557   4.182   1.379   8.620 -0.9200  0.7813  1.6796
12327SOL     OW37558   9.595   7.295   0.433  0.3371  0.4046  0.1463
12327SOL    HW137559   9.607   7.362   0.500 -1.4687 -0.3366  1.2881
12327SOL    HW237560   9.596   7.212   0.482 -1.4417 -0.1290 -0.6328
12328SOL     OW37561   1.595   0.702   3.787 -0.0757  0.5614  0.2506
12328SOL    HW137562   1.545   0.634   3.832  2.2824 -0.2689  1.7950
12328SOL    HW237563   1.666   0.724   3.847  1.1138  2.0853 -1.5846
12329SOL     OW37564   6.740   8.864   0.553 -0.0767  0.1779  0.2030
12329SOL    HW137565   6.690   8.920   0.494 -0.2095 -0.0645  0.0832
12329SOL    HW237566   6.692   8.781   0.554  2.2997 -1.4423 -2.9407
12330SOL     OW37567   0.169   6.223   0.398 -0.0081 -0.2285 -0.7802
12330SOL    HW137568   0.165   6.312   0.363 -1.2301 -0.6273 -1.7262
12330SOL    HW237569   0.252   6.219   0.446  0.9684  0.8441 -2.3048
12331SOL     OW37570   3.635   0.725   7.610  0.4952  0.1913 -0.4155
12331SOL    HW137571   3.704   0.742   7.674 -0.2546  0.0886  0.4404
12331SOL    HW237572   3.634   0.630   7.601  0.7051  0.2145 -0.7093
12332SOL     OW37573   1.714   9.123   4.399 -0.4266  0.3457  0.6905
12332SOL    HW137574   1.624   9.149   4.380 -0.0896  1.4122  0.5075
12332SOL    HW237575   1.756   9.202   4.431  0.5526 -0.0529  0.4387
12333SOL     OW37576   1.211   8.324   2.435  0.5708  1.0958 -0.4864
12333SOL    HW137577   1.156   8.277   2.498  0.4408 -0.1766 -1.4969
12333SOL    HW237578   1.154   8.390   2.397  0.2578  0.9624 -0.2532
12334SOL     OW37579   9.744   5.699   8.274 -0.4379  0.2770 -0.5162
12334SOL    HW137580   9.752   5.776   8.216  0.9721  0.7575  0.2782
12334SOL    HW237581   9.805   5.717   8.346 -1.7133 -0.5894  0.8261
12335SOL     OW37582   2.127   8.290   2.288  0.3213 -0.2378 -0.1839
12335SOL    HW137583   2.183   8.273   2.364 -0.2763 -1.2816  0.0510
12335SOL    HW237584   2.039   8.300   2.325 -0.0639 -1.2902 -0.7643
12336SOL     OW37585   7.538   7.350   2.098 -0.5592  0.1124  0.0169
12336SOL    HW137586   7.513   7.308   2.016 -4.6173 -0.0250  1.1035
12336SOL    HW237587   7.590   7.425   2.071  0.9675 -1.6387 -2.3921
12337SOL     OW37588   1.135   3.071   9.793  0.2765  0.5615  0.3919
12337SOL    HW137589   1.210   3.090   9.848  0.4411 -0.0882  0.4016
12337SOL    HW237590   1.127   2.975   9.795 -1.8158  0.7050  2.0907
12338SOL     OW37591   6.853   4.448   7.275 -0.3024  0.1115 -0.1446
12338SOL    HW137592   6.821   4.536   7.295 -0.0072  0.3551 -0.7052
12338SOL    HW237593   6.920   4.431   7.342 -2.3747 -0.8945  1.8001
12339SOL     OW37594   3.015   6.477   0.811  0.3564  0.1435  0.1211
12339SOL    HW137595   3.090   6.443   0.860  0.3492  0.4316  0.3332
12339SOL    HW237596   3.043   6.476   0.720  0.3123 -0.5463  0.1122
12340SOL     OW37597   6.066   4.251   5.472 -0.2637 -1.0397  0.0049
12340SOL    HW137598   6.074   4.173   5.417 -1.1003 -1.2893  0.2274
12340SOL    HW237599   5.975   4.252   5.499 -0.4479  0.4250 -0.5900
12341SOL     OW37600   5.382   9.262   1.240  0.8228  0.1272  0.3042
12341SOL    HW137601   5.383   9.200   1.167  0.4989 -2.0380  1.9986
12341SOL    HW237602   5.351   9.210   1.314 -2.4161  3.0733  1.2686
12342SOL     OW37603   6.652   2.124   3.458 -0.4738 -0.4287  0.4724
12342SOL    HW137604   6.628   2.160   3.543 -0.2868  2.2341 -0.4887
12342SOL    HW237605   6.569   2.115   3.411 -0.3949  0.5679  0.1043
12343SOL     OW37606   9.017   3.097   8.817 -0.1281 -0.1493 -0.2013
12343SOL    HW137607   9.046   3.174   8.769 -0.1132  0.0201  0.0775
12343SOL    HW237608   9.059   3.104   8.902 -1.4068  0.3979  0.4212
12344SOL     OW37609   5.139   0.682   8.386  0.6372 -0.1958 -0.3507
12344SOL    HW137610   5.153   0.644   8.473  0.0841  0.0543 -0.1447
12344SOL    HW237611   5.210   0.646   8.332  1.6581  0.5142  0.4733
12345SOL     OW37612   3.493   3.572   8.488  0.3386  0.4960  0.0957
12345SOL    HW137613   3.488   3.635   8.561 -0.6037  0.1380  0.3595
12345SOL    HW237614   3.420   3.596   8.431  1.5934  1.3273 -1.2167
12346SOL     OW37615   1.130   1.382   9.598  0.6912  0.3775  0.1299
12346SOL    HW137616   1.132   1.477   9.610  0.2647  0.3012  0.8378
12346SOL    HW237617   1.220   1.360   9.572  1.1263  0.8233  1.1951
12347SOL     OW37618   2.668   8.758   7.251 -0.2735  0.1247 -0.1424
12347SOL    HW137619   2.718   8.679   7.228 -1.2411 -0.3434 -0.7143
12347SOL    HW237620   2.659   8.753   7.346 -1.9675 -1.5124 -0.3365
12348SOL     OW37621   4.077   9.092   1.417 -0.2196 -0.0031  0.5087
12348SOL    HW137622   4.158   9.134   1.446 -0.2866  0.9213 -0.5689
12348SOL    HW237623   4.078   9.102   1.321 -2.0971  0.9551  0.5534
12349SOL     OW37624   5.518   9.747   0.476 -0.3418 -0.3926 -0.0020
12349SOL    HW137625   5.452   9.815   0.478  0.1297  0.0676  0.3226
12349SOL    HW237626   5.580   9.774   0.408  0.7974  0.4447  1.3056
12350SOL     OW37627   8.080   7.370   8.802 -0.1836  0.4484 -0.4866
12350SOL    HW137628   8.075   7.458   8.839  0.9401 -0.3621  1.7667
12350SOL    HW237629   8.159   7.370   8.748 -1.2137  1.3121 -2.0686
12351SOL     OW37630   0.474   3.784   0.973  0.3696 -0.0577 -0.1530
12351SOL    HW137631   0.468   3.828   1.058  3.5826  1.7731 -0.6865
12351SOL    HW237632   0.493   3.855   0.911 -2.0545 -1.3243 -2.5026
12352SOL     OW37633   6.229   0.218   0.335 -0.1629 -0.5424  0.0733
12352SOL    HW137634   6.137   0.195   0.349  0.2229 -3.1426 -1.0322
12352SOL    HW237635   6.277   0.169   0.402  0.5835 -1.6711 -1.2238
12353SOL     OW37636   6.551   8.801   4.498  0.0830 -0.0368  0.2975
12353SOL    HW137637   6.499   8.828   4.574 -0.0278 -1.1773  0.6336
12353SOL    HW237638   6.510   8.846   4.424 -1.7367 -1.3017  0.4807
12354SOL     OW37639   2.682   9.662   3.468 -0.0454 -0.4046  0.3316
12354SOL    HW137640   2.597   9.634   3.503  0.4487 -0.5484  1.4645
12354SOL    HW237641   2.661   9.700   3.383 -0.8591 -3.3503 -0.9024
12355SOL     OW37642   1.476   7.082   6.012  0.2091 -0.4176  0.1622
12355SOL    HW137643   1.428   7.003   5.988  0.5067 -0.2937 -0.8739
12355SOL    HW237644   1.542   7.092   5.944 -1.5206  2.2083 -1.3155
12356SOL     OW37645   9.261   2.395   8.487  0.4076 -0.1088  0.1668
12356SOL    HW137646   9.196   2.465   8.480  0.8074  0.2881  0.3794
12356SOL    HW237647   9.219   2.319   8.448  0.7042  0.7672 -2.0451
12357SOL     OW37648   9.391   5.214   1.220  0.3584 -0.2222 -0.2347
12357SOL    HW137649   9.333   5.139   1.210 -0.2649  0.1509  0.4625
12357SOL    HW237650   9.476   5.184   1.186 -0.1667 -0.8602 -1.0232
12358SOL     OW37651   2.782   0.124   1.634  0.0292 -0.3060  0.3278
12358SOL    HW137652   2.859   0.170   1.667 -0.9038  0.9351  0.8749
12358SOL    HW237653   2.716   0.136   1.703 -0.9741 -0.4129 -0.5853
12359SOL     OW37654   7.481   6.904   3.760 -0.3121  0.3745  0.4891
12359SOL    HW137655   7.449   6.932   3.674 -1.4816 -0.0168  0.7843
12359SOL    HW237656   7.563   6.857   3.741 -1.1204 -0.6831 -0.5295
12360SOL     OW37657   5.836   4.732   5.745 -0.1477  0.1407 -0.2315
12360SOL    HW137658   5.780   4.796   5.700 -0.2216 -1.8465 -3.3219
12360SOL    HW237659   5.774   4.666   5.779 -0.0236  1.2223  2.2733
12361SOL     OW37660   3.233   9.675   3.411 -0.0672  0.2073 -0.1472
12361SOL    HW137661   3.179   9.597   3.427 -1.9632  1.5339  0.2191
12361SOL    HW237662   3.249   9.710   3.499  0.5980  0.3697 -0.3296
12362SOL     OW37663   0.907   0.235   9.082  0.0752 -0.8152 -0.1731
12362SOL    HW137664   0.967   0.160   9.082 -0.0644 -0.9330 -0.6802
12362SOL    HW237665   0.892   0.253   8.990  3.1270  2.3237 -0.2571
12363SOL     OW37666   9.207   2.394   3.766  0.2436 -0.1197 -0.2038
12363SOL    HW137667   9.220   2.487   3.787 -0.0425 -0.0854 -0.1705
12363SOL    HW237668   9.191   2.393   3.672 -0.0080 -0.1050 -0.1630
12364SOL     OW37669   3.610   8.820   1.356  0.1079  0.3732 -0.0581
12364SOL    HW137670   3.542   8.817   1.423  1.2113 -0.4540  1.0712
12364SOL    HW237671   3.562   8.816   1.273 -1.2733  1.1686  0.6613
12365SOL     OW37672   0.438   7.255   0.156  0.6625 -0.3696  0.4632
12365SOL    HW137673   0.490   7.178   0.181 -0.1383 -1.7125 -1.6785
12365SOL    HW237674   0.488   7.296   0.087  0.6685  0.5605  1.0098
12366SOL     OW37675   8.523   0.055   0.336  0.0874  0.3710  0.4503
12366SOL    HW137676   8.573   0.055   0.418 -0.1510 -1.1235  0.6250
12366SOL    HW237677   8.577   0.005   0.275  0.3663  1.6625 -0.3998
12367SOL     OW37678   8.786   8.028   1.542 -0.1307  0.1810 -0.2700
12367SOL    HW137679   8.750   8.014   1.629  0.4960  1.6563  0.2572
12367SOL    HW237680   8.709   8.044   1.487 -0.4075  2.5773  0.6947
12368SOL     OW37681   9.041   3.481   6.954 -0.1180 -0.0499 -0.5492
12368SOL    HW137682   9.082   3.501   6.870 -0.2003 -2.0025 -1.1064
12368SOL    HW237683   9.105   3.508   7.020  0.2747  0.7651 -1.2469
12369SOL     OW37684   4.511   7.217   0.527  0.1393  0.1610  0.1036
12369SOL    HW137685   4.500   7.138   0.474 -0.0931  1.1180 -1.3402
12369SOL    HW237686   4.596   7.206   0.570  0.7346 -0.2920 -1.1380
12370SOL     OW37687   8.532   9.078   7.421  0.1192 -0.4640  0.2043
12370SOL    HW137688   8.501   9.050   7.335 -0.7502  0.4068  0.1994
12370SOL    HW237689   8.607   9.135   7.403 -0.6904  0.5573 -0.0809
12371SOL     OW37690   6.503   4.357   5.999  0.4229  0.2031 -0.4411
12371SOL    HW137691   6.577   4.299   5.981  0.0296 -0.2141 -0.7266
12371SOL    HW237692   6.526   4.439   5.956  1.4119  0.5840  0.7338
12372SOL     OW37693   1.425   3.996   5.720  0.2035 -0.4312  0.2525
12372SOL    HW137694   1.492   3.929   5.739  0.4653 -0.2793 -0.1161
12372SOL    HW237695   1.354   3.948   5.678  0.3183 -0.5069  0.1436
12373SOL     OW37696   5.695   8.324   1.656  0.2003  0.1652  0.7210
12373SOL    HW137697   5.727   8.293   1.741 -0.2912 -1.5951  0.3052
12373SOL    HW237698   5.600   8.310   1.659  0.1151  0.5262  0.0494
12374SOL     OW37699   9.278   9.194   2.058  0.1584  0.2895  0.7738
12374SOL    HW137700   9.207   9.161   2.004 -0.5665 -0.7533  2.2880
12374SOL    HW237701   9.271   9.289   2.052 -1.4577  0.2113  0.9958
12375SOL     OW37702   2.513   0.893   7.620 -0.2059  0.2396  0.4921
12375SOL    HW137703   2.483   0.850   7.700 -1.8038  1.3603  0.5483
12375SOL    HW237704   2.454   0.968   7.609  1.8335  1.8904 -0.1005
12376SOL     OW37705   4.551   2.474   6.918  0.8166  0.2240  0.4127
12376SOL    HW137706   4.502   2.545   6.959  0.7268  0.8753 -0.7829
12376SOL    HW237707   4.637   2.511   6.897  0.3192  0.4462 -1.4497
12377SOL     OW37708   4.841   6.797   5.129 -0.1569  0.0706 -0.5645
12377SOL    HW137709   4.764   6.836   5.088 -0.3953 -0.1530 -0.3365
12377SOL    HW237710   4.823   6.803   5.223  0.9245  1.6962 -0.4340
12378SOL     OW37711   7.848   0.530   8.306 -0.0493  0.1691  0.8141
12378SOL    HW137712   7.823   0.474   8.380 -0.1765 -0.6588  0.1673
12378SOL    HW237713   7.944   0.525   8.304  0.0085  0.9744  1.5096
12379SOL     OW37714   4.812   4.481   9.360  0.7563 -0.2329 -0.3533
12379SOL    HW137715   4.870   4.430   9.303  1.0798  3.2069 -3.4342
12379SOL    HW237716   4.871   4.531   9.416  0.5074 -1.1648  0.7808
12380SOL     OW37717   2.357   4.799   9.077  0.1018  0.4449  0.4661
12380SOL    HW137718   2.408   4.772   9.000  0.6269  2.6321 -0.0234
12380SOL    HW237719   2.279   4.744   9.074  1.0769 -0.9530 -0.4334
12381SOL     OW37720   0.221   9.126   7.116  0.0238  0.2627  0.1203
12381SOL    HW137721   0.288   9.133   7.184 -0.4935  0.6396  0.5993
12381SOL    HW237722   0.236   9.040   7.077  0.6150  0.2327  0.4012
12382SOL     OW37723   6.047   1.986   7.295 -0.3335 -0.1018  0.0031
12382SOL    HW137724   6.015   1.897   7.279 -0.8125  0.2521 -1.1136
12382SOL    HW237725   6.019   2.036   7.218 -2.2240  1.5893  1.6504
12383SOL     OW37726   1.976   0.220   2.025 -0.0781 -0.5097  0.0879
12383SOL    HW137727   1.957   0.200   1.934  0.1362  0.1070 -0.0921
12383SOL    HW237728   2.000   0.312   2.026 -0.9648 -0.2672  0.9078
12384SOL     OW37729   3.817   3.923   0.127  0.2387 -0.2994 -0.1848
12384SOL    HW137730   3.742   3.885   0.080 -1.1294  1.2141  0.6544
12384SOL    HW237731   3.806   3.893   0.217 -0.8096  1.8143  0.4749
12385SOL     OW37732   9.290   3.311   9.134  0.2734  0.2610  0.3114
12385SOL    HW137733   9.307   3.292   9.227  1.3886 -0.5027 -0.0307
12385SOL    HW237734   9.199   3.282   9.120  0.2721 -0.1133  1.0408
12386SOL     OW37735   3.134   1.278   2.416  0.2040  0.0280  0.0125
12386SOL    HW137736   3.095   1.355   2.456  1.2263  0.5572  0.0118
12386SOL    HW237737   3.095   1.274   2.328 -1.2047 -0.5050  0.6376
12387SOL     OW37738   5.048   5.612   9.219 -0.2538  0.0089  0.4181
12387SOL    HW137739   5.027   5.703   9.243 -1.3121  0.2321 -1.1933
12387SOL    HW237740   5.004   5.559   9.286 -0.8700  0.6448  0.5237
12388SOL     OW37741   6.156   0.626   9.859 -0.0430 -0.3827  0.4256
12388SOL    HW137742   6.234   0.572   9.868  1.0731  0.8715 -1.0056
12388SOL    HW237743   6.088   0.581   9.909  1.5432 -1.6192  1.5359
12389SOL     OW37744   4.895   5.082   1.124 -0.1660  0.3872  0.6175
12389SOL    HW137745   4.957   5.093   1.196  0.9906  0.8473 -0.4078
12389SOL    HW237746   4.906   4.990   1.098  0.5408  0.6217  0.0563
12390SOL     OW37747   8.198   1.012   3.430  0.4234 -0.1561  0.2934
12390SOL    HW137748   8.195   1.103   3.400  0.3960 -0.6369 -1.1981
12390SOL    HW237749   8.134   0.966   3.376 -0.9776 -0.7294  2.3339
12391SOL     OW37750   2.028   1.257   7.357  0.5151 -0.4924 -0.4143
12391SOL    HW137751   2.024   1.279   7.264  0.7532 -0.0707 -0.3263
12391SOL    HW237752   1.972   1.322   7.399 -1.5022 -2.0705 -0.4899
12392SOL     OW37753   2.086   0.867   6.228  0.0607 -0.3990  0.0624
12392SOL    HW137754   2.168   0.914   6.212  0.3555 -0.8069  0.3613
12392SOL    HW237755   2.026   0.935   6.258 -0.0268  0.0919 -1.1650
12393SOL     OW37756   8.027   9.682   4.215 -0.1108  0.3930 -0.5324
12393SOL    HW137757   8.117   9.656   4.196 -0.7150 -0.9555 -1.7767
12393SOL    HW237758   8.036   9.760   4.270  1.8121 -0.8090  1.0391
12394SOL     OW37759   6.324   9.687   6.951  0.4276  0.4143 -0.5113
12394SOL    HW137760   6.383   9.749   6.995  0.1235  1.6518 -1.7482
12394SOL    HW237761   6.279   9.741   6.886 -1.1925 -0.7643 -0.4004
12395SOL     OW37762   2.681   2.971   3.913  0.0302 -0.3545 -0.2624
12395SOL    HW137763   2.623   2.898   3.893 -0.5749  0.5635 -2.0338
12395SOL    HW237764   2.743   2.935   3.977 -0.9513 -2.0579 -0.2004
12396SOL     OW37765   6.556   6.776   7.814  0.3187 -0.9471 -0.4175
12396SOL    HW137766   6.490   6.817   7.870 -0.0754 -1.7774 -0.2709
12396SOL    HW237767   6.521   6.783   7.726 -1.0281 -3.2836 -0.1534
12397SOL     OW37768   5.623   0.119   3.237  0.0841  0.0181  0.3653
12397SOL    HW137769   5.655   0.116   3.147  1.9464  0.1428  0.9889
12397SOL    HW237770   5.640   0.032   3.272  1.8469  0.7019  1.3567
12398SOL     OW37771   2.001   2.921   9.285 -0.2631 -0.1038  0.7497
12398SOL    HW137772   2.006   2.926   9.381  0.6500 -1.7308  0.8137
12398SOL    HW237773   1.939   2.990   9.261 -0.3002  0.5146  2.4864
12399SOL     OW37774   4.311   2.906   6.944  0.1980  0.0594  0.9032
12399SOL    HW137775   4.388   2.910   6.888 -0.0514 -0.3139  0.5304
12399SOL    HW237776   4.247   2.963   6.902 -0.8850 -2.1380 -0.5993
12400SOL     OW37777   1.292   0.848   2.859 -0.2509 -0.2731  0.2339
12400SOL    HW137778   1.316   0.926   2.809 -0.0502 -1.9163 -2.4107
12400SOL    HW237779   1.206   0.868   2.895 -0.5229  0.9133 -1.0075
12401SOL     OW37780   9.634   4.136   2.093  0.7294 -0.2758 -0.2641
12401SOL    HW137781   9.694   4.128   2.167  1.1560 -1.3333 -0.7040
12401SOL    HW237782   9.689   4.122   2.016 -0.2836 -2.9797 -0.6285
12402SOL     OW37783   0.798   0.020   8.239  0.3747  0.0699  0.7599
12402SOL    HW137784   0.778   0.100   8.288  0.0105  0.7736 -0.4845
12402SOL    HW237785   0.854   0.050   8.168 -1.2527 -0.4411 -0.8109
12403SOL     OW37786   2.748   8.029   9.442  0.4344  0.3704  0.1164
12403SOL    HW137787   2.709   7.972   9.376  0.4627 -0.8749  1.1363
12403SOL    HW237788   2.674   8.063   9.492  0.3379  2.0809 -1.1043
12404SOL     OW37789   4.043   0.139   1.115  0.6508 -0.3034 -0.0312
12404SOL    HW137790   4.081   0.180   1.038  1.6897 -0.2251  0.4955
12404SOL    HW237791   3.995   0.209   1.159  0.0904 -0.3407 -0.5867
12405SOL     OW37792   1.611   8.251   9.018 -0.1184  0.2198  0.4705
12405SOL    HW137793   1.539   8.201   9.057  1.5370 -1.4556  1.5360
12405SOL    HW237794   1.623   8.326   9.077 -0.3061 -0.0711  0.8813
12406SOL     OW37795   6.687   7.281   6.367  0.6022 -0.1807  0.1614
12406SOL    HW137796   6.624   7.213   6.341  0.6536  0.1579 -0.9194
12406SOL    HW237797   6.765   7.261   6.315  0.5801  0.7703 -0.2537
12407SOL     OW37798   8.845   7.943   3.324 -0.3462  0.1332 -0.1612
12407SOL    HW137799   8.889   8.026   3.341 -1.5374  0.8832 -0.5402
12407SOL    HW237800   8.766   7.947   3.378 -1.1780 -0.0542 -1.3109
12408SOL     OW37801   8.114   8.152   3.611 -0.2621 -0.4230 -0.2492
12408SOL    HW137802   8.057   8.128   3.684 -0.1596  2.0118  0.7247
12408SOL    HW237803   8.197   8.110   3.630  0.1004  1.0542  1.7004
12409SOL     OW37804   6.788   8.607   3.667  0.0568 -0.2564 -0.1007
12409SOL    HW137805   6.696   8.586   3.653 -0.1676 -0.1508  1.0396
12409SOL    HW237806   6.797   8.698   3.639  0.0138 -0.5279 -0.9996
12410SOL     OW37807   1.513   0.399   5.686 -0.1772  0.3168  0.4670
12410SOL    HW137808   1.425   0.392   5.723 -0.3985 -0.6905 -0.2107
12410SOL    HW237809   1.569   0.352   5.749 -0.5222 -1.2094 -0.3091
12411SOL     OW37810   9.158   7.667   0.295 -0.5083 -0.2204  0.0491
12411SOL    HW137811   9.178   7.648   0.387  1.5834  2.7626  0.3420
12411SOL    HW237812   9.066   7.696   0.296 -1.3510 -2.6347  0.6747
12412SOL     OW37813   1.878   9.771   3.508  0.0311  0.0827  0.2734
12412SOL    HW137814   1.839   9.687   3.485  0.5523 -0.2246  0.5132
12412SOL    HW237815   1.912   9.806   3.426  0.9393 -0.5246  0.3809
12413SOL     OW37816   5.906   0.124   5.238  0.0563  0.3542  0.2223
12413SOL    HW137817   5.935   0.139   5.149  1.3345 -0.1750  0.5280
12413SOL    HW237818   5.963   0.179   5.292 -1.9828  2.2088  0.6120
12414SOL     OW37819   9.536   0.456   3.285 -0.1866 -0.0977 -0.8979
12414SOL    HW137820   9.516   0.365   3.266 -1.5156  0.1671 -0.9406
12414SOL    HW237821   9.544   0.497   3.199 -1.2478  0.1329 -0.9013
12415SOL     OW37822   3.960   5.660   3.070  0.4631 -0.6530  0.6081
12415SOL    HW137823   4.019   5.655   3.146  1.7042  2.5368 -0.0018
12415SOL    HW237824   4.011   5.624   2.998  1.0311  0.4571  0.4374
12416SOL     OW37825   0.770   6.084   8.838  0.4260 -0.0593  0.3132
12416SOL    HW137826   0.772   6.011   8.776 -0.0173  0.0834  0.1234
12416SOL    HW237827   0.687   6.128   8.820 -0.1872 -0.6068  1.6799
12417SOL     OW37828   2.915   7.693   6.134 -0.0483  0.3634  0.3241
12417SOL    HW137829   2.935   7.775   6.179  2.0865 -0.6938  1.4198
12417SOL    HW237830   2.988   7.635   6.155 -0.8953 -1.4521 -1.4095
12418SOL     OW37831   0.609   9.363   2.963 -0.2158 -0.0271  0.1331
12418SOL    HW137832   0.629   9.269   2.962  1.0050  0.0221  3.8378
12418SOL    HW237833   0.540   9.372   3.028 -0.6564  1.6328 -0.5148
12419SOL     OW37834   1.761   8.431   8.509  0.0429 -0.1535  0.1649
12419SOL    HW137835   1.762   8.432   8.605 -1.4652  1.7971  0.2243
12419SOL    HW237836   1.744   8.522   8.485 -3.3873 -1.1898 -1.8539
12420SOL     OW37837   9.182   9.526   3.825 -0.6287  0.4127  0.2145
12420SOL    HW137838   9.257   9.567   3.868 -0.6566  1.1120 -0.3759
12420SOL    HW237839   9.214   9.440   3.797 -0.0767  0.6718  0.0385
12421SOL     OW37840   7.150   7.806   9.769 -0.8092  1.1327  0.4515
12421SOL    HW137841   7.083   7.863   9.733 -0.3212  1.9383  0.7674
12421SOL    HW237842   7.114   7.777   9.853 -1.3513  0.3975 -0.0250
12422SOL     OW37843   9.473   2.255   0.659  0.0919 -0.2730  0.5152
12422SOL    HW137844   9.487   2.310   0.583  0.5821 -0.3547  0.5435
12422SOL    HW237845   9.554   2.261   0.709  0.0624 -0.8342  0.6388
12423SOL     OW37846   5.968   1.938   9.450  0.3646 -0.1688  0.0633
12423SOL    HW137847   5.917   1.893   9.518 -1.2387 -0.7491 -1.4364
12423SOL    HW237848   6.051   1.891   9.447  0.5839  0.0444  1.7686
12424SOL     OW37849   6.170   5.340   2.457 -0.3475  0.1292  0.6159
12424SOL    HW137850   6.266   5.340   2.460 -0.2097  0.5316 -1.7963
12424SOL    HW237851   6.145   5.270   2.517  1.4355  0.1656  1.4816
12425SOL     OW37852   3.548   0.917   1.513  0.7811 -0.0863 -0.1328
12425SOL    HW137853   3.541   1.001   1.468  1.9645 -0.7200 -1.5788
12425SOL    HW237854   3.525   0.936   1.604 -0.9975  1.3792 -0.8430
12426SOL     OW37855   4.131   8.192   4.751  0.0724  0.5888  0.1288
12426SOL    HW137856   4.175   8.277   4.756 -0.4664  0.9784 -1.3228
12426SOL    HW237857   4.202   8.130   4.735  0.3528  0.9182  0.0643
12427SOL     OW37858   4.778   0.583   4.803 -0.0947  0.4908  0.0491
12427SOL    HW137859   4.743   0.547   4.721 -1.6264  0.6354  0.6064
12427SOL    HW237860   4.812   0.669   4.778  1.5519 -0.3791 -0.8547
12428SOL     OW37861   0.968   0.412   5.175  0.0332 -0.4851  0.4849
12428SOL    HW137862   1.001   0.337   5.127 -0.6123  0.4983 -1.6363
12428SOL    HW237863   1.027   0.484   5.151 -1.0747  0.3251  0.0692
12429SOL     OW37864   7.417   2.357   0.394  0.2436 -0.0655 -0.2308
12429SOL    HW137865   7.407   2.428   0.331 -0.1496  0.1697  0.0898
12429SOL    HW237866   7.449   2.400   0.473  1.4095 -0.4565 -0.4752
12430SOL     OW37867   0.356   6.543   5.508  0.2661  0.4645 -0.9294
12430SOL    HW137868   0.309   6.476   5.557  0.6975  1.6440  1.1949
12430SOL    HW237869   0.312   6.545   5.423 -2.4091  0.2898  0.3479
12431SOL     OW37870   3.746   6.025   0.512 -0.3639  0.3868 -0.3691
12431SOL    HW137871   3.696   5.961   0.461 -0.0216  0.2197 -0.5053
12431SOL    HW237872   3.835   6.019   0.476  0.1035 -0.3868  0.8437
12432SOL     OW37873   0.133   8.879   7.724  0.1572  0.1135 -0.4681
12432SOL    HW137874   0.041   8.863   7.703 -0.1667  1.9065 -0.5823
12432SOL    HW237875   0.182   8.822   7.665 -0.8773 -0.5493 -0.6991
12433SOL     OW37876   3.187   5.704   3.077  0.0230  0.2208  0.3679
12433SOL    HW137877   3.180   5.799   3.078 -0.9325  0.1541  0.8719
12433SOL    HW237878   3.274   5.686   3.113  0.4905  0.9156 -0.3823
12434SOL     OW37879   1.538   8.132   1.960 -0.1168 -0.3144  0.5679
12434SOL    HW137880   1.468   8.075   1.990 -3.6930  2.1466 -2.2547
12434SOL    HW237881   1.586   8.080   1.896 -2.5702 -0.6409 -1.1074
12435SOL     OW37882   4.549   1.727   1.767  0.0621 -0.5595  0.3009
12435SOL    HW137883   4.470   1.778   1.788  0.3860  1.8300 -3.3096
12435SOL    HW237884   4.517   1.639   1.750 -2.3559  0.7361 -2.9167
12436SOL     OW37885   4.214   4.624   1.369 -0.2353 -0.1081 -0.2810
12436SOL    HW137886   4.181   4.551   1.421  1.7360 -0.8493  0.0237
12436SOL    HW237887   4.308   4.628   1.390  0.0750  1.3133 -1.7309
12437SOL     OW37888   4.000   3.065   2.278 -0.4161 -0.3165  0.5060
12437SOL    HW137889   4.006   3.152   2.318 -2.1173  0.1178 -0.0991
12437SOL    HW237890   4.073   3.016   2.316  0.5570  1.3498  0.8962
12438SOL     OW37891   6.419   3.020   9.061  0.1913  0.1254 -1.2224
12438SOL    HW137892   6.349   3.005   9.124 -1.5463 -0.2619 -3.1200
12438SOL    HW237893   6.481   3.077   9.106 -0.0108 -1.5970  1.4184
12439SOL     OW37894   0.150   1.532   4.107  0.0623  0.1111  0.0030
12439SOL    HW137895   0.118   1.616   4.074 -0.7187  0.4593  1.5443
12439SOL    HW237896   0.224   1.556   4.163  0.7974 -0.3789 -0.7478
12440SOL     OW37897   2.419   3.396   4.164  0.2677  0.3494  0.4380
12440SOL    HW137898   2.465   3.326   4.118  1.6182 -1.0737  3.6653
12440SOL    HW237899   2.482   3.468   4.167  0.2180  0.4047  0.1729
12441SOL     OW37900   2.041   6.922   4.188 -0.4442 -0.4884  0.5640
12441SOL    HW137901   2.120   6.884   4.150 -0.1416  0.3673  0.3221
12441SOL    HW237902   2.000   6.849   4.235  0.7472 -0.8195  1.1243
12442SOL     OW37903   2.171   8.347   0.140  0.0980  0.2651  0.1992
12442SOL    HW137904   2.103   8.411   0.120 -2.3451 -1.9768  0.7637
12442SOL    HW237905   2.143   8.267   0.095  1.6625 -1.0981  1.4997
12443SOL     OW37906   1.287   2.933   1.666  0.2565  0.1068  0.1160
12443SOL    HW137907   1.309   2.840   1.653 -1.2289 -0.4883  1.4361
12443SOL    HW237908   1.364   2.970   1.709  1.0996 -0.3612 -0.9549
12444SOL     OW37909   3.460   3.374   0.784 -0.1974  0.4236  0.0243
12444SOL    HW137910   3.382   3.320   0.781  0.4356 -0.6978  1.9959
12444SOL    HW237911   3.435   3.455   0.739 -1.7075 -0.7928 -1.4617
12445SOL     OW37912   0.031   8.260   6.848 -0.0422 -0.3090 -0.3661
12445SOL    HW137913   0.000   8.323   6.782  0.6164  0.4044 -0.0117
12445SOL    HW237914   0.126   8.263   6.841  0.0748  0.3165  1.0775
12446SOL     OW37915   2.241   8.035   1.456 -0.1259 -0.0874  0.2339
12446SOL    HW137916   2.196   8.110   1.497 -0.1308 -0.0115  0.0894
12446SOL    HW237917   2.334   8.056   1.464 -0.1560  0.5501 -0.9637
12447SOL     OW37918   3.109   3.040   3.398  0.1091 -0.8472 -0.4473
12447SOL    HW137919   3.035   3.077   3.446 -0.3372  0.9640 -2.3926
12447SOL    HW237920   3.098   2.945   3.407 -2.1390 -0.6252 -0.2420
12448SOL     OW37921   1.940   1.059   2.529  0.3848  0.0753 -0.5930
12448SOL    HW137922   1.883   1.007   2.472  0.0793  0.8425 -0.9972
12448SOL    HW237923   1.904   1.047   2.617 -0.2428  0.3519 -0.8116
12449SOL     OW37924   3.393   9.073   6.302 -0.2468  0.0726  0.0330
12449SOL    HW137925   3.354   9.153   6.267 -1.0175 -0.2656  0.0940
12449SOL    HW237926   3.324   9.007   6.294  0.9093 -1.0417 -1.6150
12450SOL     OW37927   7.733   6.220   5.981 -0.1252  0.0994  0.4587
12450SOL    HW137928   7.743   6.130   6.011  2.4759 -0.5877 -1.9709
12450SOL    HW237929   7.684   6.213   5.899  1.3815  0.6311 -0.5412
12451SOL     OW37930   2.588   5.932   4.695 -0.3684 -0.2687  0.3785
12451SOL    HW137931   2.572   5.942   4.601  0.6006 -1.2161  0.0948
12451SOL    HW237932   2.680   5.955   4.707 -0.5822  0.2014  1.1591
12452SOL     OW37933   9.554   1.831   0.024  0.6681  0.6563  0.1776
12452SOL    HW137934   9.607   1.752   0.012  1.5601  1.5161 -2.3826
12452SOL    HW237935   9.488   1.807   0.088 -0.6131 -2.9961 -2.2060
12453SOL     OW37936   6.805   6.987   4.737 -0.1119 -0.0909 -0.1500
12453SOL    HW137937   6.867   6.935   4.789  1.2167  0.6689 -0.9082
12453SOL    HW237938   6.719   6.962   4.771  0.6616  0.2205  2.2642
12454SOL     OW37939   5.434   3.372   1.745  0.5985  0.1782 -0.4423
12454SOL    HW137940   5.369   3.340   1.807 -0.2746  0.4103 -1.2189
12454SOL    HW237941   5.518   3.346   1.783 -0.0242 -2.7577 -0.8576
12455SOL     OW37942   4.878   0.276   2.010 -0.0163 -0.3519  0.4002
12455SOL    HW137943   4.809   0.326   1.967  0.1399 -0.2580  0.2575
12455SOL    HW237944   4.904   0.211   1.946  0.6711  0.2042  0.0999
12456SOL     OW37945   9.791   4.006   5.066 -0.1235  0.3673 -0.4570
12456SOL    HW137946   9.846   3.949   5.012 -0.3469  0.3916 -0.7093
12456SOL    HW237947   9.730   4.047   5.005  0.1457  1.0123 -0.3040
12457SOL     OW37948   4.360   1.730   5.622 -0.1216  0.1630  0.1914
12457SOL    HW137949   4.419   1.663   5.658 -1.9498 -1.0663  1.0801
12457SOL    HW237950   4.288   1.735   5.685 -1.2593  1.1881 -1.1199
12458SOL     OW37951   0.683   7.684   8.087 -0.2328 -0.1844 -0.0971
12458SOL    HW137952   0.595   7.685   8.050 -0.4219 -0.2408  0.3455
12458SOL    HW237953   0.723   7.766   8.056 -1.9562  2.1811  3.2535
12459SOL     OW37954   6.199   8.878   7.104  0.3338 -0.0066  0.6428
12459SOL    HW137955   6.199   8.799   7.159  1.1579 -0.4674  0.0062
12459SOL    HW237956   6.132   8.860   7.037 -1.1401  0.8277  1.8333
12460SOL     OW37957   2.262   5.460   8.441  0.2578  0.1099 -0.4149
12460SOL    HW137958   2.170   5.451   8.417  0.6227  1.1932 -2.4218
12460SOL    HW237959   2.285   5.375   8.480 -1.2279 -0.6444 -1.1124
12461SOL     OW37960   0.744   8.893   2.928  0.2218 -0.0006 -0.6311
12461SOL    HW137961   0.797   8.818   2.900  2.1700  1.2819 -0.5436
12461SOL    HW237962   0.668   8.892   2.869  1.8379 -0.1606 -2.8123
12462SOL     OW37963   4.320   3.910   3.626 -0.2134 -0.2758 -0.6345
12462SOL    HW137964   4.272   3.989   3.599  0.1075  0.2397  0.2817
12462SOL    HW237965   4.303   3.847   3.556  0.7344  1.0756 -2.1378
12463SOL     OW37966   0.057   7.243   1.038  0.7477 -0.0282 -0.5908
12463SOL    HW137967   0.066   7.297   1.116  0.4603 -0.6125 -0.1423
12463SOL    HW237968   0.146   7.234   1.004  1.0855 -0.8850  0.4480
12464SOL     OW37969   1.334   4.097   5.322  0.1477 -0.2595  0.1639
12464SOL    HW137970   1.379   4.123   5.402  0.3102 -1.8650  0.6237
12464SOL    HW237971   1.330   4.001   5.326 -3.4582 -0.2643  0.2515
12465SOL     OW37972   4.697   0.600   7.260  0.2746  0.7424  0.4879
12465SOL    HW137973   4.769   0.571   7.204  0.0815  0.4856  0.3696
12465SOL    HW237974   4.716   0.560   7.345 -0.1364  0.0336  0.2525
12466SOL     OW37975   8.680   5.819   9.316  0.0456  0.4277 -0.2387
12466SOL    HW137976   8.679   5.905   9.357  0.3244  0.2978  0.0483
12466SOL    HW237977   8.603   5.818   9.260  0.1288  0.9256 -0.3701
12467SOL     OW37978   6.448   0.881   2.606 -0.0113  0.0644 -0.0329
12467SOL    HW137979   6.418   0.971   2.615 -2.2680 -0.7568  1.8547
12467SOL    HW237980   6.508   0.868   2.679  1.0328  0.2692 -0.8399
12468SOL     OW37981   5.592   4.191   9.917 -0.3168 -0.0017 -0.2631
12468SOL    HW137982   5.650   4.135   9.968  0.2627 -0.2312 -1.1509
12468SOL    HW237983   5.645   4.268   9.896 -1.0722  0.8661  0.8623
12469SOL     OW37984   5.160   4.212   8.949  0.3508 -0.1770 -0.1127
12469SOL    HW137985   5.215   4.229   8.872  0.4061  0.8970  0.1484
12469SOL    HW237986   5.193   4.129   8.984  1.7269  0.3671 -0.0410
12470SOL     OW37987   1.591   2.990   8.436 -0.3775  0.0627  0.5089
12470SOL    HW137988   1.506   3.006   8.395  0.3564  1.0861 -0.6951
12470SOL    HW237989   1.655   3.017   8.369  0.8888  3.0326  2.7099
12471SOL     OW37990   0.472   8.468   1.112  0.6792 -0.2110  0.5052
12471SOL    HW137991   0.427   8.525   1.049  0.5124  0.4571  1.2059
12471SOL    HW237992   0.410   8.399   1.132  0.5177 -0.1064  0.3608
12472SOL     OW37993   3.646   9.761   8.002 -0.1436 -0.4729 -0.1333
12472SOL    HW137994   3.629   9.851   8.031 -0.6252 -1.1068  1.6356
12472SOL    HW237995   3.592   9.706   8.059  0.6930 -1.9420 -0.6981
12473SOL     OW37996   4.043   9.274   6.215 -0.1609 -0.0111  0.2600
12473SOL    HW137997   3.996   9.238   6.291 -0.7960 -0.1505 -0.1893
12473SOL    HW237998   4.135   9.273   6.241 -0.2748 -0.9535  0.6686
12474SOL     OW37999   7.627   2.381   5.997 -0.0468  0.9589 -0.4535
12474SOL    HW138000   7.593   2.355   6.082  2.6294 -0.3282  0.3325
12474SOL    HW238001   7.558   2.357   5.935 -1.5808  0.8720  1.2082
12475SOL     OW38002   8.959   8.171   3.772 -0.1999 -0.0443 -0.1647
12475SOL    HW138003   8.911   8.112   3.712  1.4352 -1.6711  0.0317
12475SOL    HW238004   9.012   8.112   3.826  2.2347  1.6252 -0.5517
12476SOL     OW38005   7.361   9.513   8.151  0.0004  0.4418  0.2584
12476SOL    HW138006   7.412   9.577   8.202 -0.8409  0.2110  1.4405
12476SOL    HW238007   7.414   9.434   8.151 -0.2202  0.2770  1.2760
12477SOL     OW38008   8.620   2.645   2.396  0.1043 -0.3565  0.2022
12477SOL    HW138009   8.714   2.651   2.416  0.0555 -1.9233  1.0875
12477SOL    HW238010   8.598   2.730   2.358  1.7495  0.2624  0.5357
12478SOL     OW38011   7.780   0.929   4.308 -0.0166 -0.6458  0.1235
12478SOL    HW138012   7.735   0.961   4.386  0.2013  0.6778 -0.2696
12478SOL    HW238013   7.783   1.005   4.250  1.9130 -0.9609 -0.2275
12479SOL     OW38014   1.136   9.218   7.056  0.0027 -0.0358  0.0293
12479SOL    HW138015   1.091   9.169   6.987  1.4018  0.6929 -1.4583
12479SOL    HW238016   1.070   9.281   7.088 -0.9186 -0.9512 -0.0044
12480SOL     OW38017   8.828   3.881   2.380 -0.0253 -0.1318  0.4580
12480SOL    HW138018   8.753   3.923   2.423  1.0300  2.7365 -0.2323
12480SOL    HW238019   8.899   3.944   2.391  1.9171 -2.1239 -0.1513
12481SOL     OW38020   5.791   0.821   2.954 -0.3521  0.3846  0.1901
12481SOL    HW138021   5.820   0.734   2.926  0.3181  0.2386  1.2490
12481SOL    HW238022   5.720   0.844   2.895 -2.2239 -1.9444  1.3668
12482SOL     OW38023   7.597   0.617   7.170 -0.0882 -0.0972 -0.5928
12482SOL    HW138024   7.612   0.700   7.216  1.3725 -0.1954 -0.8291
12482SOL    HW238025   7.598   0.551   7.239  1.9048 -0.2231 -0.6801
12483SOL     OW38026   6.273   3.003   7.948  0.3853  0.1173 -0.0553
12483SOL    HW138027   6.205   3.066   7.971 -0.0272 -0.0011 -0.8949
12483SOL    HW238028   6.347   3.025   8.006  0.4390  1.6995 -0.6526
12484SOL     OW38029   7.616   8.295   8.523 -0.5675  0.0222 -0.4119
12484SOL    HW138030   7.663   8.375   8.502 -0.5941 -0.2214 -1.4552
12484SOL    HW238031   7.637   8.235   8.452  0.0863 -1.1821  0.7525
12485SOL     OW38032   2.094   7.814   2.328 -0.0075 -0.2580 -0.0682
12485SOL    HW138033   2.063   7.851   2.410 -0.8749  0.6888 -0.8001
12485SOL    HW238034   2.014   7.795   2.279  0.5153 -0.2300 -0.9492
12486SOL     OW38035   6.992   4.185   0.909 -0.1862  0.2674 -0.0226
12486SOL    HW138036   6.990   4.229   0.824  3.4735  0.3854 -0.1981
12486SOL    HW238037   7.085   4.178   0.930 -0.7354 -3.6197  1.9978
12487SOL     OW38038   1.023   0.128   4.067 -0.8968 -0.5638 -0.4040
12487SOL    HW138039   1.039   0.177   3.986 -2.2155  0.2705 -0.1980
12487SOL    HW238040   0.961   0.060   4.041 -2.3086  0.4790  0.1171
12488SOL     OW38041   1.273   3.119   8.017 -0.7058  0.2980  0.1547
12488SOL    HW138042   1.213   3.067   7.964 -1.4261 -1.5745  2.6321
12488SOL    HW238043   1.353   3.124   7.963 -1.5070 -1.1234 -1.2823
12489SOL     OW38044   4.369   1.714   3.797 -0.4566  0.1355 -0.3521
12489SOL    HW138045   4.310   1.715   3.722 -1.6655  0.2152  0.5655
12489SOL    HW238046   4.443   1.661   3.768 -0.5498  0.7669 -1.8348
12490SOL     OW38047   6.396   3.410   4.256  0.3651 -0.2614  0.4018
12490SOL    HW138048   6.420   3.322   4.286  0.3359 -0.9699 -1.5250
12490SOL    HW238049   6.480   3.456   4.249  0.5180 -0.5810  0.1043
12491SOL     OW38050   7.771   7.986   7.759  0.5930  0.1498 -0.1106
12491SOL    HW138051   7.684   8.019   7.737  0.6590  0.5123  0.1664
12491SOL    HW238052   7.761   7.891   7.762  0.1506  0.2038  0.1494
12492SOL     OW38053   6.440   3.550   5.830 -0.3729  0.3709  0.0646
12492SOL    HW138054   6.371   3.615   5.820  0.2048  1.2618  1.5456
12492SOL    HW238055   6.485   3.550   5.745 -1.5823  0.4648 -0.5906
12493SOL     OW38056   9.532   8.434   2.395  0.2105  0.0332 -0.8202
12493SOL    HW138057   9.485   8.379   2.458  2.7149 -0.7318  0.5216
12493SOL    HW238058   9.530   8.522   2.434 -0.3547  0.0726 -0.9330
12494SOL     OW38059   5.791   1.392   4.511 -0.0039 -0.4782  0.3024
12494SOL    HW138060   5.796   1.440   4.594 -1.3643  0.2839 -0.0318
12494SOL    HW238061   5.790   1.300   4.536  1.2251 -0.3266  1.0261
12495SOL     OW38062   3.453   0.152   0.067  0.2137 -0.5357 -0.3244
12495SOL    HW138063   3.390   0.129   0.136  0.4120 -1.4565 -0.4356
12495SOL    HW238064   3.521   0.202   0.112  1.1754 -2.4616  0.5084
12496SOL     OW38065   5.190   1.220   9.683 -0.0723  0.3501  0.5441
12496SOL    HW138066   5.271   1.251   9.644 -0.1415  1.6571  1.3515
12496SOL    HW238067   5.210   1.133   9.716  0.7661  0.3415  0.0165
12497SOL     OW38068   0.012   4.419   5.741 -0.1835  0.3227 -0.2933
12497SOL    HW138069  -0.027   4.481   5.803  0.2753 -0.0102  0.3378
12497SOL    HW238070   0.039   4.473   5.666 -1.6717  0.5861 -0.6748
12498SOL     OW38071   0.510   3.484   3.561  0.1142  0.6187  0.4330
12498SOL    HW138072   0.426   3.528   3.576  0.3741  1.0665  0.5899
12498SOL    HW238073   0.497   3.396   3.597 -0.2336  0.7355  0.6026
12499SOL     OW38074   2.512   4.058   6.706 -0.2302  0.1081  0.4934
12499SOL    HW138075   2.477   4.098   6.785  0.1443 -1.5523  1.5413
12499SOL    HW238076   2.440   4.062   6.643 -0.5969  1.2621  0.9588
12500SOL     OW38077   0.518   0.030   7.215 -0.2608  0.0667  0.0305
12500SOL    HW138078   0.589   0.006   7.275 -0.3370  0.6665  0.3730
12500SOL    HW238079   0.448   0.062   7.272 -0.7915 -0.4621 -0.3088
12501SOL     OW38080   2.311   3.090   2.194 -0.3330 -0.5393  0.2730
12501SOL    HW138081   2.301   2.995   2.198 -0.6289 -0.5496 -0.6338
12501SOL    HW238082   2.306   3.112   2.101 -0.1156  0.3508  0.4565
12502SOL     OW38083   8.674   3.237   7.757  0.6094  0.1204  0.0204
12502SOL    HW138084   8.631   3.312   7.716  1.6734 -0.7167 -2.8205
12502SOL    HW238085   8.767   3.259   7.756  0.8675 -0.9302 -0.2130
12503SOL     OW38086   9.647   1.609   9.493  0.4236 -0.0613  0.3873
12503SOL    HW138087   9.586   1.675   9.526 -0.8368 -0.1058 -1.6894
12503SOL    HW238088   9.680   1.565   9.572 -1.6712  0.4681  1.6367
12504SOL     OW38089   8.633   2.274   0.821  0.6096 -0.2253 -0.3557
12504SOL    HW138090   8.553   2.225   0.842  0.5016 -0.0931 -0.4630
12504SOL    HW238091   8.603   2.362   0.798  0.8029 -0.1182 -0.1975
12505SOL     OW38092   0.705   2.712   0.559 -0.3065  0.2436  0.3297
12505SOL    HW138093   0.651   2.729   0.482 -0.1908  1.6156  0.5189
12505SOL    HW238094   0.680   2.624   0.587  0.7620 -0.9466 -2.1635
12506SOL     OW38095   7.118   8.987   6.938  0.1742 -0.5487  0.5608
12506SOL    HW138096   7.134   8.894   6.927 -0.9817 -0.7085  0.0912
12506SOL    HW238097   7.064   8.993   7.016  0.5238 -0.2321  0.7850
12507SOL     OW38098   9.211   7.710   6.001  0.0908  0.3528 -0.2610
12507SOL    HW138099   9.227   7.622   6.035 -0.7672  0.7723  1.3402
12507SOL    HW238100   9.274   7.765   6.048 -0.4459  0.8014 -0.0531
12508SOL     OW38101   5.420   7.950   1.209 -0.0583 -0.5333 -0.4761
12508SOL    HW138102   5.362   7.874   1.201 -0.8656 -0.5041  3.1096
12508SOL    HW238103   5.445   7.951   1.301  1.1807  2.6773 -0.7138
12509SOL     OW38104   7.839   1.700   0.344  0.0838 -0.1050 -0.0734
12509SOL    HW138105   7.757   1.717   0.298 -0.6763 -0.1886  1.2032
12509SOL    HW238106   7.874   1.786   0.365 -1.3262  0.0082  2.1584
12510SOL     OW38107   9.259   1.445   0.775  0.4419 -0.1448  0.0500
12510SOL    HW138108   9.322   1.423   0.843  0.6261  1.3423  0.3930
12510SOL    HW238109   9.195   1.374   0.777  1.4023 -1.0093  0.5743
12511SOL     OW38110   0.650   3.714   4.779 -0.4887  0.0866  0.9618
12511SOL    HW138111   0.689   3.691   4.864  2.5246  0.7843 -0.0814
12511SOL    HW238112   0.691   3.798   4.757 -1.8080  0.3024 -0.8413
12512SOL     OW38113   9.093   1.578   9.590 -0.0593 -0.3221 -0.0727
12512SOL    HW138114   9.061   1.543   9.674 -1.0355  0.7226  0.0069
12512SOL    HW238115   9.089   1.673   9.600  2.3214 -0.1251 -0.3745
12513SOL     OW38116   6.398   6.612   8.690  0.3297  0.6721 -0.1364
12513SOL    HW138117   6.476   6.667   8.683 -1.0195  2.8346  0.5553
12513SOL    HW238118   6.333   6.669   8.732 -1.3095 -1.3712  0.2553
12514SOL     OW38119   2.782   4.294   1.889  0.1122 -0.2558  0.1470
12514SOL    HW138120   2.803   4.373   1.840  1.1802  0.1353  1.1751
12514SOL    HW238121   2.691   4.275   1.867 -0.0553  1.0562 -0.3861
12515SOL     OW38122   8.040   8.343   7.191  0.6602  0.1722 -0.6808
12515SOL    HW138123   7.958   8.369   7.148  0.4227 -0.7696 -0.8203
12515SOL    HW238124   8.016   8.269   7.246  1.5899 -0.7685 -1.4891
12516SOL     OW38125   6.713   1.717   7.217  0.4646  0.1257 -0.2449
12516SOL    HW138126   6.628   1.674   7.226 -0.3084  1.4841 -0.7661
12516SOL    HW238127   6.765   1.657   7.164 -0.7315  0.0148 -1.3482
12517SOL     OW38128   1.087   2.225   2.252 -0.1609  0.1375 -0.8385
12517SOL    HW138129   0.996   2.255   2.244 -0.5810 -0.6281  0.7793
12517SOL    HW238130   1.118   2.262   2.334  1.0871  0.5449 -1.4604
12518SOL     OW38131   4.495   5.483   3.583 -0.6017  0.3073  0.4465
12518SOL    HW138132   4.589   5.489   3.569 -0.5707 -0.9215  0.0335
12518SOL    HW238133   4.458   5.468   3.495 -0.8369 -2.6275  0.9392
12519SOL     OW38134   2.541   5.421   1.455  0.0164 -0.6197  0.1531
12519SOL    HW138135   2.515   5.513   1.461  3.0439  0.2952  1.0609
12519SOL    HW238136   2.507   5.381   1.535 -2.0713 -0.6059 -0.6461
12520SOL     OW38137   9.707   1.040   8.764  0.3659 -0.5641 -0.2816
12520SOL    HW138138   9.776   1.100   8.790  0.5733 -0.6421 -0.6511
12520SOL    HW238139   9.647   1.038   8.839  0.2619  0.2393 -0.3443
12521SOL     OW38140   0.324   9.087   4.559 -0.2865 -0.0272 -0.0028
12521SOL    HW138141   0.265   9.108   4.486  0.2550  0.3035 -0.3518
12521SOL    HW238142   0.338   9.171   4.603  1.0310  0.1951 -0.7659
12522SOL     OW38143   6.684   0.555   5.420  0.2891 -0.3699 -0.1922
12522SOL    HW138144   6.598   0.534   5.457  1.3788 -0.6155  2.3876
12522SOL    HW238145   6.732   0.472   5.422  0.3814 -0.4171 -2.3603
12523SOL     OW38146   6.333   8.409   5.140  0.3955 -0.4929  0.1899
12523SOL    HW138147   6.370   8.427   5.227  0.1116 -0.0596  0.2250
12523SOL    HW238148   6.376   8.328   5.112  1.3281 -0.0439  0.2598
12524SOL     OW38149   4.148   8.819   9.487 -0.6277  0.0150 -0.0661
12524SOL    HW138150   4.236   8.783   9.500 -0.6660  0.5685  2.2951
12524SOL    HW238151   4.162   8.914   9.481 -0.9734  0.0159 -1.0485
12525SOL     OW38152   8.570   2.387   1.883 -0.2481  0.6851 -0.1012
12525SOL    HW138153   8.557   2.327   1.956 -0.4633  1.1348  0.2354
12525SOL    HW238154   8.597   2.469   1.924  0.1392  0.7934 -0.5624
12526SOL     OW38155   2.839   6.945   3.141  0.1543  0.0088 -0.1251
12526SOL    HW138156   2.811   6.961   3.231  1.7630 -1.1023  0.6286
12526SOL    HW238157   2.797   6.862   3.117  1.1031 -0.6191  0.2865
12527SOL     OW38158   7.781   0.537   8.894 -0.3111  0.1286 -0.3070
12527SOL    HW138159   7.716   0.607   8.894  0.4737  0.9204  0.9877
12527SOL    HW238160   7.837   0.558   8.969  0.1572 -1.7028 -0.1076
12528SOL     OW38161   8.685   7.193   1.686  0.0561  0.0898  0.0118
12528SOL    HW138162   8.704   7.146   1.768  0.0421  0.3384  0.1593
12528SOL    HW238163   8.757   7.254   1.677  0.2405 -0.1790 -0.3470
12529SOL     OW38164   6.010   5.989   6.129 -0.7726  0.2368 -0.3360
12529SOL    HW138165   6.035   6.067   6.179  2.5547 -0.1064 -1.2002
12529SOL    HW238166   5.927   5.961   6.168 -0.3480  2.2160  2.3134
12530SOL     OW38167   7.271   9.855   9.310 -0.5839  0.4406  0.0680
12530SOL    HW138168   7.305   9.915   9.244 -0.2950 -1.1152 -1.2314
12530SOL    HW238169   7.318   9.773   9.296 -1.2155 -0.2299  1.5871
12531SOL     OW38170   3.392   4.458   6.227 -0.1469  0.0878  0.1849
12531SOL    HW138171   3.426   4.537   6.185 -0.0102  0.0766  0.2765
12531SOL    HW238172   3.426   4.386   6.174  0.7012  0.0280  0.7798
12532SOL     OW38173   4.916   4.605   9.008 -0.7209  0.0923  0.0736
12532SOL    HW138174   4.992   4.557   9.039 -0.7605 -0.4619 -0.6601
12532SOL    HW238175   4.879   4.549   8.939  0.2781  1.9832 -2.1134
12533SOL     OW38176   6.128   3.470   1.021 -0.3363 -0.9096  0.0974
12533SOL    HW138177   6.102   3.558   0.996 -1.7782 -1.4321 -0.3177
12533SOL    HW238178   6.133   3.421   0.939 -0.3973 -1.4344  0.3964
12534SOL     OW38179   2.188   9.085   3.765 -0.1138 -0.1060 -0.2622
12534SOL    HW138180   2.195   9.035   3.847 -1.7288 -2.7098 -1.5902
12534SOL    HW238181   2.274   9.078   3.725  0.5639  0.8205  0.9415
12535SOL     OW38182   8.583   3.768   1.292 -0.3423  0.4071  0.0484
12535SOL    HW138183   8.544   3.686   1.324  0.6750 -1.0481 -2.1923
12535SOL    HW238184   8.611   3.813   1.371  0.3005 -2.0587  1.3448
12536SOL     OW38185   5.799   8.102   1.105 -0.2648  0.1814 -0.2112
12536SOL    HW138186   5.799   8.153   1.186  0.3759  2.6649 -1.6741
12536SOL    HW238187   5.854   8.026   1.125  0.5827  1.1590  1.4336
12537SOL     OW38188   2.025   5.557   4.936  0.0361 -0.4580  0.1255
12537SOL    HW138189   2.061   5.597   4.857 -0.8908 -0.9584 -0.5673
12537SOL    HW238190   1.938   5.526   4.910 -0.7938  0.4484  1.6620
12538SOL     OW38191   4.317   0.431   0.767 -0.8268 -0.2957  0.3624
12538SOL    HW138192   4.342   0.361   0.827 -2.1550 -0.9832  0.1442
12538SOL    HW238193   4.368   0.507   0.797  0.3577 -1.2433  0.8252
12539SOL     OW38194   9.418   4.304   3.221 -0.5378 -0.1436  0.0268
12539SOL    HW138195   9.501   4.255   3.223 -0.4889 -0.0634  2.4273
12539SOL    HW238196   9.355   4.242   3.184 -0.1663 -1.5467  1.6560
12540SOL     OW38197   7.347   7.903   7.837  0.4490  0.4128 -0.0763
12540SOL    HW138198   7.428   7.938   7.801  2.1668 -0.3737  2.7462
12540SOL    HW238199   7.305   7.978   7.880 -0.8908  1.0247 -2.2676
12541SOL     OW38200   3.812   5.434   6.000  0.0843 -0.4049  0.5074
12541SOL    HW138201   3.855   5.507   5.954 -0.2274  0.2292  1.1873
12541SOL    HW238202   3.746   5.477   6.055  0.5033 -1.1291  1.6006
12542SOL     OW38203   0.150   0.703   7.785 -0.1858  0.0053 -0.6063
12542SOL    HW138204   0.216   0.659   7.840  0.3447  0.0890 -1.1664
12542SOL    HW238205   0.201   0.758   7.726 -0.8329  1.0592 -0.1975
12543SOL     OW38206   1.556   8.120   5.982 -0.3857 -0.0058  0.2435
12543SOL    HW138207   1.467   8.088   5.995 -0.6297  0.8558  0.7497
12543SOL    HW238208   1.547   8.214   5.969  0.5575  0.3342  1.7368
12544SOL     OW38209   7.389   1.812   0.099 -0.5610 -0.0494 -0.0382
12544SOL    HW138210   7.336   1.758   0.040 -0.5871  0.6794 -0.6856
12544SOL    HW238211   7.331   1.829   0.174 -0.6241 -0.7360  0.0799
12545SOL     OW38212   1.977   9.830   2.594 -0.4471  0.2247  0.0575
12545SOL    HW138213   1.974   9.918   2.556 -0.3148  0.5302  0.7432
12545SOL    HW238214   2.043   9.836   2.663 -2.6242  0.4845  2.2852
12546SOL     OW38215   9.391   9.585   8.884 -0.6955 -0.3283 -0.2667
12546SOL    HW138216   9.422   9.536   8.960  0.0061  1.0739  0.3883
12546SOL    HW238217   9.469   9.628   8.849 -0.8290 -1.6193 -2.3440
12547SOL     OW38218  -0.005   3.874   6.762  0.1231  0.5986 -0.2576
12547SOL    HW138219   0.090   3.867   6.753  0.1755 -1.3949  1.1299
12547SOL    HW238220  -0.021   3.860   6.855 -1.5376  1.1053 -0.4404
12548SOL     OW38221   9.607   0.464   4.863 -0.4362 -0.3700  0.5189
12548SOL    HW138222   9.549   0.521   4.814  0.0681  1.7766  2.2801
12548SOL    HW238223   9.693   0.476   4.823 -0.0802  1.1614  1.6807
12549SOL     OW38224   8.938   1.452   0.567  0.3494 -1.1630 -0.3233
12549SOL    HW138225   8.911   1.403   0.645  1.4394 -1.3810 -0.0538
12549SOL    HW238226   9.015   1.405   0.535  0.1591 -0.8292 -1.2929
12550SOL     OW38227   2.630   2.079   6.751  0.1597  0.3449 -0.2794
12550SOL    HW138228   2.689   2.004   6.748 -1.2229 -0.7414 -2.1427
12550SOL    HW238229   2.619   2.097   6.845 -0.2336 -2.3935  0.2766
12551SOL     OW38230   3.123   4.635   5.075 -0.2147  0.3953  0.3389
12551SOL    HW138231   3.143   4.722   5.108 -2.3046  0.7294  0.8863
12551SOL    HW238232   3.028   4.634   5.065 -0.4573 -2.3025  1.8222
12552SOL     OW38233   6.054   8.427   5.959  0.1004  0.2287  0.2180
12552SOL    HW138234   6.086   8.372   6.030 -0.0242  1.0217  0.8961
12552SOL    HW238235   5.963   8.399   5.947  0.6580 -1.2342 -0.9458
12553SOL     OW38236   1.525   3.458   7.872 -0.5252 -0.0131  0.5461
12553SOL    HW138237   1.473   3.419   7.942  0.4242 -1.5792  0.4248
12553SOL    HW238238   1.615   3.437   7.894  0.1139  2.5928  0.7112
12554SOL     OW38239   6.460   8.474   5.384  0.1770  0.8325 -0.0841
12554SOL    HW138240   6.411   8.543   5.429  1.3428  1.8883 -0.3951
12554SOL    HW238241   6.550   8.485   5.414  0.5361  0.0083 -0.8236
12555SOL     OW38242   8.089   2.322   4.441 -0.5380  0.6077 -0.0449
12555SOL    HW138243   8.025   2.387   4.412 -0.6842  0.3670 -0.2736
12555SOL    HW238244   8.049   2.238   4.419  0.1923  0.4708 -0.9356
12556SOL     OW38245   6.644   3.909   1.096 -0.2133 -0.5199 -0.2946
12556SOL    HW138246   6.693   3.989   1.114 -1.3232 -0.0153  0.6260
12556SOL    HW238247   6.661   3.853   1.172 -0.0921 -0.8217 -0.5459
12557SOL     OW38248   9.758   2.539   7.264 -0.1640 -0.2845 -0.3853
12557SOL    HW138249   9.783   2.474   7.329 -2.3330 -2.8484 -1.8561
12557SOL    HW238250   9.687   2.588   7.305 -1.7910 -2.1485 -0.7974
12558SOL     OW38251   5.575   6.876   5.414 -0.4540  0.8257  0.3169
12558SOL    HW138252   5.515   6.933   5.462 -0.0833  0.2041  1.5790
12558SOL    HW238253   5.639   6.847   5.480 -1.3641 -2.0548  0.0931
12559SOL     OW38254   9.644   9.196   8.322 -0.2219 -0.1441 -0.0206
12559SOL    HW138255   9.581   9.241   8.377  0.1510  0.4404 -0.0627
12559SOL    HW238256   9.723   9.249   8.327 -0.3961  0.3577 -1.7101
12560SOL     OW38257   8.077   0.179   4.567  0.4924 -0.3234 -0.9638
12560SOL    HW138258   8.160   0.226   4.556  0.0444  0.7593  0.1270
12560SOL    HW238259   8.013   0.247   4.585  0.1109 -1.4256  2.4083
12561SOL     OW38260   4.958   0.094   9.922 -0.0188 -0.6363  0.3808
12561SOL    HW138261   4.984   0.003   9.904 -1.9403 -0.8086 -2.0465
12561SOL    HW238262   4.911   0.122   9.843 -0.7366  2.0096  1.6213
12562SOL     OW38263   3.584   1.239   9.876  0.1649  0.1325  0.3577
12562SOL    HW138264   3.550   1.252   9.788 -0.2338  1.0437  0.6293
12562SOL    HW238265   3.533   1.166   9.911  0.6461 -0.5353 -0.3213
12563SOL     OW38266  -0.010   9.729   7.212  0.0429 -0.8335 -0.5553
12563SOL    HW138267   0.030   9.650   7.247  2.1743  0.6024  0.4740
12563SOL    HW238268   0.055   9.763   7.149 -0.0341  0.9392  0.2515
12564SOL     OW38269   9.157   0.891   2.745  0.1947 -0.4756 -0.4166
12564SOL    HW138270   9.164   0.890   2.840 -0.8410 -0.0315 -0.3236
12564SOL    HW238271   9.128   0.803   2.722 -0.6341 -0.2657 -0.2153
12565SOL     OW38272   9.603   2.578   9.849 -0.3421 -0.2006  0.5194
12565SOL    HW138273   9.657   2.557   9.926 -0.4657 -1.1077  0.3700
12565SOL    HW238274   9.548   2.500   9.837 -1.5949  0.6479  0.5785
12566SOL     OW38275   1.116   9.428   6.089  0.0089  0.2403  0.4926
12566SOL    HW138276   1.140   9.371   6.015 -0.4533  0.1315  0.4224
12566SOL    HW238277   1.199   9.447   6.132  0.6384  2.1806 -1.3844
12567SOL     OW38278   0.657   0.489   1.823  0.4868  0.2360  0.0965
12567SOL    HW138279   0.674   0.423   1.890 -0.4485  0.7084  0.8261
12567SOL    HW238280   0.666   0.573   1.869  0.8761  0.5952 -0.6259
12568SOL     OW38281   4.761   1.041   5.015  0.1613 -0.0185 -0.1604
12568SOL    HW138282   4.750   1.098   5.091  1.3996  1.2056 -0.8503
12568SOL    HW238283   4.772   0.954   5.052 -0.0979  0.4369  1.0270
12569SOL     OW38284   3.713   2.018   0.718  0.4457  0.2299  0.0919
12569SOL    HW138285   3.619   2.029   0.704  0.7523  1.4430 -1.3464
12569SOL    HW238286   3.724   1.925   0.739 -0.9621 -0.1591 -0.7419
12570SOL     OW38287   6.842   0.071   6.173  0.3473  0.1727  0.1343
12570SOL    HW138288   6.920   0.048   6.223  0.0178  0.5292  0.8312
12570SOL    HW238289   6.771   0.023   6.217  0.0381  0.5676  0.0653
12571SOL     OW38290   5.410   9.028   3.264 -0.3024  0.1503 -0.2854
12571SOL    HW138291   5.504   9.043   3.268 -0.4380  1.0087 -0.2076
12571SOL    HW238292   5.401   8.932   3.259  0.5077 -0.0590  1.6514
12572SOL     OW38293   7.772   4.178   1.005  0.4267 -0.5169 -0.0850
12572SOL    HW138294   7.808   4.174   0.916 -0.7499  0.1274 -0.6153
12572SOL    HW238295   7.684   4.140   0.996 -0.1426  0.6172  0.5519
12573SOL     OW38296   5.432   4.026   5.503  0.0398  0.1100  0.4875
12573SOL    HW138297   5.418   4.000   5.412 -1.8096 -0.0183  0.7729
12573SOL    HW238298   5.509   3.977   5.531 -0.0245 -0.6878 -0.6815
12574SOL     OW38299   7.428   7.964   3.411  0.4333 -0.2768 -0.2875
12574SOL    HW138300   7.364   7.929   3.472  1.9985  0.8180  2.1531
12574SOL    HW238301   7.377   7.990   3.334 -1.9602  0.1552  1.3452
12575SOL     OW38302   2.702   6.572   2.781  0.2553  0.0910 -0.1137
12575SOL    HW138303   2.627   6.580   2.721 -0.2788 -0.3282  0.4939
12575SOL    HW238304   2.731   6.482   2.771  0.9320  0.3534 -0.6269
12576SOL     OW38305   8.320   2.554   0.216 -0.7653  0.1827 -0.2123
12576SOL    HW138306   8.387   2.523   0.276 -0.9052 -1.5323 -0.8859
12576SOL    HW238307   8.364   2.561   0.132 -1.5699 -1.8177 -0.8557
12577SOL     OW38308   4.205   6.005   0.030  0.4924 -0.0795  0.1628
12577SOL    HW138309   4.192   6.073   0.097  0.5134 -0.0867  0.1740
12577SOL    HW238310   4.218   6.054  -0.051 -2.2911 -0.0361 -0.3827
12578SOL     OW38311   7.416   7.836   6.198  0.5344  0.0827 -0.7658
12578SOL    HW138312   7.369   7.752   6.200  0.9087 -0.1416  1.1798
12578SOL    HW238313   7.377   7.884   6.126 -1.5539 -0.7303 -0.2462
12579SOL     OW38314   4.574   0.733   8.847  0.0583  0.4227  0.1752
12579SOL    HW138315   4.618   0.783   8.778  0.6955 -0.4846 -0.0925
12579SOL    HW238316   4.562   0.795   8.918  0.2506  1.1257 -0.3965
12580SOL     OW38317   7.824   5.140   5.039  0.0953  0.2122  0.0481
12580SOL    HW138318   7.735   5.174   5.048  0.1788  0.6120 -0.5883
12580SOL    HW238319   7.870   5.174   5.116 -0.4825 -0.6051  0.7708
12581SOL     OW38320   3.100   7.382   5.858 -0.3320 -0.2325  0.4387
12581SOL    HW138321   3.141   7.465   5.882  0.0777  0.3025 -1.9109
12581SOL    HW238322   3.010   7.390   5.891 -1.0762  2.2611 -1.7735
12582SOL     OW38323   2.996   0.993   5.157 -0.2190 -0.7776 -0.3455
12582SOL    HW138324   3.015   1.026   5.070  0.3590 -2.3272 -0.8301
12582SOL    HW238325   2.998   0.898   5.149 -1.3218 -0.9651  1.1085
12583SOL     OW38326   7.616   4.897   6.839  0.6961  0.1351 -0.0967
12583SOL    HW138327   7.662   4.862   6.763  1.7751  1.0678  0.0989
12583SOL    HW238328   7.591   4.820   6.890  1.5449 -0.4235 -0.4977
12584SOL     OW38329   7.594   9.285   3.308 -0.4056 -0.2037  0.0664
12584SOL    HW138330   7.541   9.244   3.241  1.7448 -1.3183 -1.0690
12584SOL    HW238331   7.666   9.327   3.260  0.2103  0.5484  1.5578
12585SOL     OW38332   1.385   9.989   5.830 -0.1865 -0.1259  0.5984
12585SOL    HW138333   1.395   9.939   5.749 -0.5202 -0.6339  0.8682
12585SOL    HW238334   1.472   9.985   5.871  0.4403  1.4850 -0.4892
12586SOL     OW38335   3.220   3.293   7.173 -0.3284  0.4620  0.2211
12586SOL    HW138336   3.245   3.341   7.094  1.7410 -4.6677 -2.7316
12586SOL    HW238337   3.127   3.271   7.159 -0.4227  0.9540  0.0506
12587SOL     OW38338   3.198   5.733   7.703 -0.6601 -0.2150  0.1531
12587SOL    HW138339   3.148   5.815   7.706  0.1969  0.3067  1.9143
12587SOL    HW238340   3.252   5.741   7.624 -0.5070  1.0004  0.3536
12588SOL     OW38341   5.956   5.348   3.161  0.3459  0.1883  0.4431
12588SOL    HW138342   6.006   5.406   3.103  0.0465  0.1872  0.1782
12588SOL    HW238343   5.869   5.346   3.122  0.6778 -1.4557 -0.3100
12589SOL     OW38344   5.905   6.906   4.259 -0.7416 -0.5285  0.2898
12589SOL    HW138345   5.932   6.843   4.327 -0.0029 -0.5961 -0.0509
12589SOL    HW238346   5.973   6.899   4.192 -0.4874  0.8399  0.3719
12590SOL     OW38347   7.154   7.066   2.626  0.2358  0.1124  0.0674
12590SOL    HW138348   7.071   7.062   2.672 -0.6335  0.1633 -1.4449
12590SOL    HW238349   7.199   7.141   2.667 -1.0353  0.9600 -0.0167
12591SOL     OW38350   6.311   5.161   3.484 -0.2390  0.4885 -0.1273
12591SOL    HW138351   6.321   5.072   3.450 -1.0454  1.4182 -3.1065
12591SOL    HW238352   6.362   5.162   3.565  0.7405 -2.3407 -0.6166
12592SOL     OW38353   8.081   7.763   5.439 -0.0015  0.1427  0.0858
12592SOL    HW138354   8.145   7.696   5.464 -0.3472 -0.5654 -0.8469
12592SOL    HW238355   8.107   7.789   5.350 -0.6446  0.3023 -0.0617
12593SOL     OW38356   1.362   4.966   0.113 -0.8503 -0.0103  0.1338
12593SOL    HW138357   1.389   4.913   0.039 -0.2386  0.6457 -0.1191
12593SOL    HW238358   1.413   4.932   0.187 -0.1303  0.5060 -0.1181
12594SOL     OW38359   5.917   9.627   1.317 -0.4208 -0.4116  0.3048
12594SOL    HW138360   6.007   9.600   1.336  0.6791 -0.3473 -3.7623
12594SOL    HW238361   5.866   9.546   1.322  1.4058 -2.1929 -4.3213
12595SOL     OW38362   9.864   8.841   7.619 -0.5044 -0.6089 -0.0754
12595SOL    HW138363   9.846   8.925   7.577  0.1416 -0.8394 -0.8509
12595SOL    HW238364   9.827   8.776   7.559 -0.5870 -0.8932  0.2821
12596SOL     OW38365   1.963   6.807   9.054 -0.0148 -0.0293 -0.0099
12596SOL    HW138366   2.055   6.821   9.077 -0.1008  2.6986 -0.9749
12596SOL    HW238367   1.925   6.895   9.055 -2.9199 -1.1919  1.4004
12597SOL     OW38368   6.606   2.808   1.231  0.0073  0.7371 -0.0389
12597SOL    HW138369   6.669   2.739   1.255 -1.3749  0.3743  3.0604
12597SOL    HW238370   6.660   2.884   1.211  1.4775 -0.2334  0.0605
12598SOL     OW38371   3.666   3.293   8.120 -0.0003  0.2477 -0.3113
12598SOL    HW138372   3.583   3.317   8.081 -0.3575  0.7731  0.7321
12598SOL    HW238373   3.731   3.348   8.075 -0.4177  0.9268 -0.1014
12599SOL     OW38374   5.991   7.009   4.978  0.2772 -0.4221 -0.0844
12599SOL    HW138375   6.072   7.025   5.026 -0.6134  0.3188  1.2470
12599SOL    HW238376   5.923   7.049   5.032 -1.1021 -1.8662 -0.6783
12600SOL     OW38377   2.963   4.085   7.621  0.0557  0.0218 -0.3553
12600SOL    HW138378   2.962   3.989   7.613  2.7574 -0.0042 -1.4800
12600SOL    HW238379   2.945   4.101   7.714  0.3739 -1.6576  0.0348
12601SOL     OW38380   6.083   5.823   4.668 -0.4150 -0.3585 -0.1714
12601SOL    HW138381   6.142   5.843   4.595  1.2672  1.7836  1.6556
12601SOL    HW238382   6.052   5.734   4.649  1.2263 -0.5265 -2.6236
12602SOL     OW38383   1.832   7.460   3.958 -0.3526  0.0629  0.1450
12602SOL    HW138384   1.867   7.412   4.033  0.8748 -1.1603 -1.1353
12602SOL    HW238385   1.891   7.536   3.948  0.1374 -0.3479 -0.1812
12603SOL     OW38386   0.705   5.992   0.500  0.4536 -0.2081  0.1242
12603SOL    HW138387   0.698   6.041   0.582  0.3410  0.7998 -0.4711
12603SOL    HW238388   0.635   5.927   0.505 -1.1965  1.4691 -0.2354
12604SOL     OW38389   9.813   3.216   6.260  0.3682 -0.5924 -0.5885
12604SOL    HW138390   9.898   3.193   6.222  0.4357 -0.6751 -0.3878
12604SOL    HW238391   9.831   3.292   6.315  0.3431 -0.7082 -0.4189
12605SOL     OW38392   6.776   6.571   8.850  0.7448  0.3101 -0.4644
12605SOL    HW138393   6.799   6.505   8.915 -0.3265  1.8486  1.5717
12605SOL    HW238394   6.708   6.530   8.797  2.1846 -1.2520 -1.2154
12606SOL     OW38395   0.084   9.852   9.754  0.0270 -0.5665  0.2100
12606SOL    HW138396   0.059   9.760   9.757 -1.2709 -0.3045 -1.1320
12606SOL    HW238397   0.063   9.886   9.841 -0.7651 -1.2416  0.2882
12607SOL     OW38398   0.217   7.132   0.617  0.1818  0.0919  0.0771
12607SOL    HW138399   0.126   7.115   0.643  0.6319 -1.1875  0.8885
12607SOL    HW238400   0.217   7.122   0.522 -0.4546 -0.2735  0.1073
12608SOL     OW38401   7.534   8.722   1.499 -0.2553 -0.3739  0.4707
12608SOL    HW138402   7.615   8.691   1.538 -1.3535 -1.1500  2.2653
12608SOL    HW238403   7.512   8.656   1.433  1.7277  1.0604 -1.8107
12609SOL     OW38404   1.644   0.474   7.880  0.9302  0.1037  0.5779
12609SOL    HW138405   1.582   0.414   7.840  0.1287 -0.5196  2.6633
12609SOL    HW238406   1.652   0.546   7.817 -0.1254 -0.8971 -0.7469
12610SOL     OW38407   5.176   7.014   5.312 -0.1507 -0.1966  0.2300
12610SOL    HW138408   5.100   7.070   5.296 -0.1239 -0.2181  0.0173
12610SOL    HW238409   5.171   6.947   5.243  0.6558  0.4282 -0.4700
12611SOL     OW38410   1.888   6.184   8.346 -0.0122  0.1047 -0.5342
12611SOL    HW138411   1.811   6.224   8.306  0.1022  1.0459  0.1634
12611SOL    HW238412   1.884   6.209   8.438  1.0461  0.0528 -0.4567
12612SOL     OW38413   9.239   7.838   6.638 -0.5603 -0.0082  0.0847
12612SOL    HW138414   9.301   7.813   6.570 -0.1922  2.1859 -0.4901
12612SOL    HW238415   9.291   7.886   6.702 -0.6697 -2.9992  2.6555
12613SOL     OW38416   8.608   6.337   9.446 -0.1715  0.4356  0.8399
12613SOL    HW138417   8.668   6.405   9.477 -0.1067 -0.1838  2.1384
12613SOL    HW238418   8.521   6.376   9.454 -0.1112  0.4855  1.2616
12614SOL     OW38419   8.494   9.525   4.623 -0.0074  0.0560 -0.0948
12614SOL    HW138420   8.480   9.576   4.702 -0.4171  2.8064 -1.8087
12614SOL    HW238421   8.588   9.505   4.623  0.3609  1.6550  0.2262
12615SOL     OW38422   5.439   4.189   6.832 -0.6114  0.3748  0.3759
12615SOL    HW138423   5.459   4.191   6.738 -0.9152  0.2426  0.3092
12615SOL    HW238424   5.462   4.277   6.862  1.2187 -0.1250  0.5405
12616SOL     OW38425   6.522   6.746   3.409 -0.9921  0.0635 -0.1813
12616SOL    HW138426   6.552   6.760   3.319 -0.2987 -0.8932 -0.1064
12616SOL    HW238427   6.446   6.804   3.417 -1.4906 -0.3299 -1.6104
12617SOL     OW38428   0.034   2.608   6.757  0.2388 -0.3889 -0.2764
12617SOL    HW138429   0.109   2.644   6.805 -0.0483  1.0751 -0.8648
12617SOL    HW238430   0.007   2.679   6.699 -1.4682 -0.9723 -0.2471
12618SOL     OW38431   5.275   2.852   3.335  0.3530 -0.1378  0.0395
12618SOL    HW138432   5.183   2.875   3.332 -0.0975 -1.9346 -1.1619
12618SOL    HW238433   5.314   2.897   3.260  0.6838  1.3111  1.0233
12619SOL     OW38434   4.765   9.972   0.653  0.0334 -0.3322 -0.1355
12619SOL    HW138435   4.778   9.986   0.559  0.8732  2.2072  0.2767
12619SOL    HW238436   4.819   9.896   0.673 -2.9876 -3.3518 -2.2496
12620SOL     OW38437   1.887   0.238   2.682  0.0177  0.1024 -0.0213
12620SOL    HW138438   1.981   0.246   2.696 -0.1345 -0.7709  1.6499
12620SOL    HW238439   1.879   0.163   2.622  0.3995  0.5794 -0.6870
12621SOL     OW38440   1.668   0.710   1.726 -0.1960 -0.2502  0.2155
12621SOL    HW138441   1.693   0.760   1.804 -1.0601  3.0376 -1.4169
12621SOL    HW238442   1.620   0.634   1.760 -1.2829  1.5034  2.9094
12622SOL     OW38443   1.813   0.200   5.609 -0.4725 -0.1301  0.9131
12622SOL    HW138444   1.807   0.294   5.628  0.4049  0.2189 -0.4184
12622SOL    HW238445   1.872   0.166   5.676 -0.2400  0.4060  0.9881
12623SOL     OW38446   5.373   4.133   4.419 -0.2686 -0.3519  0.0980
12623SOL    HW138447   5.371   4.048   4.376 -1.4014 -0.4135  0.2534
12623SOL    HW238448   5.465   4.146   4.442 -0.1272 -1.6358  0.3071
12624SOL     OW38449   1.807   1.347   9.325 -0.0139 -0.5224  0.4091
12624SOL    HW138450   1.867   1.386   9.263  0.7422  1.0916  2.0589
12624SOL    HW238451   1.843   1.260   9.343  1.4290  0.1201  0.7774
12625SOL     OW38452   3.551   6.728   1.502 -0.0801  0.1401 -0.0029
12625SOL    HW138453   3.567   6.822   1.511 -0.7747  0.4627 -1.8098
12625SOL    HW238454   3.615   6.688   1.561  1.9507  1.6520 -1.0575
12626SOL     OW38455   9.013   7.720   0.950  0.5961  0.3457 -0.6057
12626SOL    HW138456   8.956   7.645   0.969 -0.4516  1.1519 -0.5002
12626SOL    HW238457   9.089   7.707   1.007  0.7848 -1.0214 -1.1175
12627SOL     OW38458   2.469   2.131   5.047  0.1250  0.2184  0.3805
12627SOL    HW138459   2.378   2.121   5.019  0.6937  0.5553 -1.7406
12627SOL    HW238460   2.477   2.223   5.071  0.2857  0.5855 -1.0078
12628SOL     OW38461   0.509   3.391   8.432  0.1011 -0.6009 -0.0340
12628SOL    HW138462   0.473   3.368   8.347  0.8497 -0.9713 -0.2579
12628SOL    HW238463   0.432   3.400   8.489 -0.3234 -2.0026 -0.3465
12629SOL     OW38464   1.210   7.893   1.113 -0.0502 -0.5735 -0.1280
12629SOL    HW138465   1.159   7.972   1.130 -1.3560 -1.3811 -0.1975
12629SOL    HW238466   1.219   7.890   1.018  1.1246  0.1559 -0.0636
12630SOL     OW38467   7.056   7.000   9.029  0.0548  0.0903  0.5533
12630SOL    HW138468   6.980   6.942   9.038 -0.5931  0.7234 -0.5752
12630SOL    HW238469   7.126   6.943   8.998 -0.5208 -0.1541 -0.3424
12631SOL     OW38470   7.402   4.693   9.766 -0.0305  0.2365 -0.3286
12631SOL    HW138471   7.467   4.628   9.740 -0.7052 -0.5404 -0.1056
12631SOL    HW238472   7.355   4.653   9.839  1.1606  1.9736  1.5129
12632SOL     OW38473   6.956   4.380   7.742  0.2330 -0.8568  0.4470
12632SOL    HW138474   6.893   4.344   7.805 -0.2472  0.0906  0.5162
12632SOL    HW238475   7.020   4.309   7.730  0.6106 -0.9096  2.3605
12633SOL     OW38476   7.158   6.637   3.208  0.1414 -0.1350  0.0257
12633SOL    HW138477   7.136   6.547   3.235 -0.7450  0.0352 -0.0975
12633SOL    HW238478   7.135   6.691   3.283 -0.4595  0.1151 -0.3299
12634SOL     OW38479   6.961   2.842   5.486 -0.2661  0.3722  0.8293
12634SOL    HW138480   6.909   2.796   5.420 -1.4444  3.6300 -0.7710
12634SOL    HW238481   6.921   2.817   5.569  0.2626 -2.6578  0.2979
12635SOL     OW38482   4.964   2.088   2.411 -0.3874  0.3758  0.0001
12635SOL    HW138483   4.912   2.107   2.333 -1.4219 -2.4581 -0.1054
12635SOL    HW238484   4.908   2.115   2.484 -0.9351 -0.2922 -0.1708
12636SOL     OW38485   3.372   0.529   0.324 -0.1136  0.3356  0.0875
12636SOL    HW138486   3.283   0.505   0.349 -0.3366 -0.3934 -1.3050
12636SOL    HW238487   3.381   0.620   0.353 -0.5552 -0.2252  2.1086
12637SOL     OW38488   1.853   8.475   5.321 -0.0796  0.9202  0.0873
12637SOL    HW138489   1.924   8.414   5.336  0.1613  1.1837  0.0278
12637SOL    HW238490   1.875   8.551   5.375 -0.0693  1.1937 -0.2954
12638SOL     OW38491   2.268   8.573   9.594 -0.4118 -0.0655 -0.4655
12638SOL    HW138492   2.274   8.483   9.624 -0.4804  0.1397  0.1882
12638SOL    HW238493   2.235   8.567   9.505 -2.4038 -0.6269  0.2447
12639SOL     OW38494   2.489   2.721   0.417 -0.2487  0.0426 -0.2812
12639SOL    HW138495   2.496   2.816   0.404 -1.4937  0.2029  0.0845
12639SOL    HW238496   2.579   2.692   0.428  0.0755  1.4231  1.1263
12640SOL     OW38497   0.944   8.026   6.040  0.5929 -0.1732  0.0193
12640SOL    HW138498   0.891   8.068   6.109 -0.0760 -0.4855 -0.2921
12640SOL    HW238499   1.024   8.079   6.036 -0.4193  1.4025 -0.6954
12641SOL     OW38500   0.125   7.967   2.805 -0.0819 -0.1985  0.0407
12641SOL    HW138501   0.213   8.004   2.817  0.8304 -1.9496 -0.8348
12641SOL    HW238502   0.080   8.029   2.748  1.4317 -0.4019 -1.4552
12642SOL     OW38503   1.226   0.995   8.771  0.7445 -0.3212 -0.6335
12642SOL    HW138504   1.178   1.077   8.761  0.2531 -0.1058  2.4293
12642SOL    HW238505   1.223   0.976   8.865  2.8627 -2.6465 -0.8998
12643SOL     OW38506   9.607   6.747   5.033  0.0252  0.0592  0.5209
12643SOL    HW138507   9.638   6.697   5.109  0.3650 -1.3657 -0.5057
12643SOL    HW238508   9.588   6.680   4.967 -0.8092  1.2242 -0.4633
12644SOL     OW38509   6.328   8.919   0.697  0.5657  0.3880  0.1787
12644SOL    HW138510   6.394   8.951   0.636  0.6347  2.3695  1.2073
12644SOL    HW238511   6.348   8.826   0.707  2.9889  0.8341  0.1477
12645SOL     OW38512   2.826   3.086   7.288  0.0813 -0.0448 -0.1970
12645SOL    HW138513   2.900   3.103   7.231  0.8872 -1.6187  0.3130
12645SOL    HW238514   2.781   3.170   7.296  2.3137  1.1779  0.1953
12646SOL     OW38515   1.926   6.186   3.641 -0.3155  0.0772  0.3231
12646SOL    HW138516   1.857   6.195   3.576  0.9832  1.8738 -0.9229
12646SOL    HW238517   1.984   6.260   3.625  2.0890 -1.5031  1.0784
12647SOL     OW38518   3.959   8.597   6.526 -0.6569  0.1273  0.4506
12647SOL    HW138519   3.970   8.668   6.589  2.9718 -0.8288  1.1678
12647SOL    HW238520   3.965   8.517   6.579 -0.6519 -0.7038 -0.7536
12648SOL     OW38521   7.159   0.621   9.421  0.4907  0.1196  0.3655
12648SOL    HW138522   7.123   0.541   9.382  0.7260 -0.8858  2.0895
12648SOL    HW238523   7.247   0.596   9.450 -0.1878  0.3092  2.8336
12649SOL     OW38524   9.653   3.832   2.188 -0.2024  0.1959  0.2292
12649SOL    HW138525   9.573   3.868   2.150 -0.1791  1.5733  1.3897
12649SOL    HW238526   9.679   3.762   2.129 -0.9951  1.2497 -1.4235
12650SOL     OW38527   9.072   6.697   9.227 -0.4665  0.4180  0.5001
12650SOL    HW138528   9.127   6.645   9.285 -0.2379 -0.5138 -0.5326
12650SOL    HW238529   8.983   6.685   9.262 -0.2451  0.5265  1.1287
12651SOL     OW38530   8.991   2.957   3.695  0.4768  0.0543  0.3452
12651SOL    HW138531   8.915   3.015   3.707  1.5891  1.4169  1.0538
12651SOL    HW238532   9.066   3.015   3.697  1.6291 -1.3956  0.7593
12652SOL     OW38533   2.325   4.380   2.557  0.1801 -0.2280 -0.2380
12652SOL    HW138534   2.316   4.372   2.462 -0.7809 -1.9761 -0.0539
12652SOL    HW238535   2.353   4.293   2.586  3.9157  1.1074  0.8113
12653SOL     OW38536   9.565   5.758   4.938 -0.2115  0.3081 -0.0600
12653SOL    HW138537   9.501   5.690   4.915  0.4372 -0.6205  0.7978
12653SOL    HW238538   9.635   5.711   4.982 -0.0532  1.6229  1.1829
12654SOL     OW38539   4.682   7.528   4.073  0.5590 -0.1321 -0.6494
12654SOL    HW138540   4.677   7.500   4.165  4.3127 -0.1951 -0.3180
12654SOL    HW238541   4.622   7.602   4.067  1.7481  1.2827  2.5113
12655SOL     OW38542   7.444   0.694   5.905 -0.5110 -0.2538 -0.2088
12655SOL    HW138543   7.384   0.668   5.974  0.3616  0.6458  0.9207
12655SOL    HW238544   7.531   0.678   5.941 -0.0287  0.6371 -0.9337
12656SOL     OW38545   6.751   2.747   4.526  0.4135  0.2895  0.7619
12656SOL    HW138546   6.732   2.673   4.468  2.5757  1.8352 -2.1861
12656SOL    HW238547   6.665   2.787   4.542 -0.6582 -2.1165  1.5228
12657SOL     OW38548   8.225   0.700   9.557  0.3894  0.1020 -0.3224
12657SOL    HW138549   8.242   0.764   9.488 -1.5383  0.3961 -0.5740
12657SOL    HW238550   8.164   0.744   9.616  0.3730 -0.8979  0.4273
12658SOL     OW38551   9.258   6.809   0.479  0.2498 -0.3426 -0.2058
12658SOL    HW138552   9.185   6.868   0.501  1.6424  0.9882  1.1631
12658SOL    HW238553   9.220   6.721   0.485 -1.8371  0.3433 -2.0274
12659SOL     OW38554   7.545   1.047   2.676 -0.0696  0.3349  0.0396
12659SOL    HW138555   7.490   1.126   2.667 -1.1270 -0.4439 -0.5965
12659SOL    HW238556   7.482   0.976   2.690  0.8268 -0.5066 -0.1470
12660SOL     OW38557   5.074   8.473   7.132  0.0206  0.1135  0.2476
12660SOL    HW138558   5.136   8.400   7.137 -1.2797 -0.9657  1.2415
12660SOL    HW238559   4.990   8.436   7.160 -0.6317  2.0416  1.0336
12661SOL     OW38560   8.866   7.841   7.791 -0.6634  0.3128 -0.3812
12661SOL    HW138561   8.941   7.864   7.737 -0.6052 -1.2656 -1.0154
12661SOL    HW238562   8.790   7.852   7.733 -1.0672  2.6576  0.4768
12662SOL     OW38563   2.384   9.370   1.045  0.0387  0.3267  0.7252
12662SOL    HW138564   2.376   9.314   0.967  0.9928  0.1024  0.7784
12662SOL    HW238565   2.400   9.458   1.010 -1.4981  0.6099  0.6403
12663SOL     OW38566   1.329   1.561   6.925 -0.0891  0.0819  0.1527
12663SOL    HW138567   1.379   1.635   6.959 -0.7477  1.3599 -1.4955
12663SOL    HW238568   1.367   1.544   6.839 -2.1227  0.8193 -0.9743
12664SOL     OW38569   5.918   6.040   4.677 -0.2223 -0.1867 -0.9029
12664SOL    HW138570   5.948   5.949   4.675  0.7654  0.0898  0.1134
12664SOL    HW238571   5.978   6.087   4.620  1.6110  0.4129  1.3329
12665SOL     OW38572   0.820   4.549   5.434  0.2914 -0.2299  0.0872
12665SOL    HW138573   0.822   4.540   5.529 -2.9971 -0.7208  0.2511
12665SOL    HW238574   0.778   4.633   5.418  0.7508 -0.1773 -0.9301
12666SOL     OW38575   5.385   4.982   0.643  0.0062  0.0530 -0.1108
12666SOL    HW138576   5.433   5.014   0.567  0.8931 -1.1335 -0.0822
12666SOL    HW238577   5.371   4.889   0.624 -2.3690  0.3707 -0.1497
12667SOL     OW38578   8.562   5.151   7.777  0.2611 -0.4544  0.6297
12667SOL    HW138579   8.554   5.117   7.866 -0.5666 -0.7654  0.4477
12667SOL    HW238580   8.489   5.110   7.729  0.5806 -0.1416 -0.1396
12668SOL     OW38581   1.261   6.825   5.379  0.9351 -0.0207  0.4303
12668SOL    HW138582   1.314   6.897   5.346  0.8535  0.1005  0.5631
12668SOL    HW238583   1.208   6.797   5.304 -0.0017  0.9291  0.7140
12669SOL     OW38584   7.512   2.760   8.893  0.6744  0.7562  0.0167
12669SOL    HW138585   7.456   2.687   8.866 -1.2553  1.9483  0.5987
12669SOL    HW238586   7.598   2.740   8.856 -0.1367 -1.1292 -0.9525
12670SOL     OW38587   3.906   1.031   1.009 -0.1154 -0.6632 -0.2572
12670SOL    HW138588   3.940   1.118   1.030 -0.0154 -1.1826  1.9364
12670SOL    HW238589   3.977   0.989   0.961  2.0954 -1.3138  3.2206
12671SOL     OW38590   8.979   7.755   2.658 -0.8111  0.3918 -0.1201
12671SOL    HW138591   8.985   7.668   2.697  1.5990  1.0494  1.1569
12671SOL    HW238592   8.924   7.804   2.718  1.0990  0.7886  1.4133
12672SOL     OW38593   3.729   1.932   1.810 -0.6288  0.1844 -0.0308
12672SOL    HW138594   3.759   1.903   1.896  1.9139  0.7437 -0.6472
12672SOL    HW238595   3.696   2.021   1.826  2.1912  1.3282  0.0665
12673SOL     OW38596   9.538   9.817   2.617  0.2463 -0.0922  0.0677
12673SOL    HW138597   9.455   9.804   2.571  0.6598  0.7137 -0.9476
12673SOL    HW238598   9.605   9.807   2.549  0.8593  1.3608  0.4154
12674SOL     OW38599   9.755   5.248   7.411 -0.0828 -0.1212  0.2071
12674SOL    HW138600   9.672   5.249   7.460 -0.0139  1.5492  0.3426
12674SOL    HW238601   9.820   5.278   7.474  0.1738  1.0749 -0.5959
12675SOL     OW38602   5.853   6.855   1.829 -0.2599  0.7007  0.7532
12675SOL    HW138603   5.889   6.900   1.752 -1.8767  1.1657  0.2215
12675SOL    HW238604   5.922   6.861   1.895  0.9940  0.6934 -0.5057
12676SOL     OW38605   8.250   1.651  -0.015  0.1008 -0.1320  0.2969
12676SOL    HW138606   8.208   1.634   0.069 -1.0302 -0.0064 -0.2244
12676SOL    HW238607   8.307   1.575  -0.030 -3.4288 -2.7582 -1.0991
12677SOL     OW38608   4.684   2.350   1.853 -0.8260  0.2965 -0.3605
12677SOL    HW138609   4.706   2.443   1.861 -1.6822  0.5263 -0.5535
12677SOL    HW238610   4.766   2.304   1.870 -0.4989  1.0724  0.2384
12678SOL     OW38611   3.026   3.992   2.671 -0.0125  0.1797  0.0140
12678SOL    HW138612   3.107   3.979   2.719 -0.2242 -0.1902  0.2747
12678SOL    HW238613   3.011   4.087   2.673  0.9266  0.3586 -0.8914
12679SOL     OW38614   5.135   0.160   3.414 -0.2098  0.0624  0.2676
12679SOL    HW138615   5.097   0.204   3.338 -0.1536  1.0603  0.7976
12679SOL    HW238616   5.225   0.141   3.388 -0.3741 -0.1745 -0.1390
12680SOL     OW38617   4.524   7.896   0.694 -0.2690  0.6193  0.3371
12680SOL    HW138618   4.581   7.910   0.770 -2.3275  0.3996  2.0334
12680SOL    HW238619   4.513   7.983   0.656 -0.4291  1.0144  1.2472
12681SOL     OW38620   9.824   9.335   8.867 -0.2392  0.0801 -0.5345
12681SOL    HW138621   9.826   9.363   8.775  1.0975  1.0185 -0.2533
12681SOL    HW238622   9.815   9.417   8.917  0.4460 -0.2861  0.2144
12682SOL     OW38623   8.708   6.887   8.402  0.3067  0.8209  0.5715
12682SOL    HW138624   8.696   6.815   8.464 -0.9222  0.5214  0.0255
12682SOL    HW238625   8.734   6.962   8.456  1.7147 -0.0415  1.1362
12683SOL     OW38626   3.846   0.158   6.333 -0.3035 -0.1682 -0.5795
12683SOL    HW138627   3.751   0.164   6.342 -0.2983  0.0252 -0.6582
12683SOL    HW238628   3.870   0.079   6.382 -0.2036  1.1922  1.6728
12684SOL     OW38629   5.052   9.214   6.650 -0.1749  0.1781  0.4115
12684SOL    HW138630   5.102   9.157   6.710 -1.5080  0.2988  1.6875
12684SOL    HW238631   5.059   9.171   6.565  1.9534  0.1076  0.5710
12685SOL     OW38632   5.223   5.312   7.452 -0.3311 -1.2042  0.4213
12685SOL    HW138633   5.293   5.247   7.439  1.0644  0.4076 -0.5051
12685SOL    HW238634   5.200   5.302   7.545  1.1724 -1.7507  0.7783
12686SOL     OW38635   5.111   7.778   1.557  0.2763 -0.0343  0.3783
12686SOL    HW138636   5.017   7.794   1.546  0.4694  0.2137 -1.2928
12686SOL    HW238637   5.141   7.848   1.615 -0.5199  0.0572  0.6926
12687SOL     OW38638   7.843   5.224   9.251  0.2117  0.2969  0.5183
12687SOL    HW138639   7.848   5.140   9.296  0.0756  0.1964  0.3406
12687SOL    HW238640   7.760   5.262   9.278 -0.2857 -0.1554 -0.3488
12688SOL     OW38641   3.392   3.876   2.143  0.1922  0.4132 -0.4000
12688SOL    HW138642   3.324   3.930   2.102 -0.0177  0.5621  0.1386
12688SOL    HW238643   3.344   3.803   2.182  0.0592  1.6147  1.8408
12689SOL     OW38644   3.677   8.280   0.119  0.3797 -0.2910  0.1606
12689SOL    HW138645   3.613   8.349   0.135  0.7450 -0.3837  2.2035
12689SOL    HW238646   3.761   8.325   0.119  0.5738 -0.6470  0.9163
12690SOL     OW38647   1.052   0.226   4.356  0.4069  0.0922  0.3473
12690SOL    HW138648   1.044   0.183   4.271  0.5044  0.3690  0.1990
12690SOL    HW238649   1.070   0.318   4.335 -1.4895  0.5726  0.6336
12691SOL     OW38650   4.854   3.904   4.438  0.3673 -0.0363 -0.2720
12691SOL    HW138651   4.872   3.917   4.531  0.6936  1.2300 -0.5027
12691SOL    HW238652   4.926   3.948   4.393 -0.5864  0.6828 -1.1389
12692SOL     OW38653   8.804   3.248   8.820 -0.4781  0.0631  0.7462
12692SOL    HW138654   8.736   3.223   8.883  0.3081 -0.6461  1.3378
12692SOL    HW238655   8.866   3.176   8.822 -1.0042 -0.5497 -1.7267
12693SOL     OW38656   9.857   4.382   5.360 -0.3191  0.4014  0.3661
12693SOL    HW138657   9.934   4.433   5.335  0.0393 -0.5262 -0.5058
12693SOL    HW238658   9.883   4.291   5.345 -2.0222  0.1158 -1.2692
12694SOL     OW38659   2.779   7.337   7.087 -0.7114 -0.1286 -0.5234
12694SOL    HW138660   2.830   7.326   7.168  0.1585  0.9604 -0.8880
12694SOL    HW238661   2.706   7.393   7.112 -0.0672  0.7707 -0.6215
12695SOL     OW38662   0.472   8.688   1.305 -0.0506 -0.3301  0.1746
12695SOL    HW138663   0.449   8.616   1.246 -1.9340 -1.1775  1.8084
12695SOL    HW238664   0.522   8.647   1.375  0.9761  0.4221 -0.0914
12696SOL     OW38665   2.349   6.027   4.017  0.0214  0.2752 -0.3270
12696SOL    HW138666   2.280   5.968   3.989  0.3766  0.4526 -1.6107
12696SOL    HW238667   2.326   6.049   4.108 -0.5073 -1.2271 -0.0794
12697SOL     OW38668   1.978   2.689   7.043  0.1919 -0.0327  0.6757
12697SOL    HW138669   1.913   2.624   7.070 -0.8807  0.8401  0.2373
12697SOL    HW238670   1.939   2.733   6.967  1.3884  0.3640  0.2625
12698SOL     OW38671   5.437   3.375   6.101 -0.7652 -0.1170 -0.0720
12698SOL    HW138672   5.456   3.291   6.059 -0.8039  0.1492 -0.6339
12698SOL    HW238673   5.366   3.412   6.048 -1.2319 -0.0488  0.5994
12699SOL     OW38674   2.407   4.280   6.233 -0.3717  0.2296  0.3262
12699SOL    HW138675   2.479   4.343   6.236 -1.0945  1.0795  2.9598
12699SOL    HW238676   2.351   4.305   6.307 -2.5566 -1.3534 -0.6992
12700SOL     OW38677   1.793   1.120   8.853 -0.5066 -0.1086  0.3927
12700SOL    HW138678   1.866   1.061   8.832 -1.1141 -0.4075 -1.0066
12700SOL    HW238679   1.724   1.062   8.886  0.0924  0.2515  2.4056
12701SOL     OW38680   3.373   0.202   2.321 -0.2598 -0.1572 -0.1068
12701SOL    HW138681   3.359   0.292   2.292  0.3464  0.6259  1.8957
12701SOL    HW238682   3.448   0.172   2.270 -0.1816  0.6196 -0.4643
12702SOL     OW38683   7.970   4.173   9.856  0.0009 -0.0014 -0.3834
12702SOL    HW138684   8.045   4.166   9.797 -0.0555  0.8712 -0.5727
12702SOL    HW238685   8.001   4.136   9.939  0.7043  0.5283 -0.4012
12703SOL     OW38686   8.603   3.217   2.204 -0.2084 -0.0286  0.6192
12703SOL    HW138687   8.551   3.206   2.284 -1.1189  0.0059  0.0436
12703SOL    HW238688   8.682   3.165   2.219 -0.4617 -0.1787  1.4652
12704SOL     OW38689   7.529   8.022   4.581 -0.2600  0.5391 -0.4411
12704SOL    HW138690   7.563   8.061   4.661 -0.4192 -1.2286  0.5210
12704SOL    HW238691   7.596   7.958   4.554 -0.7120  0.3303 -1.1082
12705SOL     OW38692   9.688   1.979   2.871  0.4706  0.0137 -0.0935
12705SOL    HW138693   9.701   1.926   2.793  1.3751 -0.4002  0.3249
12705SOL    HW238694   9.776   1.990   2.908  0.1767  0.9955  0.3547
12706SOL     OW38695   5.882   9.673   9.503 -0.2885  0.4841 -0.3790
12706SOL    HW138696   5.848   9.619   9.432  1.3774 -2.1432  0.6837
12706SOL    HW238697   5.953   9.724   9.464  0.3375 -0.6250 -0.7151
12707SOL     OW38698   2.057   4.536   3.399 -0.4383  0.1954 -0.4598
12707SOL    HW138699   1.988   4.470   3.406  0.7282 -1.0042  0.1063
12707SOL    HW238700   2.016   4.616   3.433 -1.9469 -0.1410 -1.3597
12708SOL     OW38701   7.993   2.758   8.213  0.6164 -0.1023  0.0551
12708SOL    HW138702   7.922   2.806   8.256  1.1979  2.2474 -1.4370
12708SOL    HW238703   7.983   2.668   8.244 -0.3711  0.9670  3.2522
12709SOL     OW38704   6.423   0.407   5.466 -0.6740 -0.2472 -0.0427
12709SOL    HW138705   6.406   0.350   5.541 -0.4566  0.3121  0.4379
12709SOL    HW238706   6.401   0.494   5.497  0.8752  0.2012 -0.1222
12710SOL     OW38707   3.612   8.073   1.956 -0.4803 -0.4964 -0.2612
12710SOL    HW138708   3.581   8.163   1.949  1.2603  0.2289  0.7793
12710SOL    HW238709   3.647   8.053   1.870  0.7732  0.4915 -0.0027
12711SOL     OW38710   9.402   6.725   5.658 -0.0933 -0.2166  0.1968
12711SOL    HW138711   9.442   6.805   5.621 -0.1562 -1.1165 -1.9904
12711SOL    HW238712   9.315   6.723   5.620 -0.4552 -0.8338  1.0432
12712SOL     OW38713   9.101   6.735   4.872 -0.1565  0.1413 -0.1900
12712SOL    HW138714   9.116   6.668   4.939 -1.3003  1.4652  1.4829
12712SOL    HW238715   9.070   6.687   4.796  1.0793 -1.4120  0.2444
12713SOL     OW38716   1.817   7.039   7.609  0.1722 -0.2554  0.4245
12713SOL    HW138717   1.724   7.062   7.607 -0.2746 -1.9564 -0.2249
12713SOL    HW238718   1.826   6.969   7.544  2.1001  0.5127 -0.2052
12714SOL     OW38719   6.072   5.069   6.096  0.2359 -0.4446 -0.3270
12714SOL    HW138720   5.993   5.029   6.060 -0.6658  0.4592  0.5604
12714SOL    HW238721   6.113   4.999   6.148 -0.9792 -0.4263  0.6971
12715SOL     OW38722   4.157   1.549   7.985  0.5885 -0.1357 -0.1527
12715SOL    HW138723   4.117   1.555   8.071  2.5672 -0.5045  0.8460
12715SOL    HW238724   4.245   1.585   7.997  1.2809 -1.1825 -1.7507
12716SOL     OW38725   0.295   5.934   5.450 -0.2383 -0.3364 -0.3538
12716SOL    HW138726   0.364   5.893   5.501 -0.3656 -0.7260 -0.4884
12716SOL    HW238727   0.335   5.949   5.364  0.1501  0.8201  0.0078
12717SOL     OW38728   2.151   8.888   7.356 -0.7509 -0.2454  0.2520
12717SOL    HW138729   2.182   8.802   7.382  0.6809  0.0520 -0.3254
12717SOL    HW238730   2.123   8.930   7.437 -1.1742 -1.1358  0.5743
12718SOL     OW38731   8.760   8.214   4.497 -0.5216  0.7836 -0.0283
12718SOL    HW138732   8.736   8.181   4.411 -2.6367  0.2087  0.7160
12718SOL    HW238733   8.784   8.305   4.482 -2.0797  1.0570 -1.0959
12719SOL     OW38734   2.048   8.923   6.809 -0.3123 -0.0237  0.3894
12719SOL    HW138735   2.133   8.960   6.789 -0.0436 -1.0088 -0.3552
12719SOL    HW238736   2.043   8.924   6.905  0.3322  0.4665  0.4176
12720SOL     OW38737   4.479   2.326   3.685  0.0656 -0.7506  0.2735
12720SOL    HW138738   4.400   2.367   3.719 -1.2844 -1.3998 -1.8346
12720SOL    HW238739   4.548   2.391   3.696 -1.3082  0.8097 -0.0194
12721SOL     OW38740   7.242   4.797   2.734 -0.0528 -0.3211  0.0112
12721SOL    HW138741   7.318   4.742   2.714 -0.6196 -0.9166 -0.5520
12721SOL    HW238742   7.173   4.735   2.758 -0.3039  0.2257  0.7291
12722SOL     OW38743   7.705   5.744   1.436  0.3832 -0.5924  0.2976
12722SOL    HW138744   7.670   5.674   1.492 -1.5264  0.2432  0.1997
12722SOL    HW238745   7.685   5.716   1.347  1.2151 -0.7430  0.1500
12723SOL     OW38746   7.500   2.101   8.860 -0.5545  0.0412 -0.0820
12723SOL    HW138747   7.541   2.186   8.841  0.3754 -0.1552  0.9389
12723SOL    HW238748   7.523   2.084   8.951 -0.9949 -1.1720 -0.1880
12724SOL     OW38749   4.927   5.735   1.939  0.1744 -0.0925  0.7265
12724SOL    HW138750   4.878   5.659   1.909 -2.1090  2.5248 -3.0678
12724SOL    HW238751   5.019   5.709   1.932 -0.4546 -1.9344 -2.3764
12725SOL     OW38752   5.479   2.053   6.465  0.0019 -0.0881 -0.2352
12725SOL    HW138753   5.463   2.146   6.446 -1.3326 -0.4070 -0.7834
12725SOL    HW238754   5.486   2.012   6.379  0.5483 -0.5146  0.0045
12726SOL     OW38755   1.234   8.509   8.341  0.3431 -0.2729 -0.2410
12726SOL    HW138756   1.176   8.569   8.294  0.9201  0.6055  0.1475
12726SOL    HW238757   1.301   8.485   8.278  1.3176  1.1807  0.1980
12727SOL     OW38758   7.723   4.890   1.438  0.6111  0.2116 -0.0143
12727SOL    HW138759   7.738   4.934   1.355  0.0999  0.5580  0.0706
12727SOL    HW238760   7.807   4.851   1.461  0.5668 -0.5133 -1.0500
12728SOL     OW38761   4.128   0.131   8.405 -0.1830 -0.2538  1.0322
12728SOL    HW138762   4.137   0.066   8.475 -2.4660  1.8754  3.5838
12728SOL    HW238763   4.034   0.133   8.386  0.0023  1.3499  0.0953
12729SOL     OW38764   0.068   6.058   8.949  0.2497  0.6973  0.1408
12729SOL    HW138765  -0.009   6.110   8.970  0.3235  0.3041  1.4818
12729SOL    HW238766   0.043   5.968   8.972  0.6330  0.3513 -0.7400
12730SOL     OW38767   3.811   7.002   9.018  0.6883  0.1718  0.1240
12730SOL    HW138768   3.717   6.990   9.017  0.6872 -0.0001  1.1718
12730SOL    HW238769   3.835   7.017   8.926 -0.3404  0.1628 -0.1505
12731SOL     OW38770   6.836   0.782   1.347  0.2357  0.0162  0.5713
12731SOL    HW138771   6.870   0.867   1.375  0.2893  1.0202 -2.1924
12731SOL    HW238772   6.915   0.729   1.334  0.6229  1.0517 -1.9447
12732SOL     OW38773   2.712   2.905   0.176 -0.0621  0.5593  0.1516
12732SOL    HW138774   2.700   2.810   0.185 -2.3240  0.6729 -0.8951
12732SOL    HW238775   2.656   2.943   0.243  0.4318  1.1634  0.2269
12733SOL     OW38776   4.713   0.187   6.751  0.0324  0.1310 -0.2549
12733SOL    HW138777   4.658   0.108   6.754  1.7317 -1.0776  0.8103
12733SOL    HW238778   4.720   0.216   6.841 -0.6260  1.5885 -0.6454
12734SOL     OW38779   9.298   8.600   1.081 -0.3563  0.1864  0.1718
12734SOL    HW138780   9.383   8.576   1.119 -0.7779 -1.5486  0.1150
12734SOL    HW238781   9.319   8.627   0.992 -0.0042 -1.9770 -0.4544
12735SOL     OW38782   4.979   9.777   6.902 -0.2663  0.2221 -0.1731
12735SOL    HW138783   5.004   9.863   6.934 -0.1658  0.1470 -0.0531
12735SOL    HW238784   5.003   9.716   6.972  0.1976  0.0275 -0.4949
12736SOL     OW38785   7.030   0.281   4.262 -0.1159 -0.0564  0.4403
12736SOL    HW138786   7.047   0.189   4.241 -1.1592 -0.4463  1.1953
12736SOL    HW238787   6.938   0.294   4.239 -0.2193  0.5551  1.1482
12737SOL     OW38788   8.563   4.021   5.464 -0.1029  0.5156  0.2569
12737SOL    HW138789   8.578   3.927   5.460 -0.5670  0.4802 -1.1051
12737SOL    HW238790   8.514   4.041   5.385  0.0138  1.9149  0.5108
12738SOL     OW38791   1.055   3.605   6.270  0.5292 -0.1026  0.5569
12738SOL    HW138792   0.991   3.535   6.261  0.1982  0.4211 -1.7264
12738SOL    HW238793   1.003   3.684   6.284  0.7778  0.0542  0.6027
12739SOL     OW38794   2.566   0.795   6.067  0.2001 -0.4687  0.2870
12739SOL    HW138795   2.616   0.722   6.030  0.4687  0.8301 -2.0928
12739SOL    HW238796   2.603   0.873   6.026 -1.9609  0.7649  0.5265
12740SOL     OW38797   4.176   8.492   5.199  0.4146 -0.2033 -0.0625
12740SOL    HW138798   4.084   8.488   5.222  0.7723 -1.8501  1.2929
12740SOL    HW238799   4.177   8.515   5.107 -1.4118 -1.6928 -0.5146
12741SOL     OW38800   1.786   9.721   2.175 -0.3269  0.1384  0.1108
12741SOL    HW138801   1.812   9.696   2.263 -0.4352 -1.5089 -0.3037
12741SOL    HW238802   1.844   9.795   2.153  0.2114  0.0778  1.2593
12742SOL     OW38803   1.459   1.308   7.417  0.4369 -0.2577 -0.1369
12742SOL    HW138804   1.468   1.391   7.463  1.5404 -1.0451  1.1640
12742SOL    HW238805   1.478   1.242   7.484 -2.6490 -1.7059 -0.5263
12743SOL     OW38806   3.949   2.406   2.760  0.1365  0.1447  0.1287
12743SOL    HW138807   3.920   2.323   2.799  0.5775  1.1238  2.7172
12743SOL    HW238808   3.870   2.441   2.718 -0.7165 -0.3565  1.2720
12744SOL     OW38809   0.817   9.533   3.030 -0.4083  0.3333 -0.2410
12744SOL    HW138810   0.898   9.485   3.047 -0.6536  0.3441  1.0146
12744SOL    HW238811   0.757   9.467   2.995 -0.8562 -0.4211  1.7889
12745SOL     OW38812   3.004   6.138   1.272  0.1041  0.5168 -0.3504
12745SOL    HW138813   3.059   6.148   1.194 -0.8872  2.6219 -0.8713
12745SOL    HW238814   3.046   6.193   1.338 -0.6298  1.0992 -0.3480
12746SOL     OW38815   5.172   0.048   2.576 -0.2780  0.0065  0.4308
12746SOL    HW138816   5.108   0.072   2.642  1.3109  0.7125  1.7803
12746SOL    HW238817   5.248   0.018   2.626  0.5066 -0.6843 -1.1087
12747SOL     OW38818   1.475   0.909   0.987  0.0362  0.6973  0.7212
12747SOL    HW138819   1.506   0.900   1.076  1.4284  1.6277  0.3597
12747SOL    HW238820   1.511   0.834   0.940  0.7802  1.1348  0.5727
12748SOL     OW38821   2.853   0.961   3.410  0.1266 -0.9626  0.1879
12748SOL    HW138822   2.766   0.921   3.403 -0.6512  0.8974 -1.8698
12748SOL    HW238823   2.835   1.049   3.442  1.1959 -0.3664 -0.8282
12749SOL     OW38824   7.026   1.646   1.285  0.2063  0.2377  0.2742
12749SOL    HW138825   7.060   1.610   1.203 -0.5277 -0.6273  0.3358
12749SOL    HW238826   7.086   1.718   1.307  0.4478  0.4303 -0.9738
12750SOL     OW38827   6.270   0.967   7.408  0.6387  0.7115 -0.1413
12750SOL    HW138828   6.292   0.956   7.500 -1.2472 -0.3223  0.2304
12750SOL    HW238829   6.314   0.893   7.364  1.3190  1.0559 -0.0585
12751SOL     OW38830   3.346   4.956   7.403 -0.0533 -0.0583 -0.0172
12751SOL    HW138831   3.410   4.973   7.471 -1.3919  1.9099  0.8697
12751SOL    HW238832   3.349   5.034   7.347  0.8381 -1.5063 -2.1576
12752SOL     OW38833   2.832   7.780   6.722  0.7863  0.4822 -0.3124
12752SOL    HW138834   2.829   7.780   6.627  0.4948  1.7354 -0.3224
12752SOL    HW238835   2.741   7.782   6.750  0.8700  0.1350  0.0005
12753SOL     OW38836   2.977   7.553   7.114  0.8886 -0.1720  0.5098
12753SOL    HW138837   2.952   7.544   7.206 -1.8347  0.4328 -0.0649
12753SOL    HW238838   2.894   7.572   7.069  2.0999 -0.6459 -2.1036
12754SOL     OW38839   4.753   8.429   7.053 -0.2667  0.1175  0.4119
12754SOL    HW138840   4.719   8.517   7.066  0.8905  0.8563 -1.2969
12754SOL    HW238841   4.723   8.404   6.965 -2.5684 -2.1770  1.7031
12755SOL     OW38842   7.508   8.771   6.922  0.2109 -0.2888 -0.3657
12755SOL    HW138843   7.446   8.698   6.927 -1.0913  0.7965 -0.0873
12755SOL    HW238844   7.580   8.737   6.870 -0.3711 -1.7678 -0.2635
12756SOL     OW38845   9.536   7.712   3.436  0.0059  0.0301 -0.1251
12756SOL    HW138846   9.481   7.691   3.361  2.9753 -0.8185 -2.2249
12756SOL    HW238847   9.592   7.783   3.406 -0.2559  1.3180  2.1586
12757SOL     OW38848   4.159   2.748   4.900  0.9246  0.3756 -0.4786
12757SOL    HW138849   4.073   2.778   4.869  0.5393 -0.4829 -0.2590
12757SOL    HW238850   4.208   2.730   4.820  0.2673 -0.8923 -0.6069
12758SOL     OW38851   3.852   1.743   6.522 -0.1594 -0.1771 -0.1458
12758SOL    HW138852   3.825   1.684   6.452 -1.0828  0.2566 -0.1697
12758SOL    HW238853   3.905   1.810   6.479  2.2214 -1.7980  0.1062
12759SOL     OW38854   8.798   7.126   8.529 -0.8076 -0.0365 -0.4931
12759SOL    HW138855   8.848   7.173   8.463 -0.4708 -0.8798 -0.8458
12759SOL    HW238856   8.861   7.109   8.599 -0.7696 -0.5122 -0.6431
12760SOL     OW38857   3.171   8.824   4.751 -0.5070  0.0147  0.0882
12760SOL    HW138858   3.170   8.807   4.657 -1.7386 -1.2833  0.2945
12760SOL    HW238859   3.263   8.836   4.773 -0.2955  1.4875 -1.4587
12761SOL     OW38860   9.791   5.907   3.416  0.0218 -0.1652 -0.4249
12761SOL    HW138861   9.811   5.990   3.459  2.0384 -1.2920  0.9352
12761SOL    HW238862   9.717   5.872   3.466 -0.7247  0.6947 -0.8954
12762SOL     OW38863   6.871   5.043   7.939 -0.6885  0.2317  0.1212
12762SOL    HW138864   6.955   5.090   7.939  0.2125 -1.1904  1.9604
12762SOL    HW238865   6.828   5.072   8.019 -1.0968 -0.4443  0.1496
12763SOL     OW38866   6.467   6.974   2.274  0.2126 -0.2428 -0.4158
12763SOL    HW138867   6.418   6.963   2.356 -1.8018  0.6615 -1.4097
12763SOL    HW238868   6.427   6.912   2.213  2.2954 -1.5650 -0.5212
12764SOL     OW38869   0.094   9.453   7.230  0.9500 -0.2749  0.1688
12764SOL    HW138870   0.128   9.428   7.144  0.7904 -2.3080  0.6544
12764SOL    HW238871   0.050   9.374   7.262 -0.0971  0.8403  1.5859
12765SOL     OW38872   3.843   7.683   0.680  0.1585  0.3428  0.2840
12765SOL    HW138873   3.778   7.741   0.720 -0.3957  0.8190 -1.2426
12765SOL    HW238874   3.920   7.692   0.735 -1.1035 -0.4172  2.2914
12766SOL     OW38875   3.625   9.248   6.346  0.0573  0.4048 -0.0934
12766SOL    HW138876   3.688   9.242   6.275  1.9277  0.4245  1.4839
12766SOL    HW238877   3.547   9.204   6.313  0.0619  2.2820 -2.9342
12767SOL     OW38878   0.176   6.033   8.721 -0.3106 -0.5458  0.3915
12767SOL    HW138879   0.113   6.062   8.655  0.7787 -0.8287 -0.8087
12767SOL    HW238880   0.129   6.040   8.804 -1.2983  1.0235 -0.2617
12768SOL     OW38881   1.495   5.803   7.745 -0.2917  0.5761  0.4482
12768SOL    HW138882   1.436   5.733   7.717 -1.0930  1.2955  0.3156
12768SOL    HW238883   1.528   5.774   7.830 -0.2788 -0.1623  0.2014
12769SOL     OW38884   3.945   5.154   9.362  0.0019  0.3799 -0.0383
12769SOL    HW138885   4.015   5.120   9.417 -0.7869 -1.1805  0.0678
12769SOL    HW238886   3.882   5.192   9.424 -1.4128 -2.3459  0.3465
12770SOL     OW38887   1.242   9.857   1.630  0.6484  0.1211 -0.6091
12770SOL    HW138888   1.193   9.793   1.578  0.4352 -1.0405  0.9319
12770SOL    HW238889   1.247   9.817   1.717 -0.7981  2.8567  0.8555
12771SOL     OW38890   1.502   0.066   4.776  0.4306 -0.1755  0.4617
12771SOL    HW138891   1.540  -0.012   4.736  0.0731  0.3950 -1.0604
12771SOL    HW238892   1.410   0.043   4.791  0.0404  0.2911 -1.0328
12772SOL     OW38893   8.737   8.059   8.380 -0.0750 -0.1515  0.4231
12772SOL    HW138894   8.648   8.090   8.362 -1.0803 -2.2852  1.3633
12772SOL    HW238895   8.791   8.104   8.316 -2.3620 -1.4180 -2.6759
12773SOL     OW38896   7.940   6.468   5.668  0.1759 -0.0858 -0.5894
12773SOL    HW138897   7.980   6.552   5.642 -1.3649  0.6848 -0.5634
12773SOL    HW238898   7.925   6.478   5.762 -3.0664  1.0030 -1.1218
12774SOL     OW38899   9.548   1.717   5.280 -0.3057  0.0516  0.4311
12774SOL    HW138900   9.580   1.802   5.309 -1.1633  0.2324  0.8652
12774SOL    HW238901   9.501   1.735   5.198  2.8558 -0.5715 -1.7158
12775SOL     OW38902   8.920   9.819   8.523  0.2258 -0.5032 -0.6899
12775SOL    HW138903   8.920   9.725   8.502 -1.8773 -0.8095  0.4759
12775SOL    HW238904   9.004   9.834   8.567  1.1495 -1.5371 -2.0266
12776SOL     OW38905   6.860   5.877   9.181 -0.0004 -0.1359  0.0757
12776SOL    HW138906   6.943   5.879   9.132  0.7631  0.7553  1.3338
12776SOL    HW238907   6.810   5.950   9.146 -0.5993 -1.1134 -1.1993
12777SOL     OW38908   8.378   5.592   3.035 -0.1024 -0.4241 -0.9286
12777SOL    HW138909   8.414   5.566   2.950  1.4373  0.6087 -0.6337
12777SOL    HW238910   8.307   5.653   3.014 -0.4141 -0.9686 -1.4821
12778SOL     OW38911   8.490   2.496   6.545  0.3956 -0.5829 -0.1981
12778SOL    HW138912   8.469   2.449   6.625  2.9565  1.2166  1.6948
12778SOL    HW238913   8.416   2.556   6.532 -1.0117 -2.2738 -0.4353
12779SOL     OW38914   9.309   4.812   3.665  0.8639 -0.1870 -0.6722
12779SOL    HW138915   9.239   4.848   3.612 -0.5037 -1.1424  0.4094
12779SOL    HW238916   9.358   4.756   3.604  0.0286 -0.3649 -1.2036
12780SOL     OW38917   5.507   9.243   8.387 -0.3371  0.2963  0.0963
12780SOL    HW138918   5.549   9.257   8.472  1.9205  1.9025 -1.1540
12780SOL    HW238919   5.442   9.175   8.403  0.6513 -0.1327  2.8876
12781SOL     OW38920   3.894   2.473   7.628 -0.0341  0.8697  0.3638
12781SOL    HW138921   3.826   2.426   7.579  0.5505  0.5001 -0.1050
12781SOL    HW238922   3.846   2.523   7.694 -0.7352  0.3422  0.2620
12782SOL     OW38923   9.688   2.019   0.160 -0.2260  0.2499  0.6166
12782SOL    HW138924   9.666   1.953   0.094 -1.7441 -0.1222  1.4517
12782SOL    HW238925   9.675   1.975   0.244 -1.1910  1.5528  1.1917
12783SOL     OW38926   3.730   0.502   2.830 -0.6743 -0.1665  0.0928
12783SOL    HW138927   3.817   0.541   2.830  0.4044 -2.2274 -2.8430
12783SOL    HW238928   3.741   0.418   2.875 -1.2911 -0.2107  0.1811
12784SOL     OW38929   6.960   5.773   3.327  0.2140 -0.4040  0.2890
12784SOL    HW138930   6.965   5.808   3.238 -0.6247 -0.1366  0.3397
12784SOL    HW238931   6.877   5.725   3.329 -0.6545  1.0447  1.4341
12785SOL     OW38932   1.182   4.681   5.804 -0.3383 -0.1391  0.3096
12785SOL    HW138933   1.247   4.621   5.768 -0.3435 -0.1365  0.2954
12785SOL    HW238934   1.130   4.709   5.728 -2.1213 -2.2426  0.6569
12786SOL     OW38935   4.969   1.680   7.980 -0.2362  0.3230 -0.2868
12786SOL    HW138936   5.045   1.707   8.031  1.1858 -0.2696 -1.9793
12786SOL    HW238937   4.906   1.649   8.045  0.8400  1.0907  1.1883
12787SOL     OW38938   7.216   2.493   3.355  0.0500 -0.0529 -0.7710
12787SOL    HW138939   7.184   2.412   3.393  0.1044  0.3009  0.0536
12787SOL    HW238940   7.212   2.557   3.426  1.1124  0.3795 -1.0691
12788SOL     OW38941   8.335   1.477   7.701  0.2091 -0.3081  0.0629
12788SOL    HW138942   8.310   1.501   7.790 -0.1513 -1.1499  0.2003
12788SOL    HW238943   8.260   1.503   7.647  0.4595  0.2745 -0.0179
12789SOL     OW38944   5.825   4.464   2.600  0.1148  0.0236  0.5251
12789SOL    HW138945   5.843   4.421   2.683  2.7807  1.6053  0.8869
12789SOL    HW238946   5.854   4.401   2.534 -0.8322 -0.7407  0.8215
12790SOL     OW38947   8.656   0.922   3.072 -0.3890  0.0776  0.1126
12790SOL    HW138948   8.725   0.944   3.009 -1.1084 -0.1174 -0.7522
12790SOL    HW238949   8.697   0.857   3.129  0.8108  1.4547  0.9063
12791SOL     OW38950   7.923   6.075   2.522 -0.1942 -0.1144 -0.3169
12791SOL    HW138951   7.880   6.003   2.477 -0.3257 -0.0484 -0.2956
12791SOL    HW238952   8.015   6.048   2.527 -0.0583  0.1612 -1.1882
12792SOL     OW38953   7.921   4.182   1.439 -0.4693 -0.5826  0.4628
12792SOL    HW138954   7.973   4.187   1.359  1.0881 -0.0225  1.4749
12792SOL    HW238955   7.843   4.234   1.420  0.0434 -0.1754 -0.5776
12793SOL     OW38956   8.393   3.924   0.031  0.2143 -0.2308  0.2161
12793SOL    HW138957   8.326   3.897   0.094  0.5388 -0.0086  0.6574
12793SOL    HW238958   8.344   3.972  -0.036 -0.5116 -2.5195 -1.0173
12794SOL     OW38959   0.528   7.654   7.771 -0.1275  0.5354 -0.2991
12794SOL    HW138960   0.612   7.698   7.780 -0.0286  0.6744 -1.7061
12794SOL    HW238961   0.494   7.684   7.688 -1.3858  0.1460  0.0579
12795SOL     OW38962   7.353   9.734   3.803  0.4288  0.4929 -0.2881
12795SOL    HW138963   7.417   9.688   3.748  0.2567  1.8011 -1.6582
12795SOL    HW238964   7.406   9.782   3.866  0.6821 -0.0545 -0.0713
12796SOL     OW38965   8.769   9.299   6.272 -0.1017  0.0206 -0.0270
12796SOL    HW138966   8.704   9.229   6.283  0.4228 -0.5835 -0.7158
12796SOL    HW238967   8.740   9.346   6.193 -1.9048  2.2130  1.7779
12797SOL     OW38968   3.842   8.727   4.903 -0.6796  0.4146 -0.0848
12797SOL    HW138969   3.753   8.758   4.924 -0.2144  0.5836  1.7705
12797SOL    HW238970   3.836   8.632   4.911 -0.8595  0.3693 -0.7012
12798SOL     OW38971   7.052   6.417   8.793  0.0554  0.0900  0.1776
12798SOL    HW138972   7.029   6.495   8.741 -3.3778  0.8529  2.5046
12798SOL    HW238973   6.981   6.355   8.776  1.2958 -1.4741  0.4753
12799SOL     OW38974   4.441   2.128   3.314 -0.3659  0.0433 -0.3534
12799SOL    HW138975   4.530   2.094   3.306  0.4022  0.9293  3.0553
12799SOL    HW238976   4.386   2.050   3.322  0.4958 -0.5023  0.4476
12800SOL     OW38977   0.027   4.816   2.632  0.1297  0.2157 -0.0867
12800SOL    HW138978  -0.054   4.791   2.677  0.1185 -0.8425 -0.6717
12800SOL    HW238979   0.092   4.753   2.662  0.1820 -0.3510 -1.3446
12801SOL     OW38980   2.321   4.133   9.806 -0.0800  0.4924  0.1556
12801SOL    HW138981   2.360   4.061   9.855  1.9443  2.0091  0.8708
12801SOL    HW238982   2.379   4.145   9.731 -1.7617 -0.1540 -1.3342
12802SOL     OW38983   2.574   7.979   8.968 -0.3112  0.3726 -0.5871
12802SOL    HW138984   2.592   8.072   8.958 -0.0598  0.6510  1.9057
12802SOL    HW238985   2.479   7.973   8.978 -0.6159  0.0453 -2.8861
12803SOL     OW38986   5.724   3.407   9.699 -0.0188 -0.1658 -0.5795
12803SOL    HW138987   5.677   3.476   9.746  2.1851  1.2868 -0.3558
12803SOL    HW238988   5.746   3.447   9.615  0.3311 -1.0139 -0.9003
12804SOL     OW38989   2.829   5.560   1.955 -1.0312 -0.0818  0.3824
12804SOL    HW138990   2.882   5.589   1.881  1.5224 -2.4879  1.0928
12804SOL    HW238991   2.741   5.550   1.919 -1.1322  3.9568 -0.8871
12805SOL     OW38992   0.022   6.881   3.399 -0.4423 -0.0285 -0.2102
12805SOL    HW138993  -0.003   6.922   3.316  2.0729  1.7200 -0.2180
12805SOL    HW238994   0.045   6.954   3.456  0.6635 -1.3060  1.0644
12806SOL     OW38995   3.318   0.801   5.591  0.0313  0.1067 -0.2877
12806SOL    HW138996   3.371   0.831   5.665  0.3645 -0.7806 -0.1597
12806SOL    HW238997   3.312   0.878   5.534  0.7126  0.4713  0.1188
12807SOL     OW38998   2.486   9.324   3.933  0.0212 -0.0676 -0.1389
12807SOL    HW138999   2.400   9.348   3.898  0.1506 -0.2158 -0.5652
12807SOL    HW239000   2.500   9.234   3.903  0.1823 -0.1638  0.2129
12808SOL     OW39001   6.216   9.919   4.042  0.0889  0.3277  0.4825
12808SOL    HW139002   6.256   9.976   4.108 -1.1407  0.2269  1.3445
12808SOL    HW239003   6.165   9.856   4.092 -0.5252 -0.0281 -0.5553
12809SOL     OW39004   7.748   4.286   5.599 -0.5103  0.1344  0.3284
12809SOL    HW139005   7.838   4.254   5.589 -0.8195  0.0541 -3.7538
12809SOL    HW239006   7.758   4.380   5.614  0.4798  1.1069 -4.7383
12810SOL     OW39007   5.301   0.057   5.589  0.1220  0.1770 -0.1555
12810SOL    HW139008   5.260   0.001   5.524  0.2898  0.2923 -0.3598
12810SOL    HW239009   5.336   0.131   5.539  4.1321 -1.7721 -0.6220
12811SOL     OW39010   1.831   6.812   6.441 -1.0578 -0.1215  0.8451
12811SOL    HW139011   1.819   6.733   6.494  1.6935 -0.2123  1.5074
12811SOL    HW239012   1.839   6.883   6.504 -1.2752  0.3222  0.3786
12812SOL     OW39013   3.873   0.880   7.745  0.3816 -0.3241  0.1253
12812SOL    HW139014   3.864   0.928   7.828  0.5868 -1.8164  1.0543
12812SOL    HW239015   3.887   0.789   7.772 -0.3858 -0.9794 -1.5723
12813SOL     OW39016   3.375   3.166   2.439  0.3729 -0.2081 -0.2973
12813SOL    HW139017   3.380   3.124   2.525  0.0785 -1.7757 -1.0111
12813SOL    HW239018   3.300   3.124   2.396  0.0794  1.0641 -1.0575
12814SOL     OW39019   6.918   7.943   9.716  0.0376  0.0698  0.2709
12814SOL    HW139020   6.898   7.850   9.708  1.1367 -0.1550 -0.0925
12814SOL    HW239021   6.849   7.987   9.667 -0.4090 -0.5659  0.3227
12815SOL     OW39022   7.398   5.036   5.860 -0.2900  0.0796 -0.5688
12815SOL    HW139023   7.355   5.062   5.942  1.4463  0.6105  0.2136
12815SOL    HW239024   7.340   5.068   5.792 -1.3217  0.4338  0.4372
12816SOL     OW39025   0.131   7.985   9.388  1.1819 -0.0747 -0.1129
12816SOL    HW139026   0.205   8.021   9.339  2.5484 -1.2208  0.9979
12816SOL    HW239027   0.126   8.037   9.467 -1.0342  1.7839 -1.3484
12817SOL     OW39028   2.116   7.505   0.882 -0.8638  0.1949  0.2508
12817SOL    HW139029   2.142   7.489   0.973 -0.5262 -1.6328 -0.1287
12817SOL    HW239030   2.051   7.436   0.863  0.2340 -0.4591 -1.3583
12818SOL     OW39031   6.384   1.198   6.433  0.0537 -0.6193  0.2202
12818SOL    HW139032   6.305   1.158   6.395 -1.2113  0.3478  1.7095
12818SOL    HW239033   6.433   1.231   6.357 -1.1158 -0.9572 -0.7189
12819SOL     OW39034   3.950   5.437   9.756  0.2825 -0.3645  0.2183
12819SOL    HW139035   3.883   5.470   9.815  1.3680  0.8190  0.8283
12819SOL    HW239036   3.946   5.495   9.680  1.7762  0.8747  1.0271
12820SOL     OW39037   5.633   6.454   6.854 -0.6860  0.4869  0.1699
12820SOL    HW139038   5.726   6.435   6.864 -0.5349  1.5070  0.8368
12820SOL    HW239039   5.598   6.380   6.804  0.3437 -0.2499  0.5198
12821SOL     OW39040   9.584   5.531   1.721 -0.5666 -0.2987  0.9312
12821SOL    HW139041   9.573   5.551   1.814  0.2566 -1.2830  1.2595
12821SOL    HW239042   9.676   5.507   1.713 -1.0152 -1.8452  0.1876
12822SOL     OW39043   6.501   0.916   0.917 -0.3756 -0.7929 -0.3985
12822SOL    HW139044   6.539   0.978   0.855 -2.5417  1.7947  0.6533
12822SOL    HW239045   6.443   0.862   0.865 -1.3505  0.6489 -0.8884
12823SOL     OW39046   5.681   8.613   8.502  0.1769 -0.2925  0.1403
12823SOL    HW139047   5.707   8.705   8.512  3.1446 -0.8665 -1.1415
12823SOL    HW239048   5.602   8.616   8.447 -0.4139  1.4859  1.0176
12824SOL     OW39049   6.361   0.297   3.993 -0.0673 -0.5615 -0.4555
12824SOL    HW139050   6.374   0.292   3.899  1.1076  1.0311 -0.4236
12824SOL    HW239051   6.450   0.292   4.030 -0.5739 -2.1975  0.6432
12825SOL     OW39052   5.335   2.451   5.987 -0.3303 -0.2847 -0.3712
12825SOL    HW139053   5.301   2.362   5.977 -1.9120  0.4966 -2.4063
12825SOL    HW239054   5.288   2.487   6.062 -1.1926 -0.4964 -0.8048
12826SOL     OW39055   4.167   6.163   1.210 -0.4039 -0.0886  0.2410
12826SOL    HW139056   4.237   6.099   1.203 -0.5717 -0.2948  0.4293
12826SOL    HW239057   4.186   6.228   1.143 -0.5860 -0.6756 -0.3814
12827SOL     OW39058   0.903   6.127   3.083 -0.8698  0.2889  0.0623
12827SOL    HW139059   0.857   6.199   3.127  0.8276 -0.0357  2.5941
12827SOL    HW239060   0.989   6.126   3.124  0.9908 -0.0159 -3.4605
12828SOL     OW39061   7.443   1.020   8.176  0.5921  0.7138 -0.5409
12828SOL    HW139062   7.499   1.064   8.111  1.3154  1.0842  0.3138
12828SOL    HW239063   7.363   0.998   8.128  0.1894  2.9798 -1.0184
12829SOL     OW39064   2.557   7.343   4.233 -1.1014  0.5056 -0.2886
12829SOL    HW139065   2.599   7.296   4.305  0.4220  0.2489 -1.3015
12829SOL    HW239066   2.527   7.425   4.272 -1.6662 -0.2584  0.9652
12830SOL     OW39067   7.618   6.758   4.114  0.1279 -0.1582  0.4213
12830SOL    HW139068   7.617   6.740   4.208  1.3910  1.5915  0.8216
12830SOL    HW239069   7.526   6.759   4.089 -0.1880 -1.8438  1.3581
12831SOL     OW39070   3.969   2.396   6.103 -0.3616 -0.0439  0.0926
12831SOL    HW139071   3.882   2.393   6.144 -0.8239  2.3723 -0.5920
12831SOL    HW239072   3.951   2.395   6.009  0.4000 -0.1817 -0.0555
12832SOL     OW39073   7.992   6.825   8.522  0.1109  0.1371  0.5225
12832SOL    HW139074   8.051   6.763   8.564  1.1501  0.2133 -0.7567
12832SOL    HW239075   7.906   6.784   8.526  0.6204 -0.9597  0.5311
12833SOL     OW39076   8.642   7.929   8.788  0.0527  0.2263 -0.8087
12833SOL    HW139077   8.605   7.900   8.872 -1.7166 -0.8536 -1.8858
12833SOL    HW239078   8.727   7.966   8.811 -0.7244  0.7333  1.5530
12834SOL     OW39079   4.446   6.475   6.895 -0.2664  0.4399  0.3110
12834SOL    HW139080   4.375   6.425   6.855  0.4854  0.4089 -1.0624
12834SOL    HW239081   4.514   6.479   6.827  0.5886  1.4264  1.1779
12835SOL     OW39082   5.386   2.525   2.992  0.3164 -0.5511  0.3863
12835SOL    HW139083   5.308   2.522   3.047  0.3209 -1.4813  0.3551
12835SOL    HW239084   5.378   2.607   2.944 -0.1439 -0.1669  1.1022
12836SOL     OW39085   4.571   3.527   3.390 -0.6016  0.4306  0.5503
12836SOL    HW139086   4.503   3.519   3.323 -1.4699 -0.3194  1.4813
12836SOL    HW239087   4.611   3.440   3.394 -0.3453  0.5597  0.7741
12837SOL     OW39088   3.216   5.241   5.896 -0.4778  0.6540  0.6936
12837SOL    HW139089   3.295   5.189   5.913 -1.1351 -0.3887  0.6250
12837SOL    HW239090   3.231   5.279   5.810  0.2957  1.1346  1.0220
12838SOL     OW39091   0.708   2.141   2.523  0.6843  0.2359  0.0178
12838SOL    HW139092   0.640   2.090   2.566  1.3540 -0.0629  0.7292
12838SOL    HW239093   0.779   2.146   2.586  0.5273  2.3133  0.1006
12839SOL     OW39094   7.527   7.341   4.525  0.2250  0.6076 -0.1494
12839SOL    HW139095   7.560   7.251   4.521  1.6306  1.1360 -1.6779
12839SOL    HW239096   7.468   7.348   4.450  0.1435  0.9831 -0.0507
12840SOL     OW39097   8.619   4.566   7.285 -0.2141 -0.0618  0.5489
12840SOL    HW139098   8.572   4.590   7.365  0.3420  0.9913  0.5795
12840SOL    HW239099   8.623   4.648   7.235 -1.2851 -0.8922 -0.9483
12841SOL     OW39100   4.339   7.271   1.984  0.5276 -0.2019 -0.2047
12841SOL    HW139101   4.369   7.186   1.950  1.4976 -0.7985  1.9661
12841SOL    HW239102   4.246   7.258   2.000  0.9070 -1.3454  1.3184
12842SOL     OW39103   6.201   5.635   4.041 -0.0014  0.1295 -0.2536
12842SOL    HW139104   6.152   5.623   4.122 -0.7139 -1.7839 -0.9095
12842SOL    HW239105   6.139   5.676   3.981  0.0185  0.0987 -0.2956
12843SOL     OW39106   4.769   4.393   0.797 -0.4522 -0.1168 -0.6349
12843SOL    HW139107   4.731   4.305   0.797  0.4943 -0.5797 -2.4585
12843SOL    HW239108   4.862   4.379   0.817 -0.0816  0.3092 -1.9487
12844SOL     OW39109   3.993   0.761   4.754 -0.6731  0.2021  0.3092
12844SOL    HW139110   3.980   0.792   4.664 -1.1341 -1.6506 -0.3078
12844SOL    HW239111   4.087   0.743   4.760 -0.9474 -1.8573 -0.6189
12845SOL     OW39112   9.681   7.237   9.181  0.2399  0.1929  0.2257
12845SOL    HW139113   9.737   7.171   9.140  1.4013  0.9175  0.5988
12845SOL    HW239114   9.696   7.227   9.275 -1.0973 -0.3067  0.4155
12846SOL     OW39115   3.203   8.715   7.167 -0.3397 -0.1270  0.4326
12846SOL    HW139116   3.144   8.789   7.179  0.3659  1.1255 -2.7795
12846SOL    HW239117   3.290   8.750   7.184 -0.0796 -0.4300 -0.2138
12847SOL     OW39118   0.205   8.018   2.479  1.0562 -0.2035  0.6893
12847SOL    HW139119   0.273   8.078   2.512  0.3956  1.4351 -0.7747
12847SOL    HW239120   0.123   8.053   2.513  0.6335 -0.0906 -0.4031
12848SOL     OW39121   9.138   0.371   0.639  0.0329  0.4586  0.1235
12848SOL    HW139122   9.220   0.368   0.590 -0.7430  0.9544 -1.2582
12848SOL    HW239123   9.157   0.428   0.714  0.8982  0.7011 -0.2694
12849SOL     OW39124   8.623   7.773   5.613  0.4195  0.3376 -0.0126
12849SOL    HW139125   8.653   7.743   5.699 -0.0703  2.3937  0.9449
12849SOL    HW239126   8.684   7.843   5.590 -0.4718  0.9468 -0.5502
12850SOL     OW39127   6.566   7.831   0.980  0.2474  0.0770 -0.1484
12850SOL    HW139128   6.646   7.878   1.004  1.1708 -0.7041 -1.5401
12850SOL    HW239129   6.572   7.821   0.885 -2.2583  1.3104 -0.5039
12851SOL     OW39130   8.815   1.625   9.941 -0.0755  0.7184 -0.3876
12851SOL    HW139131   8.724   1.649   9.955 -1.3967 -3.7090  0.0849
12851SOL    HW239132   8.816   1.577   9.858  1.2334 -1.3483  0.7158
12852SOL     OW39133   0.636   1.114   2.199 -0.3922  0.2898  0.2117
12852SOL    HW139134   0.592   1.062   2.266 -1.3350  1.5959  0.6663
12852SOL    HW239135   0.575   1.186   2.181  1.3392  1.9177  0.4882
12853SOL     OW39136   6.323   5.138   1.404  0.0484  0.0630  0.2694
12853SOL    HW139137   6.401   5.098   1.443  0.4046  0.0874 -0.4174
12853SOL    HW239138   6.251   5.080   1.430  0.4071 -0.4150  0.2072
12854SOL     OW39139   6.485   2.798   4.267  0.0716  0.4044 -0.6609
12854SOL    HW139140   6.458   2.883   4.232 -0.6001  0.5287  0.1260
12854SOL    HW239141   6.458   2.800   4.359 -0.1853 -0.7565 -0.6955
12855SOL     OW39142   1.204   9.733   1.924 -0.2407  0.0704  0.3896
12855SOL    HW139143   1.187   9.820   1.961  0.3658  0.1079  0.5894
12855SOL    HW239144   1.120   9.686   1.933 -0.4297  0.4709  0.7294
12856SOL     OW39145   3.671   8.249   6.707 -0.7230 -0.5382  0.3076
12856SOL    HW139146   3.641   8.303   6.633 -0.2412 -1.8475 -0.8845
12856SOL    HW239147   3.595   8.246   6.766 -0.2736  2.7403  1.2594
12857SOL     OW39148   9.038   8.795   8.294 -0.3738 -0.2237  0.4451
12857SOL    HW139149   8.996   8.881   8.296  0.6604  0.3039  0.6661
12857SOL    HW239150   9.029   8.766   8.204 -1.4279 -0.2528  0.5489
12858SOL     OW39151   9.239   1.426   7.659 -0.1194 -0.1873  0.1712
12858SOL    HW139152   9.286   1.453   7.580  0.9675 -1.6046  0.3082
12858SOL    HW239153   9.306   1.420   7.727 -0.8255 -0.3286  0.8773
12859SOL     OW39154   7.597   2.320   6.901  0.2696 -0.6753  0.5305
12859SOL    HW139155   7.547   2.387   6.949  1.2036  0.1419  0.3873
12859SOL    HW239156   7.530   2.262   6.864 -0.5512  0.1076  0.7599
12860SOL     OW39157   2.754   7.353   1.142  0.3403 -0.0920 -0.0606
12860SOL    HW139158   2.841   7.392   1.137  0.1415  0.2273 -1.2861
12860SOL    HW239159   2.770   7.259   1.149  0.7836 -0.1355 -1.4378
12861SOL     OW39160   7.496   8.154   5.050  0.4023  0.3305 -0.1554
12861SOL    HW139161   7.498   8.058   5.047  0.7560  0.3609 -1.6858
12861SOL    HW239162   7.589   8.179   5.047  0.3061  0.7252  0.1432
12862SOL     OW39163   8.303   9.942   4.596 -0.8620  0.4504  0.2398
12862SOL    HW139164   8.341   9.928   4.509  0.8339  0.7157  0.9103
12862SOL    HW239165   8.272  10.033   4.594 -0.7833  0.4742 -0.0571
12863SOL     OW39166   3.283   4.695   7.341 -0.0154  0.0714  0.2501
12863SOL    HW139167   3.259   4.785   7.361  0.0382  0.1617 -0.0847
12863SOL    HW239168   3.378   4.695   7.334  0.2838 -0.6251  3.2285
12864SOL     OW39169   6.233   1.130   1.547  0.1452 -0.1975 -0.4666
12864SOL    HW139170   6.165   1.088   1.600  0.8540 -0.0870  0.5394
12864SOL    HW239171   6.288   1.176   1.610 -0.6946  2.4459 -1.4902
12865SOL     OW39172   3.709   2.098   2.683 -0.0016  0.0445 -0.2102
12865SOL    HW139173   3.619   2.075   2.704 -0.7561  1.8929 -1.1727
12865SOL    HW239174   3.746   2.131   2.765 -0.1729 -0.6779  0.1734
12866SOL     OW39175   8.175   9.230   2.005  0.1122  0.5592  0.2872
12866SOL    HW139176   8.219   9.225   1.920  0.3606 -0.1931  0.4576
12866SOL    HW239177   8.129   9.315   2.003 -2.9259 -0.9309 -2.0862
12867SOL     OW39178   7.617   4.636   0.514 -0.2982  0.2570  0.1001
12867SOL    HW139179   7.579   4.677   0.591  0.6138 -0.6427  1.0806
12867SOL    HW239180   7.545   4.590   0.472 -0.8750  1.0481  0.2179
12868SOL     OW39181   7.661   5.624   7.795 -0.0565  0.3522  0.4815
12868SOL    HW139182   7.654   5.718   7.813  0.9494  0.0170  3.1947
12868SOL    HW239183   7.741   5.597   7.840 -0.8084 -1.9704  0.5712
12869SOL     OW39184   3.593   5.245   5.673  0.0114  0.1761 -0.3573
12869SOL    HW139185   3.520   5.225   5.615  0.7716 -1.9885 -0.6530
12869SOL    HW239186   3.667   5.197   5.636  0.9327  0.1543  1.4213
12870SOL     OW39187   1.173   9.486   0.451 -0.1350 -0.3383 -0.2212
12870SOL    HW139188   1.141   9.396   0.460 -3.2599  0.7299  0.6071
12870SOL    HW239189   1.193   9.514   0.540  0.2357  0.0010 -0.4080
12871SOL     OW39190   5.091   8.737   4.476 -0.5758  0.5001  0.3530
12871SOL    HW139191   5.124   8.732   4.387  0.1802 -0.2824  0.6593
12871SOL    HW239192   5.166   8.767   4.528 -0.6100 -0.3320  0.9098
12872SOL     OW39193   1.987   3.804   6.679 -0.0126 -0.5124  0.3062
12872SOL    HW139194   1.957   3.719   6.648 -1.0645  0.3833 -1.2922
12872SOL    HW239195   2.048   3.834   6.612  0.2343  0.0498  0.7728
12873SOL     OW39196   9.726   1.437   2.696 -0.2576  0.2785  0.3929
12873SOL    HW139197   9.774   1.356   2.680  0.3809  0.5650  0.8429
12873SOL    HW239198   9.782   1.488   2.755 -1.4259  0.2981  1.5607
12874SOL     OW39199   9.517   6.294   1.676  0.5612  0.1752  0.4505
12874SOL    HW139200   9.486   6.311   1.764  0.0931 -0.6364  0.4527
12874SOL    HW239201   9.542   6.380   1.642  0.7202  0.4981  1.3536
12875SOL     OW39202   7.462   8.140   0.988  0.6382 -0.8409  0.2823
12875SOL    HW139203   7.474   8.045   0.988 -3.6578 -1.6095  1.0599
12875SOL    HW239204   7.479   8.167   0.898 -0.5580 -2.8354 -0.5993
12876SOL     OW39205   4.003   4.498   7.960  1.0005  0.0483 -0.1831
12876SOL    HW139206   4.081   4.446   7.980 -0.2692 -1.6692  0.6253
12876SOL    HW239207   3.934   4.459   8.015 -0.0859  2.5203  0.3527
12877SOL     OW39208   8.592   9.963   1.320 -0.1280 -0.1964  0.0147
12877SOL    HW139209   8.552   9.917   1.246 -1.1205 -0.8089  0.9010
12877SOL    HW239210   8.672   9.915   1.339 -0.3675 -0.6212 -0.0492
12878SOL     OW39211   8.423   2.009   0.229 -0.3874 -0.3992 -0.2567
12878SOL    HW139212   8.362   2.058   0.173 -2.0576 -2.0474  0.0227
12878SOL    HW239213   8.448   2.071   0.297  0.4236  1.1574 -1.8684
12879SOL     OW39214   7.646   0.431   2.729  0.1369  0.5239  0.2423
12879SOL    HW139215   7.666   0.342   2.700  1.2863  2.0006 -4.3876
12879SOL    HW239216   7.551   0.438   2.719 -0.1976 -0.4892  2.1275
12880SOL     OW39217   0.602   8.342   8.139 -0.0475 -0.1146 -0.5414
12880SOL    HW139218   0.571   8.334   8.049  1.3887  0.2455 -1.0985
12880SOL    HW239219   0.557   8.419   8.173 -1.0996 -0.6332 -0.7150
12881SOL     OW39220   7.762   0.900   8.821  0.0736  0.1854 -0.1424
12881SOL    HW139221   7.726   0.988   8.807  0.2613  0.5765  1.5905
12881SOL    HW239222   7.691   0.851   8.861 -0.3967 -0.8371 -2.1058
12882SOL     OW39223   9.665   3.560   0.219 -0.1649 -0.3110  0.2284
12882SOL    HW139224   9.612   3.634   0.248 -0.9407 -1.3329  1.5502
12882SOL    HW239225   9.622   3.483   0.257  1.4173 -1.3224  0.0858
12883SOL     OW39226   6.429   1.478   9.618 -0.0150 -0.0804 -0.3815
12883SOL    HW139227   6.390   1.546   9.674 -0.8920 -0.8543 -0.0271
12883SOL    HW239228   6.413   1.396   9.665 -0.4487 -0.7137 -1.5938
12884SOL     OW39229   9.197   8.396   1.911  0.0880 -0.0180 -0.3687
12884SOL    HW139230   9.156   8.351   1.985 -0.4199 -0.2202 -0.7621
12884SOL    HW239231   9.267   8.449   1.950  0.7265 -1.1745  0.0987
12885SOL     OW39232   0.946   6.714   9.175  0.1937  0.2046  0.2279
12885SOL    HW139233   0.853   6.726   9.156 -0.3842 -2.4266  1.0290
12885SOL    HW239234   0.950   6.696   9.269  1.7661  2.0871  0.5873
12886SOL     OW39235   0.140   7.452   3.164 -0.1148 -0.1027  0.2063
12886SOL    HW139236   0.135   7.395   3.241  0.7967  1.7336  1.7107
12886SOL    HW239237   0.231   7.444   3.134 -0.2625 -0.2317 -0.2153
12887SOL     OW39238   2.750   8.739   7.983  0.4977 -0.3171  0.5683
12887SOL    HW139239   2.805   8.768   8.056  0.9232 -0.3597  0.2663
12887SOL    HW239240   2.759   8.644   7.981  1.7377 -0.2075 -0.5057
12888SOL     OW39241   4.848   6.887   6.428 -0.3300 -0.1233  0.0656
12888SOL    HW139242   4.903   6.882   6.350 -0.9576  0.4211 -0.4211
12888SOL    HW239243   4.766   6.845   6.402 -0.6229  0.2622  0.3654
12889SOL     OW39244   7.557   7.583   9.623  0.4373  0.1653 -0.3344
12889SOL    HW139245   7.626   7.633   9.579 -0.6402  2.4813  0.4230
12889SOL    HW239246   7.573   7.492   9.598  1.6714  1.0179 -2.9802
12890SOL     OW39247   3.897   0.587   3.979  0.0679 -0.2244  0.4487
12890SOL    HW139248   3.960   0.515   3.987  0.8326  0.4418  0.5880
12890SOL    HW239249   3.817   0.554   4.020  0.2141 -1.2018 -0.0014
12891SOL     OW39250   1.308   7.007   2.248  0.4588 -0.6080  0.1591
12891SOL    HW139251   1.274   6.969   2.168 -0.2615  0.6672 -0.1769
12891SOL    HW239252   1.402   6.986   2.248  0.9313  1.1444 -2.1212
12892SOL     OW39253   6.965   4.953   2.286  0.4416 -0.1527 -0.1825
12892SOL    HW139254   6.968   4.892   2.212  0.9082 -0.6466  0.2315
12892SOL    HW239255   6.911   5.025   2.255 -1.6276 -1.5696 -0.0762
12893SOL     OW39256   0.139   1.261   7.676 -0.1804  0.7545  0.0249
12893SOL    HW139257   0.162   1.342   7.721 -1.0153  1.4992 -0.8263
12893SOL    HW239258   0.106   1.204   7.745  0.4555  1.1130  0.6454
12894SOL     OW39259   6.913   3.026   3.395 -0.1770  0.0649 -0.1633
12894SOL    HW139260   6.990   3.083   3.384 -0.5967  0.7441  0.3183
12894SOL    HW239261   6.838   3.083   3.375 -0.8055  0.5507  3.0403
12895SOL     OW39262   0.960   6.942   4.557  0.0992 -0.1370  0.1596
12895SOL    HW139263   0.923   6.857   4.581  2.5142 -0.7852  1.8878
12895SOL    HW239264   1.023   6.922   4.488  1.0047  0.1505  0.8853
12896SOL     OW39265   9.850   3.299   3.018  0.2564 -0.0146  0.3911
12896SOL    HW139266   9.821   3.228   3.075 -0.2597  0.9486  1.3488
12896SOL    HW239267   9.946   3.298   3.025  0.3031 -1.1212 -0.2410
12897SOL     OW39268   1.516   6.338   8.532  0.3836 -0.4430 -0.4775
12897SOL    HW139269   1.440   6.306   8.484 -0.5978  1.7424 -0.5019
12897SOL    HW239270   1.489   6.336   8.624  0.8998 -1.1779 -0.3387
12898SOL     OW39271   8.953   0.372   8.568  0.1310 -0.5309 -0.4573
12898SOL    HW139272   9.017   0.304   8.589 -0.3962 -0.5807  1.0460
12898SOL    HW239273   8.900   0.381   8.646 -0.3173  1.0779 -0.9010
12899SOL     OW39274   6.756   4.230   5.927  0.0451 -0.4705  0.2337
12899SOL    HW139275   6.794   4.298   5.872 -0.2586 -0.7861 -0.3690
12899SOL    HW239276   6.763   4.150   5.876  0.0483 -0.8304  0.7822
12900SOL     OW39277   3.546   1.187   8.323  0.0765  0.3971 -0.0229
12900SOL    HW139278   3.469   1.130   8.322  1.1332 -1.0701 -0.3649
12900SOL    HW239279   3.565   1.204   8.231  1.5958 -1.2934 -0.0603
12901SOL     OW39280   9.416   5.388   2.518 -0.5142  0.2742 -0.0294
12901SOL    HW139281   9.386   5.390   2.427 -0.2018  1.1710 -0.1233
12901SOL    HW239282   9.383   5.470   2.555 -1.8650 -0.7188  1.0815
12902SOL     OW39283   7.816   8.811   9.303  0.8867 -0.1487  0.3813
12902SOL    HW139284   7.750   8.744   9.286  0.3345  0.4752 -0.0198
12902SOL    HW239285   7.867   8.815   9.222  1.0582 -0.2293  0.4832
12903SOL     OW39286   0.727   6.532   6.711 -0.3707 -0.7885 -0.1472
12903SOL    HW139287   0.692   6.444   6.717 -0.8919 -0.6262 -0.7616
12903SOL    HW239288   0.677   6.574   6.641  0.6639 -0.3671 -0.6501
12904SOL     OW39289   1.628   0.217   4.158 -0.0035  0.1334 -0.5479
12904SOL    HW139290   1.699   0.159   4.130  0.6568  0.8869 -0.4438
12904SOL    HW239291   1.613   0.194   4.250 -0.7805 -0.9134 -0.9125
12905SOL     OW39292   0.847   6.408   4.157 -0.0832  0.0995  0.0412
12905SOL    HW139293   0.908   6.473   4.193  1.7677 -0.9692 -1.0247
12905SOL    HW239294   0.810   6.450   4.080 -0.2034  0.5223  0.3259
12906SOL     OW39295   1.647   1.281   7.749 -0.3283  0.1008  0.2767
12906SOL    HW139296   1.714   1.268   7.682  0.8739 -2.8186  1.8617
12906SOL    HW239297   1.588   1.207   7.739 -0.6530  0.1131  1.8025
12907SOL     OW39298   1.858   7.710   1.527 -0.1038 -0.7584  0.4099
12907SOL    HW139299   1.844   7.617   1.506 -0.9642 -0.2924 -1.2300
12907SOL    HW239300   1.852   7.755   1.443  0.9868  0.7287  1.0861
12908SOL     OW39301   0.927   6.423   0.118  0.1604  0.3888 -0.2218
12908SOL    HW139302   0.887   6.505   0.146 -0.3687 -0.2663  1.0326
12908SOL    HW239303   0.902   6.360   0.186 -0.6933 -1.1727 -1.8856
12909SOL     OW39304   6.612   5.954   4.628  0.5437 -0.4420  0.0229
12909SOL    HW139305   6.655   6.039   4.639  2.3086 -0.9963 -1.8196
12909SOL    HW239306   6.574   5.934   4.713  2.8649  0.7396  1.4383
12910SOL     OW39307   5.093   4.678   2.185 -0.5971  0.4109  0.0892
12910SOL    HW139308   5.155   4.727   2.240  0.2543 -0.7396  0.1714
12910SOL    HW239309   5.044   4.746   2.139  1.0531  1.3528 -0.3564
12911SOL     OW39310   0.178   0.192   2.055  0.3103 -0.1804 -0.5424
12911SOL    HW139311   0.154   0.205   1.963  0.8583  0.9676 -0.5418
12911SOL    HW239312   0.248   0.127   2.053 -0.2413 -0.7749 -0.8581
12912SOL     OW39313   0.366   8.330   3.608 -0.0286  0.3953  0.8846
12912SOL    HW139314   0.449   8.282   3.605 -1.0661 -1.4932  0.6979
12912SOL    HW239315   0.367   8.385   3.529  0.2078 -1.0979 -0.1934
12913SOL     OW39316   2.094   3.419   6.763  0.4622 -0.1748  0.0412
12913SOL    HW139317   2.079   3.460   6.678  1.4018 -1.0345 -0.5583
12913SOL    HW239318   2.174   3.460   6.796  0.6281 -0.5202  0.0740
12914SOL     OW39319   1.516   0.974   8.228  0.0722 -0.3512 -0.0557
12914SOL    HW139320   1.589   1.030   8.254 -1.5728  2.2875 -0.7747
12914SOL    HW239321   1.517   0.975   8.133 -0.1754 -1.3636 -0.0868
12915SOL     OW39322   0.786   6.379   4.901 -0.3554  0.5336  0.0850
12915SOL    HW139323   0.748   6.386   4.988 -0.5105 -0.3615  0.1064
12915SOL    HW239324   0.864   6.325   4.913 -0.8713 -0.3668 -0.4553
12916SOL     OW39325   4.871   6.846   9.885  0.0922 -0.1350  0.5092
12916SOL    HW139326   4.818   6.921   9.856 -0.7389 -1.2001 -0.8871
12916SOL    HW239327   4.945   6.885   9.931 -0.9732  1.4899  0.9341
12917SOL     OW39328   3.696   0.258   8.547  0.1603 -0.0015  0.0520
12917SOL    HW139329   3.726   0.288   8.633 -2.3146  0.4765  0.8494
12917SOL    HW239330   3.651   0.335   8.511  0.1947 -0.5535 -1.1946
12918SOL     OW39331   8.158   8.302   3.004 -0.2875 -0.1552 -0.1580
12918SOL    HW139332   8.138   8.384   3.050  0.0020 -1.7745  3.1007
12918SOL    HW239333   8.254   8.296   3.007 -0.2626 -0.3195 -1.0153
12919SOL     OW39334   9.845   1.908   4.250  0.1689  0.1448  0.0009
12919SOL    HW139335   9.846   1.932   4.342  1.3326  1.0923 -0.2286
12919SOL    HW239336   9.880   1.985   4.205 -0.5067 -0.2490 -1.2480
12920SOL     OW39337   3.266   8.076   9.910 -0.3362 -0.0930  0.4765
12920SOL    HW139338   3.173   8.092   9.894  0.2285  1.0177 -2.2134
12920SOL    HW239339   3.276   7.982   9.901 -0.9527 -0.0495 -0.9544
12921SOL     OW39340   8.682   5.151   3.067  0.3717  0.3345  0.1852
12921SOL    HW139341   8.618   5.218   3.044  0.3337  0.2280 -0.0249
12921SOL    HW239342   8.645   5.108   3.144 -1.7768 -2.2849 -2.0766
12922SOL     OW39343   8.503   1.783   4.309 -0.6425 -0.1390 -0.0253
12922SOL    HW139344   8.464   1.833   4.238 -0.4669  1.0393  0.6843
12922SOL    HW239345   8.472   1.826   4.389  0.4848 -0.4101  0.5790
12923SOL     OW39346   8.648   9.657   3.417 -0.0536  0.2612 -0.1461
12923SOL    HW139347   8.650   9.613   3.332  1.8722  0.0738 -0.0404
12923SOL    HW239348   8.621   9.747   3.396  0.5508  0.2631 -0.9872
12924SOL     OW39349   9.399   9.221   8.814  0.1684  0.1398 -0.2931
12924SOL    HW139350   9.360   9.308   8.809 -0.7709  0.0070  2.8374
12924SOL    HW239351   9.462   9.227   8.886 -0.0685 -1.8155  0.1318
12925SOL     OW39352   7.256   6.211   1.238 -0.4194  0.0763  0.3788
12925SOL    HW139353   7.345   6.184   1.261 -0.0145  1.2677  0.3066
12925SOL    HW239354   7.200   6.165   1.300  0.1820 -1.2061  0.0033
12926SOL     OW39355   2.778   6.398   3.193  0.5104 -0.2857 -0.2472
12926SOL    HW139356   2.724   6.476   3.187  2.0440  0.7518 -1.0711
12926SOL    HW239357   2.751   6.344   3.119  0.7121  0.2849 -0.7325
12927SOL     OW39358   9.209   9.294   7.031 -0.9235  0.3916 -0.7918
12927SOL    HW139359   9.179   9.311   7.121 -0.8377  0.3309 -0.7518
12927SOL    HW239360   9.200   9.379   6.987  0.1728  0.7225 -0.3975
12928SOL     OW39361   4.309   0.619   8.149  0.2746  0.3682 -0.5521
12928SOL    HW139362   4.272   0.707   8.162 -0.8028  0.0457 -1.3245
12928SOL    HW239363   4.233   0.561   8.145  0.8450 -0.3394 -1.9765
12929SOL     OW39364   0.688   1.587   1.802  0.2891  0.2650 -0.0331
12929SOL    HW139365   0.593   1.591   1.813  0.0526  0.4388 -1.8755
12929SOL    HW239366   0.715   1.679   1.799  0.8671  0.2837  2.6352
12930SOL     OW39367   6.017   5.547   7.399  0.0188 -0.2937 -0.0563
12930SOL    HW139368   6.015   5.605   7.475  3.9246 -0.5246  0.4203
12930SOL    HW239369   5.990   5.602   7.325 -1.7622  0.4976  1.1307
12931SOL     OW39370   0.961   6.487   5.894 -0.9122 -0.3403  0.1726
12931SOL    HW139371   1.016   6.489   5.816  0.8693 -1.0447  1.3555
12931SOL    HW239372   0.932   6.396   5.900 -0.1383 -0.5516  0.9076
12932SOL     OW39373   7.911   3.971   0.357  0.1414 -0.1095 -0.4964
12932SOL    HW139374   7.939   3.888   0.395  0.4938  0.7672  1.2958
12932SOL    HW239375   7.823   3.984   0.393  0.5575  0.8437  0.1965
12933SOL     OW39376   7.331   5.270   4.986  0.1310  0.4986 -0.2603
12933SOL    HW139377   7.282   5.349   5.009  0.1597  0.2741  0.5896
12933SOL    HW239378   7.265   5.203   4.972  0.0774  0.7674 -1.4396
12934SOL     OW39379   2.294   7.374   2.041 -0.0667  0.0337  0.2705
12934SOL    HW139380   2.212   7.419   2.063  0.3310  0.3107  1.2662
12934SOL    HW239381   2.338   7.433   1.980 -0.9305 -0.4633 -0.8569
12935SOL     OW39382   3.255   7.769   3.809  0.2705  0.2283  0.0059
12935SOL    HW139383   3.264   7.776   3.904  1.9341 -3.4681  0.2864
12935SOL    HW239384   3.344   7.775   3.775 -0.2888  1.4460 -1.3567
12936SOL     OW39385   6.864   6.070   1.368  0.2939  0.2196  0.4554
12936SOL    HW139386   6.959   6.056   1.361  0.1173 -0.1097 -3.3722
12936SOL    HW239387   6.850   6.157   1.333 -0.9049 -0.1946 -0.1500
12937SOL     OW39388   3.249   5.451  -0.036  0.4650 -0.0326 -0.3175
12937SOL    HW139389   3.323   5.432   0.021 -0.5515 -2.0864  0.4263
12937SOL    HW239390   3.173   5.447   0.022 -0.4260 -0.2660 -1.4657
12938SOL     OW39391   7.054   2.731   6.977 -0.3148 -0.6014  0.5048
12938SOL    HW139392   7.011   2.817   6.983  0.1467 -0.1909 -1.4367
12938SOL    HW239393   6.987   2.673   6.940  0.1140 -0.4484 -0.5623
12939SOL     OW39394   1.786   5.237   1.308 -0.2826 -0.1112  0.3164
12939SOL    HW139395   1.725   5.249   1.381  0.3266  1.2634  0.6295
12939SOL    HW239396   1.870   5.219   1.350 -0.2029 -0.7519 -0.0924
12940SOL     OW39397   8.931   8.331   4.273  0.0571  0.7213 -0.0667
12940SOL    HW139398   8.984   8.404   4.241 -1.0941  2.8430  2.4595
12940SOL    HW239399   8.988   8.284   4.334  0.2429  0.6162 -0.3216
12941SOL     OW39400   1.626   6.849   2.502  0.0743 -0.1555 -0.3931
12941SOL    HW139401   1.637   6.816   2.591 -1.1909  1.7991  0.5591
12941SOL    HW239402   1.710   6.831   2.459  1.7535  1.1959  2.0292
12942SOL     OW39403   7.718   5.280   1.531 -0.2976 -0.6148 -0.3103
12942SOL    HW139404   7.787   5.269   1.597 -1.1485 -1.9384  0.3912
12942SOL    HW239405   7.759   5.253   1.449  1.0655  1.9258 -0.5838
12943SOL     OW39406   3.341   1.502   9.116 -0.2728 -0.4512  0.6277
12943SOL    HW139407   3.356   1.478   9.025 -0.0925  0.4662  0.3999
12943SOL    HW239408   3.351   1.598   9.117  1.4825 -0.5987  1.9298
12944SOL     OW39409   8.612   6.111   4.170 -0.0394  0.5311 -0.1562
12944SOL    HW139410   8.622   6.202   4.198  1.4763  0.1836  0.5154
12944SOL    HW239411   8.684   6.064   4.212 -1.4466 -1.2275  0.4667
12945SOL     OW39412   6.629   5.259   2.076 -0.2187 -0.1896  0.3620
12945SOL    HW139413   6.629   5.262   1.980 -0.6379 -0.7834  0.3440
12945SOL    HW239414   6.669   5.342   2.102  1.8431 -0.9026 -0.3518
12946SOL     OW39415   8.310   7.423   3.126 -0.4060  0.1338  0.6519
12946SOL    HW139416   8.369   7.440   3.052  0.1005 -0.2076  0.9689
12946SOL    HW239417   8.242   7.366   3.089  1.1750 -2.1024  0.9857
12947SOL     OW39418   8.107   6.937   0.045 -0.3203  0.0840 -0.1214
12947SOL    HW139419   8.087   6.859   0.097  1.4370  0.5891  1.4451
12947SOL    HW239420   8.059   7.008   0.089  0.3855  0.3524  0.2250
12948SOL     OW39421   5.865   3.306   8.655  0.0229  0.6983  0.6683
12948SOL    HW139422   5.823   3.290   8.571  1.1090  0.7899  0.0901
12948SOL    HW239423   5.862   3.221   8.700 -0.2832  0.5741  0.4192
12949SOL     OW39424   1.853   0.649   8.902 -0.1938  0.1242  0.3382
12949SOL    HW139425   1.794   0.579   8.930  0.6569 -0.4196  0.8349
12949SOL    HW239426   1.809   0.730   8.929  0.1558 -0.3300  2.4981
12950SOL     OW39427   9.076   0.068   3.644  0.5835  0.1944  0.4612
12950SOL    HW139428   9.019   0.046   3.718 -1.0342  1.0841 -0.4745
12950SOL    HW239429   9.161   0.084   3.684  0.0088 -0.4023  2.0026
12951SOL     OW39430   8.005   5.762   6.385 -0.5164  0.7761  0.2832
12951SOL    HW139431   7.993   5.830   6.452 -0.3920 -0.2419  1.3588
12951SOL    HW239432   8.052   5.692   6.430 -1.0862 -0.2423 -0.6699
12952SOL     OW39433   1.750   0.726   7.070  0.2712 -0.3344 -0.2099
12952SOL    HW139434   1.707   0.778   7.138  1.7442  0.7810 -0.1030
12952SOL    HW239435   1.802   0.661   7.118  0.0396 -0.5989 -0.3116
12953SOL     OW39436   2.339   7.831   8.598  0.5139 -0.0972 -0.2635
12953SOL    HW139437   2.411   7.770   8.617  0.2610 -0.3525 -0.1217
12953SOL    HW239438   2.260   7.776   8.600  0.4055  0.0118 -1.3078
12954SOL     OW39439   5.393   6.461   3.212  0.1137  0.4497 -0.4306
12954SOL    HW139440   5.458   6.394   3.232 -0.3001  0.3690  0.7051
12954SOL    HW239441   5.314   6.411   3.191 -0.3459  0.5591  0.9397
12955SOL     OW39442   5.352   2.134   7.470  0.0434  0.5743 -0.5590
12955SOL    HW139443   5.411   2.155   7.542 -0.2158  1.8361 -0.6909
12955SOL    HW239444   5.304   2.215   7.454 -0.0819  0.2458 -1.9923
12956SOL     OW39445   4.848   6.661   1.452 -0.2568  0.5327  0.2557
12956SOL    HW139446   4.937   6.628   1.440 -0.5698 -0.2100 -0.1035
12956SOL    HW239447   4.810   6.605   1.520 -0.3929  0.9479  0.5211
12957SOL     OW39448   6.680   4.971   0.528  0.1923 -0.4645  0.6121
12957SOL    HW139449   6.593   4.977   0.489  1.1491 -1.0527 -1.8170
12957SOL    HW239450   6.692   5.054   0.574 -1.0564  0.2761 -0.3398
12958SOL     OW39451   1.637   9.318   9.102  0.1784 -0.1861  0.3590
12958SOL    HW139452   1.594   9.393   9.144  0.5640 -0.1364  0.6697
12958SOL    HW239453   1.657   9.349   9.013  0.1632  0.0118  0.4242
12959SOL     OW39454   8.775   0.348   4.331 -0.4696 -0.9956 -0.0740
12959SOL    HW139455   8.845   0.412   4.343  0.8144 -2.1995 -0.7828
12959SOL    HW239456   8.784   0.288   4.405 -0.5977 -1.2924 -0.2975
12960SOL     OW39457   1.376   7.419   3.802 -0.0298 -0.8559 -0.4407
12960SOL    HW139458   1.461   7.385   3.828 -0.8448 -2.3969  0.3720
12960SOL    HW239459   1.333   7.444   3.884 -0.0040  0.9062 -0.9145
12961SOL     OW39460   3.013   7.599   5.616 -0.6521  0.1659  0.2388
12961SOL    HW139461   3.103   7.628   5.606 -0.1163 -1.6713 -0.6982
12961SOL    HW239462   2.968   7.630   5.537  0.0637 -1.9004 -1.0618
12962SOL     OW39463   0.564   5.088   9.262  0.1906 -0.0287 -0.3855
12962SOL    HW139464   0.556   5.183   9.275  0.9497 -0.0090 -0.0077
12962SOL    HW239465   0.619   5.080   9.185  1.8015 -0.1452  0.7278
12963SOL     OW39466   4.247   4.326   8.893  0.3610 -0.6571  0.6363
12963SOL    HW139467   4.221   4.362   8.977  0.3774 -0.4187  0.5392
12963SOL    HW239468   4.330   4.281   8.910  1.0825  0.5546  0.4726
12964SOL     OW39469   0.043   5.568   7.587 -0.6341 -0.0472  0.1302
12964SOL    HW139470   0.116   5.506   7.590  1.8392  2.6448  1.8178
12964SOL    HW239471   0.036   5.593   7.495  1.2978  0.3268  0.0369
12965SOL     OW39472   2.407   0.811   0.895  0.2240 -0.2071  0.3707
12965SOL    HW139473   2.408   0.854   0.810 -1.6611 -0.4212  0.1874
12965SOL    HW239474   2.499   0.800   0.918  0.7669  0.2114 -1.4538
12966SOL     OW39475   5.371   8.572   6.160 -0.0108  0.0232  0.0898
12966SOL    HW139476   5.354   8.630   6.234  0.2576  0.7948 -0.4440
12966SOL    HW239477   5.465   8.582   6.142  0.0061 -0.4536 -0.1131
12967SOL     OW39478   0.971   1.329   7.332 -0.0051 -0.4733  0.0464
12967SOL    HW139479   1.019   1.255   7.369 -1.7408 -1.2439  0.8928
12967SOL    HW239480   0.988   1.323   7.238  0.5008 -1.5073  0.1821
12968SOL     OW39481   1.530   0.585   6.500 -0.1062  0.2100 -0.3465
12968SOL    HW139482   1.613   0.539   6.488  0.7733  1.8340 -0.7852
12968SOL    HW239483   1.465   0.530   6.456  0.9913 -0.3190 -1.3427
12969SOL     OW39484   4.007   6.868   7.528  0.5658 -0.2197  0.1800
12969SOL    HW139485   3.973   6.779   7.532  2.6853 -1.1246 -0.5605
12969SOL    HW239486   3.995   6.895   7.437  0.0662  0.1979  0.3668
12970SOL     OW39487   2.091   5.734   9.623  0.0940  0.5533  0.4475
12970SOL    HW139488   2.073   5.744   9.717 -0.0955  0.6776  0.3973
12970SOL    HW239489   2.008   5.707   9.585  1.0053 -3.6049  0.8989
12971SOL     OW39490   0.850   3.509   4.993  0.2119  0.2004  0.0054
12971SOL    HW139491   0.830   3.423   5.030  0.5835 -0.4242 -1.1885
12971SOL    HW239492   0.931   3.496   4.944  0.6729  1.4192  0.4118
12972SOL     OW39493   8.170   2.393   0.692  0.3783 -0.5583  0.1279
12972SOL    HW139494   8.124   2.452   0.632 -0.0839 -0.9721  0.0640
12972SOL    HW239495   8.189   2.448   0.769 -2.1718 -0.8755  1.0856
12973SOL     OW39496   6.966   7.307   9.535 -0.2568 -0.3930  0.0918
12973SOL    HW139497   6.898   7.296   9.468  0.2764  0.2931 -0.5741
12973SOL    HW239498   6.983   7.218   9.566 -0.5013 -0.7244 -0.6852
12974SOL     OW39499   6.167   1.440   6.496  0.1665  0.0133 -0.2999
12974SOL    HW139500   6.237   1.500   6.520  0.2719 -0.4575  0.6405
12974SOL    HW239501   6.212   1.360   6.469  0.0075 -0.4946  0.8743
12975SOL     OW39502   3.966   5.724   2.548  0.4039  0.1071  0.0189
12975SOL    HW139503   3.944   5.745   2.638  1.1698  1.2022 -0.0417
12975SOL    HW239504   4.020   5.645   2.554 -0.7268 -0.6711  0.3910
12976SOL     OW39505   2.967   3.185   7.068  0.0432  0.3789 -0.5200
12976SOL    HW139506   2.966   3.099   7.026  1.9619  0.6916 -1.2729
12976SOL    HW239507   2.900   3.235   7.021 -2.1336 -1.0405  0.8427
12977SOL     OW39508   5.957   9.764   0.961 -0.1814 -0.1285  0.2658
12977SOL    HW139509   6.024   9.697   0.943 -0.8603 -0.7581  0.0216
12977SOL    HW239510   5.883   9.714   0.996 -0.2654  0.6468  1.2004
12978SOL     OW39511   9.690   9.052   0.969  0.5138 -0.3745 -0.1037
12978SOL    HW139512   9.670   8.974   1.020  1.4859 -0.1673  0.6050
12978SOL    HW239513   9.770   9.087   1.007  0.0680  1.0118 -0.3602
12979SOL     OW39514   9.307   1.626   1.241 -0.3636  0.2334 -0.7606
12979SOL    HW139515   9.372   1.692   1.214 -1.7053  1.5625 -0.8889
12979SOL    HW239516   9.228   1.677   1.259 -0.4568 -0.8994  2.7805
12980SOL     OW39517   1.684   6.694   8.911  0.0657 -0.6504 -0.2744
12980SOL    HW139518   1.757   6.634   8.928 -0.1993 -0.7264  0.6643
12980SOL    HW239519   1.704   6.732   8.825  1.6397 -0.0394  0.3263
12981SOL     OW39520   3.852   1.510   5.376  0.4993 -0.6001  0.8496
12981SOL    HW139521   3.779   1.548   5.327 -0.1385  1.1497  2.9850
12981SOL    HW239522   3.917   1.487   5.309 -1.5628 -1.2791 -1.0258
12982SOL     OW39523   9.522   8.470   9.051  0.5771  0.1721 -0.1856
12982SOL    HW139524   9.522   8.486   8.957  0.6898  1.1922 -0.0207
12982SOL    HW239525   9.561   8.383   9.060 -1.0902 -0.7213 -1.1885
12983SOL     OW39526   2.410   2.854   2.240 -0.4321  0.6139  0.2157
12983SOL    HW139527   2.448   2.782   2.189 -0.4479  0.3214  0.6157
12983SOL    HW239528   2.334   2.816   2.283 -1.0175  1.1199 -0.3403
12984SOL     OW39529   4.374   7.293   9.268  0.4690  0.5915  0.0566
12984SOL    HW139530   4.305   7.303   9.202  1.4545  0.7064 -0.9998
12984SOL    HW239531   4.350   7.353   9.338 -0.6747  0.3747 -0.1258
12985SOL     OW39532   7.718   5.487   5.796 -0.1497 -0.0515 -0.8899
12985SOL    HW139533   7.676   5.566   5.829  1.0931  0.7002 -1.0392
12985SOL    HW239534   7.646   5.426   5.781 -1.0550  0.7582  0.0086
12986SOL     OW39535   3.292   4.556   7.075 -0.5264  0.3416 -0.1941
12986SOL    HW139536   3.364   4.598   7.122 -0.1604 -1.7201  1.2234
12986SOL    HW239537   3.214   4.605   7.103 -0.1273  0.1190  1.4445
12987SOL     OW39538   7.521   3.151   3.750  0.2446  0.3680  0.5699
12987SOL    HW139539   7.581   3.223   3.770  0.3715  0.5196 -0.3126
12987SOL    HW239540   7.490   3.170   3.661 -1.5439  0.5877  1.2039
12988SOL     OW39541   4.836   3.067   4.030 -0.2081  0.2372  0.2681
12988SOL    HW139542   4.806   3.064   3.940 -0.3553 -0.2885  0.3295
12988SOL    HW239543   4.932   3.066   4.025 -0.2196 -0.7623  0.1417
12989SOL     OW39544   0.756   1.339   1.905  0.2042 -0.0361  0.5988
12989SOL    HW139545   0.784   1.342   1.997  1.4016  2.1386  0.2123
12989SOL    HW239546   0.770   1.427   1.873 -3.0232  0.0672 -0.8990
12990SOL     OW39547   0.634   7.451   6.245  0.3628 -0.6904  0.0067
12990SOL    HW139548   0.653   7.526   6.303 -2.3409 -0.2259  0.4368
12990SOL    HW239549   0.683   7.470   6.165 -0.6402  1.8943 -0.1112
12991SOL     OW39550   8.326   3.351   5.997 -0.4311  0.2107 -0.1496
12991SOL    HW139551   8.415   3.332   5.967 -0.0948  0.4970  0.6265
12991SOL    HW239552   8.276   3.369   5.918  0.6295  1.8661 -0.4856
12992SOL     OW39553   5.837   8.698   8.873 -0.1178 -0.5321 -0.5722
12992SOL    HW139554   5.897   8.660   8.936 -0.2665 -1.6120 -1.0631
12992SOL    HW239555   5.888   8.766   8.829  0.7155 -1.3311 -0.8730
12993SOL     OW39556   3.647   9.692   3.157 -0.7308  0.1322 -0.3107
12993SOL    HW139557   3.625   9.746   3.081 -1.1574  0.9930  0.4027
12993SOL    HW239558   3.626   9.747   3.232  1.8408  0.1988  0.4619
12994SOL     OW39559   9.772   4.028   3.714 -0.0277  0.3817  0.4627
12994SOL    HW139560   9.683   4.047   3.684  0.4645  0.2967 -1.1004
12994SOL    HW239561   9.768   3.938   3.746 -0.7925  0.8158  1.6740
12995SOL     OW39562   8.934   1.581   3.496 -0.0641 -0.2775 -0.7795
12995SOL    HW139563   8.847   1.594   3.460 -0.6072  1.4934  0.9619
12995SOL    HW239564   8.986   1.652   3.458  0.1896 -0.3596 -0.5875
12996SOL     OW39565   8.634   3.039   7.505 -0.6530 -0.2419 -0.4889
12996SOL    HW139566   8.729   3.049   7.513 -0.6766  0.0829 -0.6026
12996SOL    HW239567   8.598   3.116   7.550 -0.8341  0.3279 -1.5832
12997SOL     OW39568   4.383   0.607   2.476 -0.3363  0.3699 -0.4630
12997SOL    HW139569   4.405   0.685   2.426 -1.4930 -0.2835 -2.0521
12997SOL    HW239570   4.380   0.637   2.567  3.9510  1.1707 -0.3481
12998SOL     OW39571   8.311   1.205   2.714  0.0283 -0.5481 -0.5034
12998SOL    HW139572   8.339   1.191   2.805  0.1396 -1.9299 -0.7255
12998SOL    HW239573   8.225   1.163   2.709  0.1316 -0.6991 -1.0948
12999SOL     OW39574   4.971   4.947   2.867 -0.1333 -0.6201  0.0209
12999SOL    HW139575   4.940   4.931   2.956 -1.0657 -0.2006 -0.2151
12999SOL    HW239576   5.021   5.028   2.873  0.6645 -1.1202  0.3391
13000SOL     OW39577   4.478   5.161   3.409  0.6194 -0.0074 -0.0013
13000SOL    HW139578   4.515   5.250   3.404  2.6263 -0.8162 -0.4254
13000SOL    HW239579   4.488   5.126   3.321 -0.1222 -0.6934  0.1777
13001SOL     OW39580   0.254   0.130   2.337 -0.1205 -0.0389 -0.2103
13001SOL    HW139581   0.224   0.194   2.274 -1.2567  0.5416  0.8771
13001SOL    HW239582   0.229   0.045   2.300 -0.7885  0.2975 -0.5334
13002SOL     OW39583   8.156   5.914   9.094 -0.1245 -0.1705 -0.1305
13002SOL    HW139584   8.229   5.973   9.080  1.4786 -2.0993 -0.4116
13002SOL    HW239585   8.118   5.940   9.177  0.8954  0.8726  0.0223
13003SOL     OW39586   2.645   6.744   2.149 -0.2750  0.1803 -0.0589
13003SOL    HW139587   2.727   6.696   2.135 -0.2242  0.1157  0.4614
13003SOL    HW239588   2.660   6.829   2.108 -0.5958 -0.4572 -1.5793
13004SOL     OW39589   0.759   2.097   5.405 -0.2005  0.4187 -0.4397
13004SOL    HW139590   0.763   2.192   5.395  0.5830  0.7133  2.0642
13004SOL    HW239591   0.847   2.073   5.434  0.0758 -1.3300 -2.4607
13005SOL     OW39592   6.115   7.975   0.123  0.2229  0.0418 -0.1972
13005SOL    HW139593   6.162   7.893   0.138 -0.9720 -1.3198 -3.1278
13005SOL    HW239594   6.173   8.026   0.066  0.2611  0.5463  0.2839
13006SOL     OW39595   4.585   0.232   1.824  0.1250  0.2477  0.6499
13006SOL    HW139596   4.611   0.324   1.834 -1.4828  0.6284  1.6396
13006SOL    HW239597   4.624   0.205   1.741 -3.1569  3.2584 -2.2243
13007SOL     OW39598   8.632   3.615   8.409  0.1980 -0.2184 -0.0717
13007SOL    HW139599   8.560   3.672   8.384  0.2889 -0.3069 -0.5375
13007SOL    HW239600   8.696   3.623   8.338 -0.0567 -1.3627 -0.4613
13008SOL     OW39601   9.882   5.599   6.961 -0.1753 -0.3195 -0.4236
13008SOL    HW139602   9.952   5.551   6.916 -0.4883 -0.9143 -0.2866
13008SOL    HW239603   9.839   5.533   7.015  0.4848  0.4644  1.1296
13009SOL     OW39604   0.999   3.711   0.904 -0.0260 -0.5541  0.0248
13009SOL    HW139605   0.929   3.731   0.842 -0.1293 -1.4673 -0.1593
13009SOL    HW239606   1.079   3.736   0.858 -0.2326  1.1544  0.4963
13010SOL     OW39607   3.730   4.301   3.228 -0.2535  0.6578 -0.0536
13010SOL    HW139608   3.807   4.338   3.184  0.5702 -0.2305  0.5989
13010SOL    HW239609   3.699   4.372   3.286  1.0648  0.4912  0.8902
13011SOL     OW39610   4.802   3.943   8.635  0.5736 -0.4407  0.0158
13011SOL    HW139611   4.732   3.984   8.686  0.3714 -1.5326  0.6352
13011SOL    HW239612   4.757   3.883   8.576  0.8876  0.0543 -0.7534
13012SOL     OW39613   2.087   6.884   2.857 -0.1532  0.0131  0.2405
13012SOL    HW139614   2.034   6.942   2.912  1.1813  1.0111  0.5379
13012SOL    HW239615   2.118   6.940   2.785 -0.7534 -0.9327 -0.7827
13013SOL     OW39616   9.435   6.026   3.384 -0.1983  0.4683 -0.3080
13013SOL    HW139617   9.386   6.105   3.362 -0.4531  0.6015  0.6919
13013SOL    HW239618   9.502   6.020   3.315 -0.9626  0.8444 -1.1048
13014SOL     OW39619   1.447   1.671   2.514 -0.0116  0.3068 -0.0265
13014SOL    HW139620   1.436   1.582   2.548 -1.1849  0.0278 -1.0493
13014SOL    HW239621   1.362   1.692   2.474  0.2387  1.8924  0.1935
13015SOL     OW39622   6.589   5.526   1.610 -0.1105 -0.0821  1.0335
13015SOL    HW139623   6.629   5.612   1.619  1.0512 -0.4896  0.0593
13015SOL    HW239624   6.615   5.496   1.522 -2.6415 -0.3552  0.2833
13016SOL     OW39625   9.176   0.146   4.826  0.3445 -0.3773 -0.1443
13016SOL    HW139626   9.259   0.135   4.873 -0.4159 -2.2041  0.8525
13016SOL    HW239627   9.176   0.074   4.762  0.5121  0.9636 -1.7125
13017SOL     OW39628   0.035  -0.027   1.725 -0.7354  0.3652  0.1498
13017SOL    HW139629   0.094   0.048   1.737 -0.3325  0.0502  0.1479
13017SOL    HW239630  -0.052   0.013   1.715 -0.8355  0.7419  2.1566
13018SOL     OW39631   7.104   1.399   3.805 -0.1734  0.3972  0.5714
13018SOL    HW139632   7.144   1.313   3.788 -1.0659  0.0968 -0.0588
13018SOL    HW239633   7.155   1.460   3.751  0.1856  0.2066  0.6872
13019SOL     OW39634   8.258   2.182   1.133 -0.0505 -0.0208 -0.2541
13019SOL    HW139635   8.332   2.165   1.192 -0.5180 -0.8056  0.1113
13019SOL    HW239636   8.213   2.098   1.126 -0.3707  0.2160 -1.2349
13020SOL     OW39637   3.126   1.609   7.700  0.2936  0.8681 -0.0171
13020SOL    HW139638   3.214   1.627   7.734  0.8140  0.5442 -1.1431
13020SOL    HW239639   3.104   1.523   7.736  0.4037  0.9795  0.3241
13021SOL     OW39640   0.188   4.628   3.470 -0.1659  0.2731 -0.2948
13021SOL    HW139641   0.212   4.589   3.386 -1.9823 -0.6269 -0.4587
13021SOL    HW239642   0.105   4.671   3.453  0.5695  2.1012  0.5188
13022SOL     OW39643   0.710   0.455   3.629 -0.6783 -0.3454  0.3308
13022SOL    HW139644   0.656   0.464   3.707 -1.9290  1.9221 -0.7019
13022SOL    HW239645   0.660   0.398   3.571 -0.1012 -1.4110  0.8551
13023SOL     OW39646   8.537   8.831   9.049 -0.6428 -0.3504 -0.9555
13023SOL    HW139647   8.600   8.761   9.062 -0.5649 -0.2906 -1.0085
13023SOL    HW239648   8.492   8.809   8.967  0.2578  0.3186 -1.6584
13024SOL     OW39649   1.602   9.713   2.897 -0.2163  0.1156  0.5443
13024SOL    HW139650   1.507   9.721   2.910 -0.2067  2.1730 -0.3613
13024SOL    HW239651   1.610   9.681   2.807 -0.0356 -2.9483  1.5252
13025SOL     OW39652   8.940   8.268   6.140  0.0015  0.5028  0.2261
13025SOL    HW139653   8.879   8.194   6.146  2.6000 -1.7656  1.1047
13025SOL    HW239654   8.902   8.336   6.195 -2.0233 -0.5280  0.1751
13026SOL     OW39655   4.493   9.772   4.645 -0.2216 -0.1514 -0.8768
13026SOL    HW139656   4.462   9.747   4.732 -2.0022 -0.0368 -1.4387
13026SOL    HW239657   4.423   9.745   4.586  1.1214 -0.6024 -2.3514
13027SOL     OW39658   7.887   4.244   5.163 -0.0976  0.0274  0.1571
13027SOL    HW139659   7.792   4.242   5.177 -0.2685  0.6484 -0.7665
13027SOL    HW239660   7.917   4.158   5.191 -1.1072 -0.6093 -0.5906
13028SOL     OW39661   3.326   8.742   2.972  0.2345  0.4089  0.1080
13028SOL    HW139662   3.253   8.788   2.930 -0.5445 -0.4543  0.4904
13028SOL    HW239663   3.402   8.800   2.958 -0.8697  2.2904  1.4354
13029SOL     OW39664   5.110   8.987   2.842  0.4643 -0.0994 -0.3704
13029SOL    HW139665   5.157   8.993   2.925 -0.2637 -0.6050  0.0922
13029SOL    HW239666   5.124   8.897   2.813 -0.4444 -0.3493 -0.0740
13030SOL     OW39667   1.050   9.120   8.773  0.4777 -0.7162 -0.3780
13030SOL    HW139668   1.055   9.213   8.748 -0.5552 -1.1407 -2.3712
13030SOL    HW239669   0.959   9.096   8.756  1.0751 -2.4538 -1.3252
13031SOL     OW39670   8.395   4.754   8.144  0.5475  0.2255  0.1938
13031SOL    HW139671   8.476   4.775   8.191  1.9718  0.4261 -2.1765
13031SOL    HW239672   8.367   4.838   8.107  2.8328 -0.6061 -4.1581
13032SOL     OW39673   9.834   0.550   9.418 -0.2791  0.4819  0.0488
13032SOL    HW139674   9.875   0.546   9.505  0.0780 -0.0227 -0.1350
13032SOL    HW239675   9.833   0.643   9.396  2.6837  0.4117 -0.8188
13033SOL     OW39676   0.167   9.189   3.466  0.2339 -0.3237 -0.0932
13033SOL    HW139677   0.173   9.098   3.436  1.4794 -0.2392 -0.1560
13033SOL    HW239678   0.245   9.201   3.521  0.6888  1.0195 -0.9819
13034SOL     OW39679   3.719   5.331   7.951  0.0436  0.0894 -0.4610
13034SOL    HW139680   3.711   5.404   8.013  0.8337 -0.8476  0.7951
13034SOL    HW239681   3.810   5.332   7.924 -0.1749  0.1600 -1.2037
13035SOL     OW39682   4.815   2.611   3.115  0.5034 -0.2850  0.1357
13035SOL    HW139683   4.728   2.575   3.096  0.6742 -1.1116  0.8521
13035SOL    HW239684   4.835   2.580   3.204  1.7448 -0.5389 -0.2114
13036SOL     OW39685   7.222   2.767   5.452 -0.3420  0.8447 -0.0014
13036SOL    HW139686   7.133   2.799   5.470 -0.6867 -0.7765  1.4470
13036SOL    HW239687   7.232   2.776   5.357 -1.5833  2.1722 -0.0494
13037SOL     OW39688   8.890   7.009   9.561 -0.1370  0.2790 -0.1719
13037SOL    HW139689   8.954   6.938   9.551 -0.0011  0.4661 -0.6385
13037SOL    HW239690   8.879   7.017   9.655  0.0175 -0.2127 -0.1047
13038SOL     OW39691   8.624   5.454   2.532  0.6064  0.1135  0.6681
13038SOL    HW139692   8.614   5.430   2.623  1.4049  1.5729  1.1804
13038SOL    HW239693   8.689   5.392   2.498  1.3161  0.3942  1.4692
13039SOL     OW39694   4.086   2.108   5.853 -0.7646 -0.0870 -0.1200
13039SOL    HW139695   4.015   2.053   5.885 -0.3879 -0.9041 -0.6724
13039SOL    HW239696   4.155   2.100   5.918 -0.4161 -0.8899 -0.5742
13040SOL     OW39697   8.803   2.775   7.205 -0.1217 -0.0771  0.2454
13040SOL    HW139698   8.851   2.755   7.125  1.5136 -2.4086  1.6813
13040SOL    HW239699   8.725   2.822   7.175  0.0861 -1.4181 -2.7730
13041SOL     OW39700   1.681   1.980   9.872 -0.4332  0.2628  0.1710
13041SOL    HW139701   1.647   2.017   9.791  3.5572  0.8883 -1.4497
13041SOL    HW239702   1.662   1.886   9.865 -0.6641  0.3924 -1.2576
13042SOL     OW39703   5.102   9.734   2.798 -0.1278 -0.1501 -0.0609
13042SOL    HW139704   5.109   9.709   2.890 -1.7373  0.3261  0.2262
13042SOL    HW239705   5.018   9.779   2.792  0.2940  0.4959 -1.6225
13043SOL     OW39706   4.808   9.004   5.727 -0.1193 -0.3210 -0.1642
13043SOL    HW139707   4.753   8.935   5.690 -0.7709 -0.3143  0.7746
13043SOL    HW239708   4.859   9.036   5.652 -0.5915 -1.0696 -0.8267
13044SOL     OW39709   6.067   5.403   6.196  0.2128  0.0377 -0.0221
13044SOL    HW139710   6.117   5.362   6.126 -0.2560  0.4977 -0.6402
13044SOL    HW239711   6.107   5.371   6.277  2.2678  1.3142 -0.4743
13045SOL     OW39712   3.827   2.575   4.895  0.0909  0.0831  0.0990
13045SOL    HW139713   3.768   2.650   4.889  0.0363  0.1164  0.9582
13045SOL    HW239714   3.862   2.565   4.806 -0.8563  0.3392 -0.3168
13046SOL     OW39715   5.623   3.631   1.393 -0.2219  0.2183  0.0388
13046SOL    HW139716   5.616   3.549   1.344 -0.1385 -0.3734  0.9812
13046SOL    HW239717   5.717   3.642   1.407 -0.2689  0.1879  0.3755
13047SOL     OW39718   5.094   5.117   1.316 -0.0512  0.3169 -0.4371
13047SOL    HW139719   5.085   5.143   1.408 -0.3384  1.6684 -0.8266
13047SOL    HW239720   5.172   5.061   1.315  0.1002  0.4742  0.5889
13048SOL     OW39721   9.216   8.017   0.379  0.0632  0.3584 -0.2192
13048SOL    HW139722   9.157   8.042   0.450 -0.0101 -0.3085 -0.0427
13048SOL    HW239723   9.293   7.982   0.422 -0.4899 -1.2202 -0.4616
13049SOL     OW39724   6.746   9.646   0.078  0.0574 -0.0953  0.1908
13049SOL    HW139725   6.687   9.668   0.151  0.8042  1.5364  0.3417
13049SOL    HW239726   6.808   9.584   0.116 -0.2055 -0.0950  0.6410
13050SOL     OW39727   3.968   2.772   8.140  0.3208 -0.3577  0.4919
13050SOL    HW139728   3.952   2.815   8.057  0.1259  1.7364  1.5420
13050SOL    HW239729   3.886   2.728   8.161 -0.4234  1.0300  0.6197
13051SOL     OW39730   6.467   0.356   0.559  0.4069 -0.1660 -0.1725
13051SOL    HW139731   6.376   0.360   0.530  0.6347 -1.5465 -1.2090
13051SOL    HW239732   6.507   0.435   0.524 -0.5101  0.7994  0.8534
13052SOL     OW39733   7.480   9.515   2.735  0.2154  0.0013 -0.5115
13052SOL    HW139734   7.559   9.521   2.681 -1.0688  0.5351 -2.4217
13052SOL    HW239735   7.421   9.581   2.699 -0.5524  0.7452  1.9098
13053SOL     OW39736   1.506   9.264   4.612  0.3100  0.2488  0.5924
13053SOL    HW139737   1.569   9.212   4.661  0.6873  0.5091  0.3885
13053SOL    HW239738   1.479   9.333   4.672  2.6003  2.0530 -0.2799
13054SOL     OW39739   6.373   6.535   2.604 -0.1780 -0.3125  0.2778
13054SOL    HW139740   6.321   6.512   2.681 -1.2483 -0.3244 -0.4144
13054SOL    HW239741   6.322   6.501   2.530 -0.0939  1.2580 -0.5501
13055SOL     OW39742   7.038   4.361   8.741  0.6030  0.0308  0.2870
13055SOL    HW139743   6.993   4.443   8.720  1.5515  0.6241  0.5612
13055SOL    HW239744   7.127   4.373   8.709  0.6238 -1.0925 -0.1271
13056SOL     OW39745   7.971   0.259   1.824  0.4324  0.5296 -0.5517
13056SOL    HW139746   7.952   0.219   1.909 -0.0298  0.2651 -0.7756
13056SOL    HW239747   8.010   0.189   1.773  0.8441  0.7283 -0.5153
13057SOL     OW39748   5.164   4.120   7.374  0.0678  0.2439 -0.3232
13057SOL    HW139749   5.174   4.026   7.367 -0.2523  0.1511  0.3572
13057SOL    HW239750   5.253   4.153   7.390  0.5719  0.3190 -2.8665
13058SOL     OW39751   6.330   6.564   1.908  0.5062  0.4529 -0.3639
13058SOL    HW139752   6.412   6.519   1.888  0.4473 -0.1100  0.6122
13058SOL    HW239753   6.288   6.509   1.974 -0.0943  1.3555  0.0192
13059SOL     OW39754   5.801   3.191   0.862 -0.1423 -0.3377 -0.5811
13059SOL    HW139755   5.710   3.192   0.833 -0.2686  0.5033 -0.1937
13059SOL    HW239756   5.843   3.123   0.809 -0.7542 -0.0265 -1.4731
13060SOL     OW39757   5.414   2.886   0.129  0.0462  0.5212 -0.5807
13060SOL    HW139758   5.503   2.918   0.119 -0.1280  1.2995  0.2409
13060SOL    HW239759   5.424   2.802   0.174  0.3291  1.0772  0.4408
13061SOL     OW39760   7.129   8.067   4.123  0.5724  0.0012  0.1218
13061SOL    HW139761   7.117   8.014   4.202  0.8814  0.7519  0.6867
13061SOL    HW239762   7.218   8.047   4.095  0.7861  0.4182  0.4918
13062SOL     OW39763   1.470   3.954   1.877 -0.8869 -0.0992 -0.5455
13062SOL    HW139764   1.438   4.043   1.862  1.2866  1.1867  1.7249
13062SOL    HW239765   1.515   3.931   1.795  2.2731  2.7521  0.1465
13063SOL     OW39766   9.431   4.811   3.364 -0.6819  0.0343 -0.3436
13063SOL    HW139767   9.420   4.732   3.312  3.2949 -1.2046  0.3133
13063SOL    HW239768   9.450   4.880   3.301  1.6281 -0.9148 -0.7821
13064SOL     OW39769   2.906   1.016   0.458  0.0591 -0.4313 -0.1363
13064SOL    HW139770   2.923   1.062   0.376 -1.1406  2.8938  1.3104
13064SOL    HW239771   2.825   0.967   0.442 -0.8555  1.1754 -0.6098
13065SOL     OW39772   7.575   0.551   7.633  0.4934  0.1972  0.5194
13065SOL    HW139773   7.654   0.604   7.645 -0.1986  1.2786  0.4089
13065SOL    HW239774   7.503   0.614   7.637 -0.3125 -0.6550 -0.2461
13066SOL     OW39775   7.528   2.879   3.690  0.5482 -0.0939  0.5651
13066SOL    HW139776   7.559   2.887   3.600 -0.6441  0.3149  0.1661
13066SOL    HW239777   7.524   2.969   3.722  2.7810 -0.3299  1.7161
13067SOL     OW39778   8.357   2.592   2.291  0.1152  0.5029  0.4095
13067SOL    HW139779   8.323   2.665   2.239 -0.2434  1.5407  2.0173
13067SOL    HW239780   8.450   2.612   2.302  0.1178  0.4675  0.4534
13068SOL     OW39781   4.690   2.093   7.986  0.3125  0.5014  0.0358
13068SOL    HW139782   4.727   2.045   7.912 -0.1759 -0.8226  0.6078
13068SOL    HW239783   4.764   2.142   8.022  0.9855 -0.3312 -0.1874
13069SOL     OW39784   6.155   3.166   4.395 -0.4439 -0.2671 -0.4702
13069SOL    HW139785   6.116   3.102   4.334 -1.4752 -0.0007 -0.1227
13069SOL    HW239786   6.117   3.143   4.480 -0.6376  0.6540 -0.2989
13070SOL     OW39787   2.846   5.498   6.308  0.2575 -0.1456 -0.1001
13070SOL    HW139788   2.833   5.581   6.263  1.4134 -0.3089 -0.7847
13070SOL    HW239789   2.785   5.500   6.382  0.4506  1.4240  0.0424
13071SOL     OW39790   1.997   3.625   0.978 -0.3458  0.1735 -0.3225
13071SOL    HW139791   1.996   3.618   0.883  0.1675  0.2267 -0.3306
13071SOL    HW239792   1.907   3.605   1.004 -0.1613 -1.3090 -0.7137
13072SOL     OW39793   0.169   5.017   4.315  0.4808 -0.1237  0.1694
13072SOL    HW139794   0.107   5.089   4.311 -0.5243 -0.8805  1.4342
13072SOL    HW239795   0.251   5.058   4.343  0.3458  0.7559 -0.6845
13073SOL     OW39796   0.338   6.134   1.788 -0.8089  0.3181  0.4013
13073SOL    HW139797   0.346   6.229   1.802 -1.2986  0.3242  0.6636
13073SOL    HW239798   0.254   6.123   1.742 -0.6746  0.0242  0.2216
13074SOL     OW39799   0.545   5.191   0.475  0.8708 -0.5888 -0.6223
13074SOL    HW139800   0.484   5.118   0.469 -0.0199  0.0858 -0.0141
13074SOL    HW239801   0.615   5.160   0.532 -0.4753 -0.3448  1.2500
13075SOL     OW39802   6.448   2.221   1.068 -0.6457  0.4078 -0.2018
13075SOL    HW139803   6.451   2.152   1.002  1.3222  1.4518 -1.2926
13075SOL    HW239804   6.486   2.298   1.025  0.5688  1.1909  2.0829
13076SOL     OW39805   5.787   2.669   2.325 -0.6634  0.3610 -0.4446
13076SOL    HW139806   5.872   2.707   2.347 -1.9353  2.3677  1.3848
13076SOL    HW239807   5.808   2.583   2.289  2.1506  1.0394 -0.6572
13077SOL     OW39808   5.406   9.566   3.107 -0.3182  0.2605  0.1716
13077SOL    HW139809   5.426   9.474   3.091 -0.6612  0.2568 -0.2659
13077SOL    HW239810   5.351   9.592   3.033  0.6521  1.1024 -0.2830
13078SOL     OW39811   0.923   0.907   4.522 -0.3324  0.2127 -0.2212
13078SOL    HW139812   0.893   0.903   4.431  1.6121  2.0342 -1.0160
13078SOL    HW239813   0.891   0.991   4.554  1.8011  1.1299 -0.3554
13079SOL     OW39814   9.466   8.196   3.579 -0.5091  0.3071 -0.0937
13079SOL    HW139815   9.426   8.251   3.646  1.2843  1.0863  0.4134
13079SOL    HW239816   9.530   8.142   3.627 -1.9181 -1.9747 -0.6420
13080SOL     OW39817   6.394   8.368   8.724  0.2032 -0.2134 -0.0258
13080SOL    HW139818   6.488   8.356   8.710  0.5312  0.4743  1.3959
13080SOL    HW239819   6.353   8.292   8.682  1.3070 -0.0195 -1.5158
13081SOL     OW39820   4.113   9.785   4.728  0.7426 -0.0064  0.1793
13081SOL    HW139821   4.162   9.729   4.667  0.0875  1.2927 -1.6406
13081SOL    HW239822   4.028   9.742   4.736  1.2226 -0.8195  1.1876
13082SOL     OW39823   0.130   8.735   7.480  0.6741 -0.1188 -0.9971
13082SOL    HW139824   0.042   8.725   7.445  0.1213  2.3374 -0.4831
13082SOL    HW239825   0.185   8.750   7.402  0.8421 -2.4636 -1.3908
13083SOL     OW39826   9.165   2.791   6.224 -0.3561  0.3522  0.3102
13083SOL    HW139827   9.248   2.743   6.227  0.2211  1.3676  2.1800
13083SOL    HW239828   9.186   2.872   6.177 -0.5139  0.2275  0.0223
13084SOL     OW39829   6.844   0.511   0.706  0.7221  0.5413  0.1043
13084SOL    HW139830   6.759   0.499   0.748  1.1854  0.0538  0.9352
13084SOL    HW239831   6.872   0.422   0.683  1.2906  0.6309  0.4254
13085SOL     OW39832   9.229   1.670   6.833  0.2645 -0.5418  0.4632
13085SOL    HW139833   9.187   1.594   6.792  0.0117  0.1988 -0.6937
13085SOL    HW239834   9.156   1.723   6.866  0.4416 -0.8074  1.2928
13086SOL     OW39835   9.068   4.192   7.091  0.1079 -0.2644 -0.3361
13086SOL    HW139836   9.057   4.286   7.106  1.3717 -0.4216  2.2557
13086SOL    HW239837   9.086   4.184   6.998  0.8137  2.1749 -0.4804
13087SOL     OW39838   3.245   8.549   3.156 -0.4100  0.0412  0.3007
13087SOL    HW139839   3.328   8.503   3.168 -1.9162 -2.6003  1.5060
13087SOL    HW239840   3.261   8.611   3.085  3.3280  1.6882  2.3100
13088SOL     OW39841   3.411   9.088   8.493 -0.1667 -0.3690 -0.2011
13088SOL    HW139842   3.442   9.058   8.578  2.7971  0.5858 -0.8358
13088SOL    HW239843   3.373   9.174   8.511 -0.0013 -0.3792  0.2113
13089SOL     OW39844   7.012   2.040   0.794 -0.2029 -0.2401  0.0245
13089SOL    HW139845   7.060   1.995   0.864 -2.2601 -1.2483  0.8589
13089SOL    HW239846   6.933   1.988   0.782 -1.2381  1.5046 -1.1188
13090SOL     OW39847   5.006   0.198   0.632 -0.1642  0.5878  0.0431
13090SOL    HW139848   5.095   0.235   0.632  0.2798 -0.4177 -0.9518
13090SOL    HW239849   4.978   0.203   0.541  0.3767 -2.4829 -0.4086
13091SOL     OW39850   6.842   8.059   4.654  0.2650 -0.0386  0.0066
13091SOL    HW139851   6.876   7.970   4.668  0.2259 -0.0111  0.2878
13091SOL    HW239852   6.887   8.090   4.575  1.3977  0.2456  0.7396
13092SOL     OW39853   9.577   7.207   3.164  0.3986 -0.0253  0.1069
13092SOL    HW139854   9.511   7.262   3.122  0.8987 -0.6864 -1.6285
13092SOL    HW239855   9.575   7.234   3.256 -1.4754  0.7623 -0.1036
13093SOL     OW39856   9.689   1.959   6.908  0.3588  0.8353  0.2790
13093SOL    HW139857   9.699   1.869   6.940  1.4558  0.8300 -0.0434
13093SOL    HW239858   9.661   1.949   6.817 -1.5986  0.8504  0.8256
13094SOL     OW39859   7.128   9.253   8.335  0.3484  0.0901 -0.0644
13094SOL    HW139860   7.193   9.184   8.354  1.6440  1.2085 -0.2490
13094SOL    HW239861   7.170   9.334   8.365 -1.3410  0.7594  0.5808
13095SOL     OW39862   8.613   1.282   4.045  0.3873 -0.2527  0.1910
13095SOL    HW139863   8.707   1.279   4.026 -0.1386 -1.8797 -2.6034
13095SOL    HW239864   8.588   1.192   4.061 -0.9437 -0.0444 -0.5558
13096SOL     OW39865   2.311   0.379   6.843  0.4062 -0.1794 -0.1890
13096SOL    HW139866   2.264   0.312   6.892  0.8590 -0.0138  0.4735
13096SOL    HW239867   2.353   0.433   6.909  1.8431 -0.5395 -0.7513
13097SOL     OW39868   0.884   8.070   9.473 -0.0259 -0.4041 -0.7555
13097SOL    HW139869   0.913   8.064   9.382 -0.7252 -0.1264 -0.9990
13097SOL    HW239870   0.854   8.161   9.483  0.7746 -0.2116 -0.0271
13098SOL     OW39871   7.936   7.692   2.605  0.0110 -0.2195  0.4043
13098SOL    HW139872   7.983   7.616   2.569 -0.5962 -1.3259  1.8504
13098SOL    HW239873   8.000   7.763   2.601  0.4250 -0.6554 -1.4600
13099SOL     OW39874   8.884   7.527   2.134 -0.0074 -0.0699  0.1815
13099SOL    HW139875   8.851   7.602   2.084  0.1389  0.7035  1.2074
13099SOL    HW239876   8.827   7.523   2.211  1.4116  0.4329  1.2945
13100SOL     OW39877   8.286   4.607   8.646 -0.0668 -0.4162  0.1134
13100SOL    HW139878   8.220   4.539   8.637 -1.6481  0.9313  0.9252
13100SOL    HW239879   8.271   4.666   8.571  0.2726 -0.1510  0.2484
13101SOL     OW39880   3.014   7.851   6.385  0.2438  0.1028 -0.1553
13101SOL    HW139881   3.050   7.931   6.422  0.9820 -0.7673  1.0730
13101SOL    HW239882   3.062   7.780   6.428 -1.2067 -1.0414 -0.3308
13102SOL     OW39883   2.260   7.511   2.338 -0.6423  0.0441 -0.3403
13102SOL    HW139884   2.310   7.466   2.270 -2.2363  0.1313 -1.6479
13102SOL    HW239885   2.185   7.549   2.292 -1.9272 -0.0931  1.4851
13103SOL     OW39886   5.675   2.658   2.619  0.0671  0.1382  0.7913
13103SOL    HW139887   5.661   2.627   2.530 -0.1121 -0.6092  1.0646
13103SOL    HW239888   5.619   2.600   2.673  0.7122  0.1147  1.4516
13104SOL     OW39889   5.692   6.271   2.551 -0.3225  0.4710  0.3103
13104SOL    HW139890   5.615   6.318   2.585 -0.9293  0.0550 -0.4427
13104SOL    HW239891   5.656   6.213   2.484  0.7298  0.6305 -0.4032
13105SOL     OW39892   1.794   2.685   3.228 -0.4585 -0.3073 -0.2004
13105SOL    HW139893   1.711   2.640   3.215 -1.4804  0.9903  1.4889
13105SOL    HW239894   1.828   2.649   3.311  1.9252 -2.5543 -1.9556
13106SOL     OW39895   2.175   2.453   5.048  0.2004 -0.2365  0.5175
13106SOL    HW139896   2.216   2.490   4.970  0.8924 -0.9920  0.5170
13106SOL    HW239897   2.211   2.365   5.056 -1.1387 -0.7885  0.7432
13107SOL     OW39898   2.539   3.326   4.434 -0.2091  0.3682  0.0442
13107SOL    HW139899   2.589   3.265   4.380 -0.2893 -0.2904  0.6908
13107SOL    HW239900   2.590   3.332   4.515 -1.6776 -1.1454  1.1403
13108SOL     OW39901   5.169   6.894   8.973  0.4532  0.1564 -0.0582
13108SOL    HW139902   5.221   6.850   9.041  0.5225 -0.3541 -0.4334
13108SOL    HW239903   5.230   6.956   8.934  0.6235 -0.0558 -0.1321
13109SOL     OW39904   0.175   9.772   5.950 -0.6344 -0.2748 -0.5890
13109SOL    HW139905   0.175   9.841   5.883 -1.8603 -0.5600 -0.9178
13109SOL    HW239906   0.096   9.721   5.931 -0.8651 -0.5232  0.9162
13110SOL     OW39907   0.082   8.955   4.951  0.7420 -0.7380  0.2452
13110SOL    HW139908   0.141   8.917   5.016 -0.7607 -3.6073  0.1069
13110SOL    HW239909   0.126   8.939   4.867  0.4043 -1.7136  0.2369
13111SOL     OW39910   1.040   5.205   6.502 -0.2172 -0.3987 -0.4940
13111SOL    HW139911   0.979   5.224   6.431 -1.7935 -2.1830  0.2946
13111SOL    HW239912   1.017   5.269   6.570  0.4807  0.5167 -1.0885
13112SOL     OW39913   3.798   5.471   3.211  0.3051 -0.7294  0.5040
13112SOL    HW139914   3.852   5.508   3.141 -1.3763 -2.0255 -1.5736
13112SOL    HW239915   3.859   5.416   3.261  1.1840 -1.2110 -1.0436
13113SOL     OW39916   8.905   3.248   9.728  0.0994  0.1804  0.1077
13113SOL    HW139917   8.811   3.252   9.709 -0.0253  0.1707  0.7055
13113SOL    HW239918   8.934   3.339   9.719 -0.1759  0.3595  0.9310
13114SOL     OW39919   2.334   0.316   4.539 -0.2542 -0.4484 -0.4204
13114SOL    HW139920   2.289   0.351   4.462 -0.9241 -0.7735 -0.1895
13114SOL    HW239921   2.348   0.223   4.519  1.3871 -0.1050 -0.9744
13115SOL     OW39922   0.699   8.030   2.351 -0.4950 -0.5145  0.1923
13115SOL    HW139923   0.708   8.045   2.257 -0.0573 -0.1609  0.2866
13115SOL    HW239924   0.711   7.935   2.361 -0.5921 -0.5614 -0.1111
13116SOL     OW39925   5.897   0.736   0.104 -0.4608  0.2790 -0.4514
13116SOL    HW139926   5.865   0.826   0.095  2.9986  1.6963  0.0856
13116SOL    HW239927   5.866   0.708   0.190 -0.8113  1.2812 -0.2435
13117SOL     OW39928   1.056   1.627   0.904  0.6620  0.0093  0.2413
13117SOL    HW139929   1.134   1.672   0.872  2.0107 -0.9655  1.9898
13117SOL    HW239930   1.024   1.579   0.829  1.1246  1.2380 -0.7853
13118SOL     OW39931   6.989   9.763   2.731 -0.0439 -0.2667 -0.0970
13118SOL    HW139932   7.005   9.803   2.816 -1.4382  1.5596 -0.6315
13118SOL    HW239933   6.972   9.837   2.672  0.0227 -1.5256 -1.7776
13119SOL     OW39934   3.075   5.070   3.688 -0.3900 -0.3138  0.4696
13119SOL    HW139935   3.069   5.145   3.746 -1.1228 -0.7283  0.9438
13119SOL    HW239936   3.085   4.995   3.747 -2.6496 -0.9126  0.1831
13120SOL     OW39937   2.470   3.371   1.622 -0.0514 -0.3063 -0.3103
13120SOL    HW139938   2.403   3.402   1.561 -1.4712 -2.0880  0.2324
13120SOL    HW239939   2.527   3.316   1.568 -0.6563 -0.9931 -0.2595
13121SOL     OW39940   1.988   6.115   4.008 -0.6061  0.3894  0.4491
13121SOL    HW139941   2.054   6.130   4.075 -0.0136 -1.4021  0.2962
13121SOL    HW239942   1.966   6.022   4.015 -0.2299  0.0366 -2.0839
13122SOL     OW39943   0.667   3.049   9.509  0.2735  0.1697  0.3990
13122SOL    HW139944   0.725   3.075   9.580 -0.1974  2.0789  0.1555
13122SOL    HW239945   0.708   3.085   9.430  0.2249 -0.9719 -0.1684
13123SOL     OW39946   9.939   3.830   9.599 -0.4804  0.1867 -0.1150
13123SOL    HW139947   9.999   3.847   9.526 -1.6251  2.1258 -0.7013
13123SOL    HW239948   9.984   3.868   9.675  0.0387 -0.4481 -0.0990
13124SOL     OW39949   4.783   7.781   2.108  0.0374  0.4768 -0.0387
13124SOL    HW139950   4.758   7.816   2.022  1.0242 -0.2353 -0.6317
13124SOL    HW239951   4.856   7.722   2.090 -0.0064 -0.0078  1.2445
13125SOL     OW39952   2.381   5.675   9.574  0.0682 -0.4571 -0.1970
13125SOL    HW139953   2.380   5.604   9.638 -2.0220  1.5078  2.1499
13125SOL    HW239954   2.289   5.701   9.566  0.7927  2.3181 -0.5069
13126SOL     OW39955   3.725   9.311   8.111  0.0234  0.5558 -0.0837
13126SOL    HW139956   3.748   9.247   8.045  1.6907  1.1102 -0.0719
13126SOL    HW239957   3.723   9.395   8.064  2.3759  1.1324  0.7115
13127SOL     OW39958   5.626   8.102   0.360  0.0515  0.7528  0.6575
13127SOL    HW139959   5.659   8.129   0.275  1.2917  1.2528  1.2693
13127SOL    HW239960   5.701   8.112   0.419  0.2019 -2.6583  1.2211
13128SOL     OW39961   5.145   9.489   6.596  0.0699 -0.0301  0.1273
13128SOL    HW139962   5.127   9.397   6.618 -1.1573  0.2695  0.4600
13128SOL    HW239963   5.195   9.485   6.514 -1.6255 -0.9392 -0.9044
13129SOL     OW39964   7.346   2.108   0.403  0.0304  0.0176 -0.2807
13129SOL    HW139965   7.387   2.082   0.485  2.3688 -0.4983 -1.5200
13129SOL    HW239966   7.358   2.203   0.399 -1.7169  0.3412  0.7256
13130SOL     OW39967   9.432   1.440   1.399 -0.5727  0.7423 -0.3967
13130SOL    HW139968   9.497   1.505   1.428 -0.7718  0.5338  0.5435
13130SOL    HW239969   9.376   1.488   1.338  1.3117  0.5639 -2.4165
13131SOL     OW39970   9.947   0.528   7.696 -0.8438  0.1127  0.0622
13131SOL    HW139971  10.026   0.535   7.750 -0.4947 -0.0759 -0.4133
13131SOL    HW239972   9.919   0.618   7.682 -0.0529  0.2503 -0.7118
13132SOL     OW39973   7.282   5.508   2.590 -0.5002 -0.4819 -0.2630
13132SOL    HW139974   7.306   5.477   2.503 -1.9272 -0.2443 -0.7713
13132SOL    HW239975   7.297   5.432   2.647 -1.0089 -1.1326 -0.9782
13133SOL     OW39976   8.417   4.460   9.007 -0.5654  0.4348 -0.6912
13133SOL    HW139977   8.458   4.374   9.019 -1.1090  0.2640  0.0039
13133SOL    HW239978   8.392   4.487   9.096 -1.8251  0.5911 -1.0745
13134SOL     OW39979   6.332   9.114   3.794  0.0828 -0.5322  0.0326
13134SOL    HW139980   6.309   9.204   3.820  1.5655 -0.1064 -0.0115
13134SOL    HW239981   6.252   9.079   3.756 -1.3320 -0.1696  2.4513
13135SOL     OW39982   3.821   0.196   9.438  0.1561  0.0324 -0.1130
13135SOL    HW139983   3.730   0.174   9.457  0.6114  0.6775  3.4956
13135SOL    HW239984   3.817   0.286   9.404 -0.6686 -0.9277 -2.8327
13136SOL     OW39985   7.611   6.609   4.356  0.0831 -0.5315 -0.1779
13136SOL    HW139986   7.673   6.681   4.370 -0.7240 -0.0815  1.2964
13136SOL    HW239987   7.589   6.579   4.445 -1.5067 -0.9253 -0.6713
13137SOL     OW39988   2.273   7.976   5.338  0.0991  0.0085  0.2857
13137SOL    HW139989   2.248   7.931   5.257  1.9664  0.7135 -0.7332
13137SOL    HW239990   2.329   8.048   5.310 -0.5963  1.3385  2.0965
13138SOL     OW39991   8.146   2.821   0.914 -0.2437  0.0406 -0.1167
13138SOL    HW139992   8.059   2.781   0.917 -0.6730  0.8656 -0.9974
13138SOL    HW239993   8.133   2.901   0.864  0.9583  0.3565  0.0654
13139SOL     OW39994   4.650   4.504   6.334  0.0250 -0.5129  0.5038
13139SOL    HW139995   4.647   4.579   6.393  1.7516 -0.8254  1.0627
13139SOL    HW239996   4.618   4.537   6.250  1.8498  1.2132  0.4183
13140SOL     OW39997   0.920   9.450   8.909 -0.2536  0.1077 -0.1138
13140SOL    HW139998   0.909   9.544   8.899 -0.7111 -0.0208 -0.9117
13140SOL    HW239999   1.015   9.438   8.919 -0.1866  0.6372 -0.0770
13141SOL     OW40000   8.039   3.719   6.180 -0.2804  0.5965 -0.0998
13141SOL    HW140001   8.103   3.766   6.234  1.4433 -0.6155 -1.0017
13141SOL    HW240002   8.091   3.656   6.130 -2.0858  0.1660 -1.5507
13142SOL     OW40003   1.069   4.243   1.461  0.0663 -0.0091  0.1832
13142SOL    HW140004   1.084   4.245   1.555 -0.9622  0.7671  0.3515
13142SOL    HW240005   1.063   4.335   1.435  0.0889 -0.2182 -0.6006
13143SOL     OW40006   8.851   7.423   4.971 -0.0603  0.0281  0.0923
13143SOL    HW140007   8.836   7.429   5.066  0.9499  0.9793  0.2111
13143SOL    HW240008   8.815   7.503   4.935  0.7951  0.3240 -0.1406
13144SOL     OW40009   1.009   5.130   5.166 -0.0431 -0.3119  0.0742
13144SOL    HW140010   1.084   5.071   5.160  0.1754 -0.3626  2.3495
13144SOL    HW240011   0.940   5.087   5.115  0.6711 -1.5858  0.1532
13145SOL     OW40012   2.016   1.782   9.433 -0.1259  0.4283  0.3016
13145SOL    HW140013   1.936   1.732   9.452  1.1760 -1.8461  0.1415
13145SOL    HW240014   2.025   1.778   9.338  1.4026 -1.4577  0.4692
13146SOL     OW40015   0.567   2.967   1.765 -0.0265 -0.2874 -0.4838
13146SOL    HW140016   0.580   3.062   1.764 -0.7869 -0.1651  0.2723
13146SOL    HW240017   0.479   2.955   1.800  0.6037 -1.3169  0.8500
13147SOL     OW40018   0.362   1.842   0.682 -0.3151  0.4951 -0.3112
13147SOL    HW140019   0.304   1.897   0.735  1.4757  2.3950 -0.1945
13147SOL    HW240020   0.408   1.788   0.745  0.2945  1.2457 -0.1031
13148SOL     OW40021   4.102   7.483   7.653 -0.0302 -0.0265  0.4414
13148SOL    HW140022   4.160   7.409   7.637  0.7089  0.7332 -0.5203
13148SOL    HW240023   4.120   7.543   7.581  0.5419  1.8062  2.0371
13149SOL     OW40024   6.993   1.929   8.327 -0.5928 -0.1493 -0.4346
13149SOL    HW140025   6.941   1.849   8.317 -2.4367  0.8502  0.6392
13149SOL    HW240026   6.972   1.981   8.250 -1.7758  0.5457  0.3331
13150SOL     OW40027   6.331   1.662   6.267  0.9435 -0.0369  0.3707
13150SOL    HW140028   6.368   1.626   6.348 -1.4880 -0.6796  1.2621
13150SOL    HW240029   6.270   1.730   6.297  1.2067  0.8558 -1.0346
13151SOL     OW40030   3.493   1.536   5.590  0.4873 -0.1531  0.3345
13151SOL    HW140031   3.432   1.500   5.654  0.5299 -0.4920  0.1811
13151SOL    HW240032   3.437   1.573   5.521  0.4611 -0.8695 -0.0315
13152SOL     OW40033   1.480   2.026   6.933 -0.2635  0.1546 -0.2104
13152SOL    HW140034   1.451   2.110   6.967 -2.9621 -0.2921 -1.2076
13152SOL    HW240035   1.533   2.049   6.856  0.5569  0.9610  0.5743
13153SOL     OW40036   0.645   2.438   6.325  0.1580 -0.1415  0.0569
13153SOL    HW140037   0.577   2.414   6.262 -0.5984  0.5190  0.5927
13153SOL    HW240038   0.676   2.355   6.360 -1.6964 -0.4430  1.1443
13154SOL     OW40039   5.403   3.254   4.399 -0.4616 -0.6685 -0.2387
13154SOL    HW140040   5.433   3.344   4.411 -3.1273  0.4318 -1.0377
13154SOL    HW240041   5.342   3.239   4.471  0.6317 -2.2099  0.4189
13155SOL     OW40042   7.635   2.368   4.822  0.1109  0.2141 -0.1255
13155SOL    HW140043   7.663   2.422   4.749 -1.5341  0.6597 -0.4594
13155SOL    HW240044   7.559   2.414   4.859 -0.4952 -1.1584  0.4266
13156SOL     OW40045   5.524   7.115   3.167  0.2640 -0.2240 -0.6068
13156SOL    HW140046   5.524   7.032   3.120 -0.3861  0.1984 -1.3824
13156SOL    HW240047   5.432   7.131   3.188 -0.0475  1.6687 -3.0099
13157SOL     OW40048   0.686   7.247   4.668 -0.1133  0.1668  0.1865
13157SOL    HW140049   0.676   7.332   4.625  0.9053 -0.2607 -0.9355
13157SOL    HW240050   0.653   7.184   4.605 -1.6420 -0.2491  1.3410
13158SOL     OW40051   4.021   7.028   2.838 -0.0920 -0.3405  0.2458
13158SOL    HW140052   3.973   6.945   2.841 -0.4141 -0.2136 -0.9625
13158SOL    HW240053   4.041   7.041   2.746 -1.2818  1.6059  0.2064
13159SOL     OW40054   2.535   7.775   3.007 -0.3695  0.3252 -0.0578
13159SOL    HW140055   2.605   7.710   3.004 -0.5645 -0.0325  1.6451
13159SOL    HW240056   2.569   7.850   2.959  1.3898  0.3244  1.0747
13160SOL     OW40057   3.938   5.533   4.264 -0.5534  0.3808  0.3118
13160SOL    HW140058   3.862   5.521   4.320 -2.3612 -2.5941 -2.4164
13160SOL    HW240059   4.008   5.484   4.307 -1.6856 -1.2422  0.3655
13161SOL     OW40060   6.481   6.928   2.829  0.2105 -0.2263 -0.5045
13161SOL    HW140061   6.551   6.978   2.788 -0.4705 -0.1422 -1.5950
13161SOL    HW240062   6.402   6.981   2.816 -0.0087 -0.1213  1.0720
13162SOL     OW40063   3.684   3.650   6.694  0.0429  0.7458  0.3425
13162SOL    HW140064   3.592   3.647   6.718 -0.4172  0.6097 -1.3047
13162SOL    HW240065   3.713   3.558   6.697 -0.7257  0.3488 -2.0182
13163SOL     OW40066   9.105   5.736   0.959  0.1119 -0.2437  0.4905
13163SOL    HW140067   9.178   5.773   1.008  0.4787  0.0147 -0.2445
13163SOL    HW240068   9.068   5.670   1.018  1.2264 -0.7104  0.6820
13164SOL     OW40069   3.795   2.345   6.689  0.2644 -0.1294 -0.3397
13164SOL    HW140070   3.782   2.280   6.620 -0.0068  1.1567 -1.5539
13164SOL    HW240071   3.855   2.303   6.751  1.9976 -0.6802 -2.2772
13165SOL     OW40072   0.983   4.728   0.065 -0.2564 -0.1727 -1.1117
13165SOL    HW140073   1.071   4.694   0.053 -0.5775 -1.0555 -1.0770
13165SOL    HW240074   0.994   4.822   0.078  0.5421 -0.0168 -2.7566
13166SOL     OW40075   9.536   9.030   7.638  0.1345  0.7606 -0.0412
13166SOL    HW140076   9.490   8.951   7.611  1.1725  0.3539 -0.6892
13166SOL    HW240077   9.491   9.101   7.593  1.1861  0.1932 -2.0898
13167SOL     OW40078   3.734   7.262   4.150  0.1521  0.1602  0.1198
13167SOL    HW140079   3.659   7.214   4.116 -0.1455 -0.1928  1.2196
13167SOL    HW240080   3.760   7.214   4.229  1.8896 -0.0496 -0.5243
13168SOL     OW40081   4.686   6.321   3.520 -0.3241 -0.0289 -0.0864
13168SOL    HW140082   4.744   6.248   3.543  0.3720  0.3522 -0.5947
13168SOL    HW240083   4.643   6.344   3.602  1.2763  0.5805  0.6293
13169SOL     OW40084   8.540   1.684   4.019 -1.0834 -0.0518  0.1119
13169SOL    HW140085   8.449   1.692   3.988 -0.8024  1.6355 -0.3876
13169SOL    HW240086   8.532   1.673   4.114 -1.8143  2.7379  0.4659
13170SOL     OW40087   7.804   8.947   3.223  0.0032 -0.0671 -0.1627
13170SOL    HW140088   7.860   9.009   3.270 -0.1886 -0.5724  0.7685
13170SOL    HW240089   7.841   8.943   3.135  1.5022 -0.4503  0.4453
13171SOL     OW40090   6.139   3.556   2.925 -0.3989  0.2105  0.0194
13171SOL    HW140091   6.064   3.553   2.866  0.1207  0.0894 -0.6492
13171SOL    HW240092   6.105   3.526   3.010 -0.9727 -0.3990 -0.4208
13172SOL     OW40093   1.352   8.814   4.911  0.2154  0.2078 -0.3302
13172SOL    HW140094   1.381   8.896   4.873 -1.5679  0.8896 -0.2849
13172SOL    HW240095   1.344   8.754   4.837 -0.8593  0.8112 -0.7231
13173SOL     OW40096   5.102   5.110   2.239 -0.4281 -0.4315 -0.0094
13173SOL    HW140097   5.011   5.133   2.254 -1.2883 -1.9326 -2.3099
13173SOL    HW240098   5.132   5.074   2.322 -1.3418  1.6424  1.2959
13174SOL     OW40099   0.719   9.690   0.290 -0.3932  0.3458  0.4970
13174SOL    HW140100   0.814   9.700   0.297 -0.4551  0.7407  0.8226
13174SOL    HW240101   0.705   9.597   0.276 -0.0268  0.1032  1.6539
13175SOL     OW40102   8.538   7.595   8.198 -0.2636  0.0413 -0.2982
13175SOL    HW140103   8.613   7.654   8.189 -1.7486  2.0403 -0.1517
13175SOL    HW240104   8.492   7.602   8.114  0.0600 -1.7643 -0.6784
13176SOL     OW40105   3.352   1.697   4.925  0.8274  0.5725  0.1634
13176SOL    HW140106   3.277   1.756   4.924  0.3592  0.0421  1.4891
13176SOL    HW240107   3.370   1.682   5.018  0.3551 -2.0742 -0.0930
13177SOL     OW40108   2.385   6.863   2.893  0.1044 -0.7659 -0.0703
13177SOL    HW140109   2.294   6.886   2.913  0.8493  1.0093  1.5757
13177SOL    HW240110   2.378   6.783   2.840 -2.3429 -2.3989  2.4030
13178SOL     OW40111   7.872   1.835   3.720  1.0172 -0.1770  0.1030
13178SOL    HW140112   7.910   1.781   3.651 -0.3537 -0.8446 -0.1487
13178SOL    HW240113   7.948   1.878   3.761  1.8959 -0.2100 -1.4201
13179SOL     OW40114   3.381   3.300   8.657  0.4588  0.2046  0.2545
13179SOL    HW140115   3.390   3.385   8.614  2.2184  0.0821  0.2977
13179SOL    HW240116   3.445   3.243   8.613 -0.4918 -1.0237  0.4097
13180SOL     OW40117   5.628   5.803   5.105 -0.0308 -0.1860  0.1543
13180SOL    HW140118   5.622   5.875   5.168 -2.7422 -1.1538  1.1262
13180SOL    HW240119   5.678   5.735   5.151 -0.5000 -0.2294  0.6077
13181SOL     OW40120   4.776   0.842   8.150  0.2890  0.0796 -0.3267
13181SOL    HW140121   4.740   0.931   8.158 -2.8396 -1.1000  0.0834
13181SOL    HW240122   4.805   0.821   8.238 -0.3927  0.1846 -0.0647
13182SOL     OW40123   1.647   1.761   8.830  0.1622 -0.0045 -0.2518
13182SOL    HW140124   1.614   1.795   8.747 -0.0298 -0.3870 -0.3370
13182SOL    HW240125   1.732   1.721   8.807  1.3383  2.0940  0.1920
13183SOL     OW40126   0.101   3.123   9.216  0.7171  0.2426 -0.4186
13183SOL    HW140127   0.038   3.057   9.185  0.2143  0.1823  0.6792
13183SOL    HW240128   0.098   3.115   9.311  1.5667  1.0200 -0.3229
13184SOL     OW40129   7.625   3.415   3.911  0.0213 -0.7116 -1.5508
13184SOL    HW140130   7.690   3.468   3.864  0.5584  0.2419  0.1732
13184SOL    HW240131   7.541   3.459   3.893  0.5328  1.2340  0.3825
13185SOL     OW40132   4.547   6.020   7.584  0.2677  0.3895 -0.7324
13185SOL    HW140133   4.492   5.942   7.583 -0.3318  0.7578  0.7263
13185SOL    HW240134   4.490   6.089   7.619  1.0789  1.2434 -1.0541
13186SOL     OW40135   9.144   8.465   4.138 -0.0997  0.0142 -0.4790
13186SOL    HW140136   9.222   8.521   4.137 -0.6880  0.8820  0.1582
13186SOL    HW240137   9.109   8.472   4.049  0.4154 -0.1898 -0.7000
13187SOL     OW40138   8.383   6.496   1.640 -0.3355 -0.2707  0.4263
13187SOL    HW140139   8.354   6.493   1.549  1.1409  0.4366 -0.1024
13187SOL    HW240140   8.377   6.406   1.670 -2.1148 -0.3062  0.0764
13188SOL     OW40141   1.653   6.084   5.163  0.1595 -0.3358  0.4017
13188SOL    HW140142   1.642   6.145   5.236 -0.5043 -0.0212  0.0408
13188SOL    HW240143   1.617   6.001   5.195  0.9066 -0.5010  0.8305
13189SOL     OW40144   2.441   5.182   0.936 -0.3777  0.0992 -0.4934
13189SOL    HW140145   2.413   5.113   0.876  0.7263  0.8775 -1.9768
13189SOL    HW240146   2.424   5.263   0.888 -0.5658  0.8118  0.7453
13190SOL     OW40147   5.055   5.569   4.651  0.1996  0.5195  0.1781
13190SOL    HW140148   4.993   5.544   4.583 -1.3797 -0.6493  1.9598
13190SOL    HW240149   5.094   5.486   4.680  0.2876  0.9022  1.1956
13191SOL     OW40150   2.537   7.163   8.356 -0.4395  0.2326 -0.4505
13191SOL    HW140151   2.550   7.068   8.351 -1.3882  0.0901 -0.3720
13191SOL    HW240152   2.597   7.199   8.291  0.7233 -0.3380  0.2524
13192SOL     OW40153   9.337   1.420   4.788  0.2196  0.4487  0.8017
13192SOL    HW140154   9.356   1.510   4.760 -0.0571 -0.0196 -0.9539
13192SOL    HW240155   9.242   1.411   4.781  0.0679  0.4435  2.3997
13193SOL     OW40156   4.004   3.019   1.977 -0.3014  0.1421 -0.0043
13193SOL    HW140157   4.003   3.033   2.072  1.0876  2.2356 -0.2375
13193SOL    HW240158   4.090   2.981   1.959  0.5404  2.1876 -0.6421
13194SOL     OW40159   3.213   9.787   1.436  0.1674 -0.0662  0.0935
13194SOL    HW140160   3.288   9.847   1.440  0.6470 -0.5077 -1.4019
13194SOL    HW240161   3.250   9.702   1.458 -0.0445 -0.1700  0.0468
13195SOL     OW40162   2.191   2.101   7.997 -0.2567 -0.0027  0.6010
13195SOL    HW140163   2.109   2.109   7.947  0.2118 -0.7319 -0.3162
13195SOL    HW240164   2.222   2.012   7.977  1.2976  0.6307  0.0697
13196SOL     OW40165   0.060   0.267   9.659 -0.2780 -0.4559  0.5214
13196SOL    HW140166   0.145   0.296   9.691 -0.0383 -1.4249  0.8017
13196SOL    HW240167   0.007   0.346   9.655  1.3169  0.6336 -1.9307
13197SOL     OW40168   1.606   1.497   5.423  0.1310 -0.1081 -0.1190
13197SOL    HW140169   1.674   1.502   5.491  0.4478  0.7188 -0.4846
13197SOL    HW240170   1.655   1.481   5.342 -0.2214 -0.7872 -0.2069
13198SOL     OW40171   9.398   2.389   6.155 -0.7767  0.1957  0.5294
13198SOL    HW140172   9.446   2.393   6.238  1.1589  2.2983 -0.6026
13198SOL    HW240173   9.326   2.451   6.167 -0.7192  0.2200  0.7632
13199SOL     OW40174   9.619   8.706   2.811  0.2983  1.0767 -0.0094
13199SOL    HW140175   9.714   8.714   2.815  0.5274 -1.0337 -0.2115
13199SOL    HW240176   9.591   8.702   2.903  0.5503  0.4096  0.0416
13200SOL     OW40177   7.470   0.398   1.466  0.3692 -0.0189 -0.0731
13200SOL    HW140178   7.399   0.333   1.473  0.7481 -0.6252 -1.4921
13200SOL    HW240179   7.549   0.346   1.453  0.7008  0.7182 -1.1328
13201SOL     OW40180   7.034   9.647   7.631 -0.2898 -0.1544 -0.5324
13201SOL    HW140181   7.029   9.742   7.635 -0.6350  0.0907 -4.0585
13201SOL    HW240182   7.006   9.624   7.543  5.1100 -3.0550 -1.9945
13202SOL     OW40183   5.858   7.738   8.698 -0.5326  0.0412  0.2384
13202SOL    HW140184   5.790   7.672   8.713  1.3401 -1.5931  2.1362
13202SOL    HW240185   5.857   7.791   8.778 -0.1139  0.5102 -0.0644
13203SOL     OW40186   7.979   3.547   2.507 -0.0382  0.1817 -0.6514
13203SOL    HW140187   8.063   3.556   2.462  0.2987  0.9933  0.1117
13203SOL    HW240188   7.985   3.463   2.552  1.2643  1.1523  1.1434
13204SOL     OW40189   0.346   5.594   9.292  0.7554  0.2670 -0.4811
13204SOL    HW140190   0.317   5.622   9.378 -0.5361  1.7625 -1.3548
13204SOL    HW240191   0.275   5.619   9.233  2.1058  0.3756 -2.1523
13205SOL     OW40192   0.756   1.152   3.181 -0.3752 -0.6008 -0.1288
13205SOL    HW140193   0.681   1.100   3.152 -0.0489  0.1923 -2.6939
13205SOL    HW240194   0.832   1.098   3.160 -0.1437 -0.9585  1.4900
13206SOL     OW40195   6.564   5.017   6.329 -0.1886  0.3268  0.0967
13206SOL    HW140196   6.521   4.940   6.292  1.5233 -0.4079 -0.4580
13206SOL    HW240197   6.587   4.991   6.418  0.6276  0.0815 -0.1778
13207SOL     OW40198   8.118   5.964   4.014  0.5024  0.1721  0.3603
13207SOL    HW140199   8.106   5.999   3.925  2.7746  2.0334  0.6992
13207SOL    HW240200   8.210   5.938   4.018  0.2265 -0.6719  1.9356
13208SOL     OW40201   1.944   5.088   9.456 -0.3056  0.2197  0.6106
13208SOL    HW140202   1.941   5.182   9.434 -3.7093  0.3014  0.8730
13208SOL    HW240203   2.001   5.050   9.389 -0.3875  2.2319 -0.6967
13209SOL     OW40204   2.077   9.889   0.948  0.4454  0.1926 -0.0242
13209SOL    HW140205   2.082   9.833   0.871  0.3420 -0.6912  0.6022
13209SOL    HW240206   2.069   9.829   1.022  0.1720  1.0327  0.6532
13210SOL     OW40207   1.537   7.068   7.023  0.4624 -0.4623  0.0521
13210SOL    HW140208   1.575   7.148   7.058  1.4008 -0.7555 -0.2552
13210SOL    HW240209   1.607   7.031   6.969 -1.3651  0.8274 -3.5372
13211SOL     OW40210   4.174   8.165   6.797  0.3278  0.9593  0.1563
13211SOL    HW140211   4.174   8.114   6.879  1.9785 -0.2821 -0.5436
13211SOL    HW240212   4.225   8.243   6.819  1.0373  0.4842  0.2781
13212SOL     OW40213   1.630   3.400   1.606  0.1183 -0.2213 -0.1805
13212SOL    HW140214   1.593   3.475   1.561  0.9028 -1.2983 -2.7879
13212SOL    HW240215   1.596   3.406   1.695 -0.9925  2.3824 -0.6989
13213SOL     OW40216   7.137   3.337   2.339 -0.2690  0.0205  0.3547
13213SOL    HW140217   7.187   3.408   2.380  1.2559 -1.5938  1.4579
13213SOL    HW240218   7.076   3.309   2.408 -0.2815 -0.2842  0.2189
13214SOL     OW40219   6.463   4.380   6.296  0.0603  0.0718  0.4291
13214SOL    HW140220   6.501   4.380   6.208 -0.2357  0.6200  0.2989
13214SOL    HW240221   6.425   4.292   6.306  0.0832  0.0134  0.0077
13215SOL     OW40222   2.381   4.215   7.450  0.1561 -0.3754  0.2480
13215SOL    HW140223   2.400   4.308   7.454  1.3275 -0.5520 -0.5634
13215SOL    HW240224   2.342   4.201   7.364 -0.2109 -0.6032  0.4474
13216SOL     OW40225   5.172   6.263   0.635  0.1415 -0.4165  0.3213
13216SOL    HW140226   5.228   6.206   0.581 -0.5353 -0.6738 -0.1155
13216SOL    HW240227   5.150   6.210   0.711  1.2121 -0.0055  0.9405
13217SOL     OW40228   6.497   2.476   8.510 -0.3259 -0.4992 -0.1509
13217SOL    HW140229   6.513   2.551   8.569 -1.2961 -0.0712 -0.4085
13217SOL    HW240230   6.402   2.467   8.509 -0.4501  0.3707 -2.7200
13218SOL     OW40231   5.349   8.001   7.134 -0.5506  0.2278 -0.2458
13218SOL    HW140232   5.312   7.995   7.046  0.3809 -1.3859 -0.5625
13218SOL    HW240233   5.293   7.945   7.188 -1.0632  1.1385  0.1886
13219SOL     OW40234   5.825   2.537   0.778  0.4018  0.2682  0.0321
13219SOL    HW140235   5.855   2.448   0.761  1.2133  0.6403 -0.5288
13219SOL    HW240236   5.745   2.526   0.830 -1.6499 -0.9191 -3.0710
13220SOL     OW40237   9.808   2.076   5.870  0.0408 -0.1460  0.6557
13220SOL    HW140238   9.763   2.022   5.934 -0.3060  1.3685  1.7289
13220SOL    HW240239   9.757   2.157   5.865  0.3297 -0.0214 -1.1905
13221SOL     OW40240   0.686   7.863   3.123  0.1554  0.0041 -0.4905
13221SOL    HW140241   0.633   7.937   3.154  2.9308  1.8869  0.0460
13221SOL    HW240242   0.742   7.901   3.055  1.1072 -1.8161 -0.7773
13222SOL     OW40243   1.833   2.129   4.717  0.1713 -0.0956 -0.4838
13222SOL    HW140244   1.902   2.081   4.763 -1.0560 -1.6225 -0.1412
13222SOL    HW240245   1.846   2.107   4.625  0.2804 -0.1828 -0.4483
13223SOL     OW40246   0.541   5.685   7.100  0.1973  0.6915 -0.4649
13223SOL    HW140247   0.471   5.747   7.079  0.7717  1.1960 -0.9264
13223SOL    HW240248   0.533   5.617   7.033 -0.4857  0.2083  0.0909
13224SOL     OW40249   1.466   2.521   8.868  0.3157  0.5147 -0.1207
13224SOL    HW140250   1.384   2.472   8.873  0.9562 -0.5222  0.4723
13224SOL    HW240251   1.512   2.486   8.792 -0.4102  2.1383 -1.3818
13225SOL     OW40252   6.300   6.718   6.241 -0.3651 -0.4615  0.4491
13225SOL    HW140253   6.302   6.654   6.170  1.7746 -0.8864  0.8111
13225SOL    HW240254   6.373   6.776   6.223  0.3898 -0.7303  2.3910
13226SOL     OW40255   1.461   3.825   1.220 -0.1915 -0.2869  0.0033
13226SOL    HW140256   1.373   3.864   1.220 -1.3126 -2.6052  1.1689
13226SOL    HW240257   1.469   3.785   1.307  0.3338 -3.5525 -1.4024
13227SOL     OW40258   1.619   4.772   3.168 -0.1196 -0.0258 -0.0181
13227SOL    HW140259   1.549   4.709   3.183  0.2464 -0.3737  0.2561
13227SOL    HW240260   1.648   4.755   3.078  1.1684 -1.4748  0.6280
13228SOL     OW40261   4.564   7.553   8.169  0.2647  0.4929 -0.1132
13228SOL    HW140262   4.567   7.519   8.258 -0.5368  0.0697 -0.2378
13228SOL    HW240263   4.585   7.645   8.178 -0.5302  0.6196  0.6176
13229SOL     OW40264   8.118   4.968   0.818 -0.0202  0.2236  0.6902
13229SOL    HW140265   8.064   4.914   0.760  2.2437 -0.9627 -0.4759
13229SOL    HW240266   8.102   5.058   0.789  1.1970 -0.3453 -2.0487
13230SOL     OW40267   6.846   7.533   3.299  0.2564 -0.7424 -0.3244
13230SOL    HW140268   6.870   7.454   3.250 -0.4065 -2.1970  1.5549
13230SOL    HW240269   6.911   7.538   3.369 -0.3688 -0.2893  0.2352
13231SOL     OW40270   8.671   8.037   6.623 -0.4620 -0.7106 -0.0114
13231SOL    HW140271   8.608   8.108   6.624  0.1523 -0.0889  2.6918
13231SOL    HW240272   8.752   8.077   6.589 -0.9099 -0.9445 -1.3916
13232SOL     OW40273   1.773   0.279   3.467 -0.2570 -0.4029  0.2824
13232SOL    HW140274   1.780   0.322   3.381  0.9789 -1.2442 -0.0774
13232SOL    HW240275   1.680   0.283   3.488 -0.7965 -1.1778 -1.6576
13233SOL     OW40276   2.657   4.185   5.131  0.1889  0.2165 -0.5666
13233SOL    HW140277   2.642   4.116   5.195  1.2792  0.2424 -0.2707
13233SOL    HW240278   2.679   4.139   5.050  1.2700  0.2028 -0.2795
13234SOL     OW40279   2.793   2.968   3.017 -0.0865 -0.0892  0.5236
13234SOL    HW140280   2.836   2.914   3.083 -1.3472 -1.0507  0.5831
13234SOL    HW240281   2.855   3.039   3.001  1.2517 -1.0971  1.0369
13235SOL     OW40282   6.979   6.305   6.410  0.2609  0.3924 -0.4518
13235SOL    HW140283   6.925   6.251   6.468 -0.8799  1.5387 -0.3919
13235SOL    HW240284   6.961   6.271   6.323 -0.4613  0.6531 -0.4148
13236SOL     OW40285   9.623   4.356   6.607 -0.3110  0.0418 -0.3524
13236SOL    HW140286   9.611   4.356   6.512 -0.4615 -1.0663 -0.3426
13236SOL    HW240287   9.715   4.336   6.620  0.1346  1.9708 -0.2830
13237SOL     OW40288   3.145   5.232   9.499 -0.0185 -0.4100 -0.1300
13237SOL    HW140289   3.206   5.248   9.571 -0.0175  0.2808 -0.2748
13237SOL    HW240290   3.097   5.154   9.525  0.8127 -0.8733  0.0648
13238SOL     OW40291   3.198   5.923   7.211 -0.0653 -0.3798  0.0727
13238SOL    HW140292   3.292   5.937   7.210  0.0609 -0.7373  1.9806
13238SOL    HW240293   3.161   6.010   7.224 -0.0617 -0.1518 -1.3118
13239SOL     OW40294   0.503   7.611   4.753  0.1754  0.7034 -0.7889
13239SOL    HW140295   0.517   7.575   4.665  2.4959 -1.7857  0.4701
13239SOL    HW240296   0.519   7.705   4.743  0.4031  0.4812 -2.9903
13240SOL     OW40297   7.281   7.702   5.246 -0.4234 -0.5084 -0.3097
13240SOL    HW140298   7.341   7.640   5.288 -0.2284 -0.0093  0.1662
13240SOL    HW240299   7.207   7.648   5.216  0.6679 -1.2848 -1.7417
13241SOL     OW40300   0.903   6.926   1.329  0.4732  0.1355  0.6097
13241SOL    HW140301   0.979   6.934   1.271 -1.1201  0.3616 -1.5850
13241SOL    HW240302   0.922   6.850   1.384  2.0420 -0.1219 -0.2443
13242SOL     OW40303   0.911   0.062   2.855  0.3070  0.5198 -0.0574
13242SOL    HW140304   0.920   0.105   2.770 -0.1285  1.9686  0.5981
13242SOL    HW240305   0.827   0.093   2.889  0.6588  0.2886  1.0675
13243SOL     OW40306   2.902   3.084   8.462  0.1797  0.4017  0.0634
13243SOL    HW140307   2.886   3.011   8.403  1.0847  1.1663 -1.1524
13243SOL    HW240308   2.981   3.058   8.511 -0.2409  0.0224  0.5594
13244SOL     OW40309   8.787   7.896   0.189 -0.2592  0.2365 -0.5413
13244SOL    HW140310   8.812   7.898   0.282 -1.0825  1.0432 -0.3187
13244SOL    HW240311   8.832   7.972   0.151 -0.3875  0.2448 -0.6761
13245SOL     OW40312   7.079   8.991   5.855  0.6667  0.1234  0.0195
13245SOL    HW140313   7.078   8.968   5.948 -0.0445  0.5632  0.1280
13245SOL    HW240314   6.994   8.960   5.822 -0.6457  3.0619  0.3180
13246SOL     OW40315   0.846   1.031   9.909 -0.5719  0.3696 -0.1151
13246SOL    HW140316   0.919   1.078   9.869 -0.5119  1.2848  0.9960
13246SOL    HW240317   0.871   1.023  10.001 -1.4482 -0.1701  0.0888
13247SOL     OW40318   7.771   5.036   1.208 -0.0133  0.4039 -0.2480
13247SOL    HW140319   7.810   4.966   1.155 -2.5321 -2.5350  1.3682
13247SOL    HW240320   7.815   5.116   1.181  4.1224 -1.9639 -1.2698
13248SOL     OW40321   1.910   7.946   0.636 -0.6199 -0.6506 -0.5511
13248SOL    HW140322   1.920   7.858   0.600 -0.4031 -1.8132  2.1174
13248SOL    HW240323   1.816   7.955   0.651 -0.4712 -1.1961  0.8478
13249SOL     OW40324   2.674   0.852   6.558  0.1453 -0.1222  0.1541
13249SOL    HW140325   2.663   0.812   6.471  0.9902  1.8375 -0.9291
13249SOL    HW240326   2.604   0.918   6.563  0.7590  0.5204  0.4892
13250SOL     OW40327   1.411   8.072   6.641  0.4029 -0.0286  0.5565
13250SOL    HW140328   1.482   8.133   6.662  0.0084  0.5194  0.3421
13250SOL    HW240329   1.436   8.034   6.557  1.6314 -1.6836  1.6235
13251SOL     OW40330   1.434   0.108   1.093 -0.1522  0.1753  0.1345
13251SOL    HW140331   1.486   0.188   1.096  1.0670 -0.6012  0.1978
13251SOL    HW240332   1.401   0.097   1.183  1.1296 -0.3061  0.5737
13252SOL     OW40333   4.037   7.409   2.786  0.1088 -0.2834 -0.2506
13252SOL    HW140334   4.097   7.335   2.773 -1.5932 -1.4029 -2.5861
13252SOL    HW240335   3.966   7.372   2.840 -0.0118  0.0895 -0.1529
13253SOL     OW40336   7.966   4.887   7.920 -0.1633 -0.8966 -0.6284
13253SOL    HW140337   7.965   4.851   8.009  0.3271 -0.7892 -0.5753
13253SOL    HW240338   7.892   4.845   7.876 -0.4066 -0.9525 -0.1699
13254SOL     OW40339   2.266   9.173   0.879 -0.1009  0.1204  0.1409
13254SOL    HW140340   2.260   9.147   0.787 -0.2657  0.7299 -0.0300
13254SOL    HW240341   2.291   9.094   0.926  0.4557 -0.0809 -0.4932
13255SOL     OW40342   2.681   8.148   5.202  0.0304 -0.6314  0.2497
13255SOL    HW140343   2.641   8.235   5.199  1.3717  0.0146  0.3812
13255SOL    HW240344   2.621   8.093   5.151  0.2027  0.8231 -1.6400
13256SOL     OW40345   1.986   5.418   3.731 -0.5388  0.2373 -0.0544
13256SOL    HW140346   1.958   5.425   3.640  1.4663 -0.2986 -0.7726
13256SOL    HW240347   1.982   5.508   3.763 -1.2326  0.4419 -0.6740
13257SOL     OW40348   5.787   3.616   8.635  0.0724  0.3751  0.0879
13257SOL    HW140349   5.777   3.613   8.540  0.4522 -0.0963  0.0599
13257SOL    HW240350   5.872   3.575   8.651  0.7208  1.8213  0.5099
13258SOL     OW40351   2.343   2.985   0.151 -0.4052  0.3842 -0.1516
13258SOL    HW140352   2.332   2.896   0.119  0.6081 -0.0876  0.7409
13258SOL    HW240353   2.393   3.029   0.083  0.9627 -0.3634  0.3198
13259SOL     OW40354   8.926   2.237   3.036 -0.2479 -0.2279  0.6561
13259SOL    HW140355   9.000   2.256   3.093  0.2000  0.9819 -0.2863
13259SOL    HW240356   8.884   2.321   3.022  0.2900 -0.2604 -1.6113
13260SOL     OW40357   3.203   6.774   8.755  0.2652  0.1050 -0.6172
13260SOL    HW140358   3.221   6.734   8.670  0.7349  0.5432 -0.7253
13260SOL    HW240359   3.110   6.796   8.751  0.3303  0.3167 -1.1038
13261SOL     OW40360   5.302   3.133   8.789 -0.2558  0.2109 -0.8867
13261SOL    HW140361   5.327   3.061   8.846 -0.8724 -0.8704 -1.9195
13261SOL    HW240362   5.353   3.119   8.709  0.3892  1.5321 -0.7307
13262SOL     OW40363   9.425   1.833   1.778  0.4825  0.7813  0.2814
13262SOL    HW140364   9.402   1.772   1.848  0.7524 -1.8473 -1.7363
13262SOL    HW240365   9.344   1.882   1.761  0.2259  0.9715  1.9028
13263SOL     OW40366   5.213   7.560   7.530  0.0589 -0.0758  0.5663
13263SOL    HW140367   5.138   7.583   7.474 -0.4033 -1.8680  0.3617
13263SOL    HW240368   5.269   7.507   7.473  0.3508 -0.6352  1.3700
13264SOL     OW40369   7.413   7.482   5.381 -0.1850  1.0081 -0.5110
13264SOL    HW140370   7.455   7.523   5.457 -1.1267  2.8166 -0.9029
13264SOL    HW240371   7.437   7.390   5.387 -0.5551  1.0051  2.2158
13265SOL     OW40372   4.343   5.444   8.836  0.6706 -0.2599  0.2765
13265SOL    HW140373   4.265   5.420   8.886  1.3686 -1.4962  0.8026
13265SOL    HW240374   4.311   5.461   8.748 -0.3097  0.1163  0.6923
13266SOL     OW40375   6.415   8.675   8.887 -0.5445  0.1642 -0.1976
13266SOL    HW140376   6.323   8.664   8.909 -0.5161 -0.5388 -0.4052
13266SOL    HW240377   6.444   8.589   8.858 -0.3437  0.8168 -2.0895
13267SOL     OW40378   7.277   4.960   3.279  0.3128  0.4895 -0.5939
13267SOL    HW140379   7.184   4.978   3.267  0.3012  0.4145 -0.6165
13267SOL    HW240380   7.321   5.030   3.232  0.2681  0.3611 -0.8260
13268SOL     OW40381   1.640   9.643   1.730  0.2188  0.8293 -0.3398
13268SOL    HW140382   1.586   9.631   1.808 -0.2302 -1.3150 -0.9135
13268SOL    HW240383   1.676   9.731   1.739  0.4715  0.5403  2.4689
13269SOL     OW40384   9.436   7.738   2.061  0.0808  0.0338  0.3303
13269SOL    HW140385   9.483   7.730   2.144  0.6083 -1.3745 -0.0789
13269SOL    HW240386   9.504   7.755   1.996 -0.4543  2.4964  0.3245
13270SOL     OW40387   2.389   9.284   1.487 -0.1223 -0.4424  0.0245
13270SOL    HW140388   2.327   9.356   1.500 -1.7549 -1.9879  1.0707
13270SOL    HW240389   2.374   9.256   1.396 -0.1338 -0.0763 -0.0890
13271SOL     OW40390   6.308   3.794   2.074  0.3280 -0.0440  0.0529
13271SOL    HW140391   6.293   3.795   2.169  0.7675  0.9334  0.1226
13271SOL    HW240392   6.315   3.887   2.050 -0.0301 -0.2734 -0.9799
13272SOL     OW40393   9.009   8.669   0.043 -0.0635 -0.0205  0.5203
13272SOL    HW140394   8.936   8.608   0.031  0.0427 -0.5533  2.2968
13272SOL    HW240395   9.037   8.690  -0.046 -1.5801 -0.7710 -0.1788
13273SOL     OW40396   3.254   5.535   1.881  0.1935  0.1317  0.2608
13273SOL    HW140397   3.232   5.621   1.918 -0.5861  0.7517 -1.5156
13273SOL    HW240398   3.310   5.555   1.806 -0.0448 -0.9123 -0.2120
13274SOL     OW40399   0.120   8.742   5.631 -0.0033  0.5539 -0.4029
13274SOL    HW140400   0.142   8.803   5.561  1.0631  0.7601  0.0955
13274SOL    HW240401   0.171   8.663   5.610  0.5822  0.7321  0.3030
13275SOL     OW40402   3.404   7.088   3.917 -0.3897  0.1563  0.0031
13275SOL    HW140403   3.429   7.114   4.006 -0.5766 -0.3066  0.1978
13275SOL    HW240404   3.480   7.040   3.884 -0.4357  0.0678  0.0260
13276SOL     OW40405   8.924   2.311   2.090 -0.2611 -1.0036 -0.1216
13276SOL    HW140406   8.914   2.220   2.064 -1.2025 -1.2722  1.0808
13276SOL    HW240407   8.852   2.327   2.151 -0.0737  0.5262 -0.2515
13277SOL     OW40408   1.893   1.871   2.364  0.0370 -0.1560  0.2769
13277SOL    HW140409   1.874   1.838   2.276 -2.9165  0.6906  0.4939
13277SOL    HW240410   1.831   1.826   2.421 -0.2270  1.5538  1.4210
13278SOL     OW40411   4.339   2.904   7.235 -0.4030 -0.3015  0.5576
13278SOL    HW140412   4.296   2.900   7.150  0.3897 -0.2784  0.1494
13278SOL    HW240413   4.315   2.822   7.278 -0.5185 -0.4708  0.1735
13279SOL     OW40414   2.217   5.658   5.127 -0.0605 -0.0246  0.2683
13279SOL    HW140415   2.144   5.607   5.092  0.1898  0.1230 -0.5105
13279SOL    HW240416   2.295   5.614   5.091  0.2992 -0.7635  1.8600
13280SOL     OW40417   5.335   6.822   3.887 -0.7939  0.5620  0.1645
13280SOL    HW140418   5.384   6.804   3.807  0.1581  2.0245  0.3927
13280SOL    HW240419   5.253   6.774   3.875 -0.4807  0.3624 -1.4717
13281SOL     OW40420   0.211   3.437   7.035 -0.3109  0.0368 -0.3711
13281SOL    HW140421   0.297   3.400   7.014 -0.9629 -1.6802 -0.1818
13281SOL    HW240422   0.219   3.465   7.126 -0.1988 -0.9968 -0.0401
13282SOL     OW40423   1.212   6.620   7.881 -0.0731  0.4425  0.3263
13282SOL    HW140424   1.170   6.610   7.967 -1.5953  1.2539 -0.2923
13282SOL    HW240425   1.225   6.530   7.851 -3.8253  0.0347 -0.5576
13283SOL     OW40426   1.104   7.820   0.067  0.1393  0.5710  0.0242
13283SOL    HW140427   1.022   7.828   0.018 -0.9897 -0.8218  1.5583
13283SOL    HW240428   1.084   7.857   0.153  0.8220 -0.5862  0.7107
13284SOL     OW40429   8.869   1.057   4.327  0.2271  0.9051  0.4553
13284SOL    HW140430   8.784   1.059   4.284  0.5421 -0.7633 -0.3251
13284SOL    HW240431   8.885   1.148   4.353 -2.0628  1.1357  1.2233
13285SOL     OW40432   5.943   3.774   1.235  0.2561  1.0729  0.4158
13285SOL    HW140433   5.932   3.720   1.313  0.7421  0.9432  0.3962
13285SOL    HW240434   5.882   3.737   1.171  1.9296 -0.6715 -0.2444
13286SOL     OW40435   0.323   8.197   1.525 -1.0155  0.2355 -0.1503
13286SOL    HW140436   0.312   8.176   1.618 -1.0016  0.1999 -0.1563
13286SOL    HW240437   0.260   8.141   1.481 -1.0481  0.2790 -0.1593
13287SOL     OW40438   6.368   0.444   6.430 -0.1912 -0.8110 -0.0323
13287SOL    HW140439   6.375   0.412   6.340 -0.9901 -1.1823  0.0290
13287SOL    HW240440   6.389   0.368   6.484  3.3813  0.1288  0.1426
13288SOL     OW40441   7.314   7.586   8.662 -0.1336 -0.4148 -0.0545
13288SOL    HW140442   7.257   7.511   8.645 -0.4946 -0.2740  0.5102
13288SOL    HW240443   7.313   7.596   8.757 -0.4618  0.5763 -0.1464
13289SOL     OW40444   6.698   7.124   2.188  0.1327 -1.2243 -0.5518
13289SOL    HW140445   6.620   7.071   2.204 -0.3980  0.1417  1.9013
13289SOL    HW240446   6.760   7.097   2.256  0.5571 -0.0632 -0.4507
13290SOL     OW40447   1.921   8.182   0.456 -0.8475 -0.1824  0.0954
13290SOL    HW140448   1.895   8.092   0.478 -0.6712 -0.1989  0.2401
13290SOL    HW240449   2.012   8.174   0.428 -0.5177  0.0900  1.0617
13291SOL     OW40450   4.428   3.427   8.090 -0.0975  0.5284 -0.2427
13291SOL    HW140451   4.404   3.335   8.084 -0.4895  0.5732  0.6157
13291SOL    HW240452   4.508   3.434   8.037  0.2953 -0.4290  0.1985
13292SOL     OW40453   3.751   2.849   0.978  0.2065  0.2948 -0.4078
13292SOL    HW140454   3.705   2.921   1.021 -0.5473  0.3651 -1.3008
13292SOL    HW240455   3.809   2.891   0.915  0.6302  0.1565 -0.1164
13293SOL     OW40456   6.298   2.376   5.554 -0.1947 -0.2613 -0.1491
13293SOL    HW140457   6.322   2.464   5.523 -0.4092  0.1064  0.7143
13293SOL    HW240458   6.303   2.321   5.475  0.6669  0.3727 -0.5534
13294SOL     OW40459   0.539   3.369   4.254  0.0091  0.1067  0.5536
13294SOL    HW140460   0.559   3.300   4.191  1.4959  1.5819 -0.6802
13294SOL    HW240461   0.594   3.349   4.330 -0.3189 -0.6081  0.6053
13295SOL     OW40462   1.692   9.606   8.399 -0.4151  0.6553  0.2370
13295SOL    HW140463   1.732   9.581   8.316 -0.6016  0.3740  0.2308
13295SOL    HW240464   1.619   9.663   8.374  0.0399  1.2598  0.2559
13296SOL     OW40465   6.351   3.438   9.971  0.1411  0.2194 -0.0525
13296SOL    HW140466   6.404   3.365   9.939  2.1644  0.9017  1.5580
13296SOL    HW240467   6.364   3.507   9.905 -1.4762 -0.6752 -1.3802
13297SOL     OW40468   3.475   4.060   9.218 -0.2431  0.4296 -1.5328
13297SOL    HW140469   3.531   3.982   9.215  1.4341  1.2796  2.1684
13297SOL    HW240470   3.387   4.026   9.235  0.4859 -0.7587  0.1876
13298SOL     OW40471   5.414   0.813   2.714 -0.5719  0.5749 -0.2299
13298SOL    HW140472   5.394   0.765   2.795 -1.1001  0.0121 -0.6823
13298SOL    HW240473   5.509   0.819   2.712 -0.4490 -1.1005 -0.5163
13299SOL     OW40474   8.640   1.691   6.169 -0.2225 -0.2609  0.1617
13299SOL    HW140475   8.601   1.773   6.200  1.2376  0.3455  0.4785
13299SOL    HW240476   8.624   1.691   6.075 -2.3207 -0.8125  0.4480
13300SOL     OW40477   4.928   9.503   2.733  0.6085  0.1809  0.0630
13300SOL    HW140478   4.894   9.589   2.758  0.7485  0.1479  0.3680
13300SOL    HW240479   4.965   9.467   2.814  0.7270 -0.0825 -0.1077
13301SOL     OW40480   4.366   5.411   4.635  0.0800  0.5245 -0.8586
13301SOL    HW140481   4.284   5.362   4.644  0.3699  0.3808  1.5118
13301SOL    HW240482   4.435   5.345   4.645  0.4632  0.9976 -0.2879
13302SOL     OW40483   1.374   9.104   4.897 -0.4031  0.2442 -0.1579
13302SOL    HW140484   1.284   9.076   4.915 -0.0820 -2.8946 -2.5792
13302SOL    HW240485   1.412   9.120   4.983 -2.3084 -1.7970  1.1634
13303SOL     OW40486   3.787   0.401   3.403 -0.2436 -0.5311 -0.1615
13303SOL    HW140487   3.861   0.349   3.374  0.1058  0.2769 -0.7674
13303SOL    HW240488   3.765   0.457   3.328  0.6645  1.6029  1.0551
13304SOL     OW40489   5.271   7.714   1.183 -0.6098  0.0761 -0.1720
13304SOL    HW140490   5.304   7.657   1.114  0.0475 -0.9469  0.9528
13304SOL    HW240491   5.177   7.722   1.166 -0.3790  0.2364 -1.4412
13305SOL     OW40492   8.348   4.367   8.235  0.1692 -0.0070  0.2522
13305SOL    HW140493   8.279   4.400   8.177  0.3849  0.8003  0.4560
13305SOL    HW240494   8.428   4.411   8.206  0.5129 -0.5507  0.3519
13306SOL     OW40495   7.781   9.421   7.168 -0.0195 -0.4347  0.1693
13306SOL    HW140496   7.771   9.499   7.222 -0.0746 -0.3520  0.0414
13306SOL    HW240497   7.772   9.453   7.078 -1.0229 -0.7415  0.1456
13307SOL     OW40498   7.534   6.073   5.463  0.0181 -0.1508 -0.1369
13307SOL    HW140499   7.536   6.001   5.526 -0.8253  0.8258  1.0558
13307SOL    HW240500   7.616   6.066   5.416 -0.2329 -2.1508 -0.3581
13308SOL     OW40501   0.031   4.840   8.639 -0.2304  0.6178  0.3333
13308SOL    HW140502   0.108   4.804   8.681  1.9873  1.1473 -2.9369
13308SOL    HW240503  -0.029   4.765   8.631  0.9596 -0.4149  0.7260
13309SOL     OW40504   5.087   4.654   8.134  0.1977  0.1255  0.3825
13309SOL    HW140505   5.084   4.667   8.039 -3.4718 -1.3768  0.1090
13309SOL    HW240506   5.118   4.737   8.169 -0.1999  1.3906 -2.0651
13310SOL     OW40507   2.742   4.179   7.063  0.0431  0.1740 -0.5723
13310SOL    HW140508   2.649   4.194   7.084  0.0326  0.2344 -0.6622
13310SOL    HW240509   2.762   4.243   6.995  0.0810 -0.0127 -0.7383
13311SOL     OW40510   8.390   0.672   6.115 -0.8212 -0.3581 -0.1195
13311SOL    HW140511   8.347   0.728   6.051 -0.4185 -0.6650 -0.6621
13311SOL    HW240512   8.385   0.721   6.197 -0.3881  0.5191 -0.6053
13312SOL     OW40513   1.211   2.250   4.984  0.0979  0.6566 -0.1611
13312SOL    HW140514   1.163   2.307   4.925 -1.5897  1.1285  1.5752
13312SOL    HW240515   1.198   2.288   5.071  2.5113  0.0094  0.5672
13313SOL     OW40516   2.618   6.975   4.263  0.5514 -0.5415  0.3467
13313SOL    HW140517   2.665   7.018   4.335 -1.3009 -1.4066  2.1468
13313SOL    HW240518   2.621   7.040   4.191  0.8307  1.1283  1.7913
13314SOL     OW40519   9.525   6.175   8.355 -0.0637 -0.4652 -1.0568
13314SOL    HW140520   9.563   6.263   8.355 -1.4372  0.2445  1.6989
13314SOL    HW240521   9.507   6.156   8.263  2.7604  0.9470 -2.0268
13315SOL     OW40522   4.139   5.451   4.422  0.0772  0.4367  0.1326
13315SOL    HW140523   4.178   5.364   4.417 -0.5434  0.1907 -0.5189
13315SOL    HW240524   4.212   5.511   4.409  0.1553 -0.0211 -1.7941
13316SOL     OW40525   6.297   8.882   1.206  0.0456 -0.3554  0.0953
13316SOL    HW140526   6.361   8.927   1.262  0.1564 -0.0660 -0.2581
13316SOL    HW240527   6.322   8.907   1.117 -2.9478  3.1277 -0.0175
13317SOL     OW40528   3.091   0.876   3.324  0.1915 -0.0442 -1.0869
13317SOL    HW140529   3.142   0.858   3.403 -0.6546 -1.4597 -0.8260
13317SOL    HW240530   3.014   0.923   3.355 -0.5410 -1.3031 -0.9173
13318SOL     OW40531   0.744   7.659   7.470 -0.3772 -0.5219 -0.9075
13318SOL    HW140532   0.778   7.572   7.452 -0.9277 -0.7471 -0.8571
13318SOL    HW240533   0.777   7.680   7.558 -0.8307 -0.9640 -0.6321
13319SOL     OW40534   6.271   4.925   9.205 -0.4141 -0.8621 -0.5342
13319SOL    HW140535   6.305   4.971   9.281 -0.4937 -0.7335 -0.5749
13319SOL    HW240536   6.178   4.947   9.203 -0.4833 -1.1507 -0.4658
13320SOL     OW40537   8.522   4.852   4.675 -0.6751 -0.0422 -0.1906
13320SOL    HW140538   8.543   4.898   4.594  0.7605 -0.4917 -0.0924
13320SOL    HW240539   8.485   4.919   4.732 -1.5568  0.3125 -1.1477
13321SOL     OW40540   3.033   1.286   2.169  0.2440  0.8991 -0.0823
13321SOL    HW140541   3.097   1.331   2.114 -0.0544  0.5438 -0.7376
13321SOL    HW240542   2.951   1.294   2.121  0.3205 -1.0038 -0.6194
13322SOL     OW40543   1.197   1.534   1.945  0.0176 -0.1717  0.0155
13322SOL    HW140544   1.234   1.485   1.872 -1.3889  0.1636 -0.9789
13322SOL    HW240545   1.122   1.580   1.907 -0.0078  1.0148  1.4037
13323SOL     OW40546   0.127   6.690   2.490  0.4246  0.2506 -0.0066
13323SOL    HW140547   0.215   6.720   2.468  1.0091 -1.9009 -0.8462
13323SOL    HW240548   0.139   6.641   2.572  0.1451 -0.5742 -0.4492
13324SOL     OW40549   1.508   4.234   5.574 -0.0315 -0.0418 -0.3898
13324SOL    HW140550   1.600   4.246   5.598  0.6295 -1.9108 -1.7688
13324SOL    HW240551   1.485   4.149   5.610 -1.0188  0.0998 -0.6694
13325SOL     OW40552   5.550   0.809   4.888  0.0121 -0.2852 -0.4181
13325SOL    HW140553   5.520   0.895   4.859  1.0228 -0.5908 -2.6080
13325SOL    HW240554   5.470   0.762   4.911 -0.6241  0.9364 -0.0577
13326SOL     OW40555   8.058   8.454   6.070  0.0332  0.0634 -0.1793
13326SOL    HW140556   8.115   8.528   6.049 -0.4903  0.1823 -1.3011
13326SOL    HW240557   8.023   8.426   5.985 -0.1571 -1.1673  0.2782
13327SOL     OW40558   9.016   6.887   0.879 -0.2493 -0.3448  0.6082
13327SOL    HW140559   8.975   6.967   0.847  0.4816 -0.1056  0.2356
13327SOL    HW240560   9.060   6.851   0.802  2.2430  0.6653  1.4626
13328SOL     OW40561   0.070   5.936   4.247  0.4338  0.7923 -0.0960
13328SOL    HW140562   0.158   5.963   4.272  0.3373  0.5738  0.5050
13328SOL    HW240563   0.031   6.014   4.208  0.3551  1.3818  1.0977
13329SOL     OW40564   1.395   5.981   0.299 -0.2741 -0.3370  0.6666
13329SOL    HW140565   1.425   6.013   0.384  0.8715  0.6372 -0.0614
13329SOL    HW240566   1.345   5.902   0.319  0.1669 -0.2603  2.2179
13330SOL     OW40567   2.538   3.905   8.769 -0.3483  0.1989 -0.5465
13330SOL    HW140568   2.482   3.828   8.778  0.3635 -0.1833  0.9211
13330SOL    HW240569   2.572   3.920   8.857  0.1251  1.7480 -0.9609
13331SOL     OW40570   3.037   2.425   6.290  0.5078  0.0901  0.4680
13331SOL    HW140571   3.058   2.339   6.328 -1.1687  0.1436  1.6200
13331SOL    HW240572   3.060   2.488   6.359  0.4488  0.4567  0.1550
13332SOL     OW40573   9.842   4.997   7.740  0.1199  0.1154  0.5872
13332SOL    HW140574   9.761   4.948   7.756  0.8057 -0.5937  2.0906
13332SOL    HW240575   9.905   4.960   7.802  1.4563  1.0175 -0.1794
13333SOL     OW40576   4.223   0.644   6.506 -0.0459 -0.2662  0.2537
13333SOL    HW140577   4.142   0.686   6.536 -0.1137 -0.7561  0.7574
13333SOL    HW240578   4.193   0.571   6.452  0.0727  0.5364 -0.9484
13334SOL     OW40579   8.417   6.869   6.107  0.1662 -0.1177 -0.7082
13334SOL    HW140580   8.329   6.885   6.073  0.3130 -0.4296 -1.2400
13334SOL    HW240581   8.453   6.800   6.051  0.3479 -0.7645  0.1872
13335SOL     OW40582   2.726   1.292   9.335  0.2550  0.0287 -0.5926
13335SOL    HW140583   2.741   1.384   9.315  1.5313  0.2102  1.0456
13335SOL    HW240584   2.685   1.292   9.422 -0.8593 -0.9260 -1.0794
13336SOL     OW40585   6.307   8.058   9.929  0.0838 -1.1041 -0.8485
13336SOL    HW140586   6.300   8.138   9.877  0.9191 -1.7705 -2.0129
13336SOL    HW240587   6.401   8.045   9.943 -0.1099 -0.9963  0.7734
13337SOL     OW40588   7.467   8.280   3.092  0.4738  0.2693  0.2013
13337SOL    HW140589   7.507   8.315   3.013  1.8220  0.4061  0.9267
13337SOL    HW240590   7.419   8.355   3.130  0.8486  0.5316  0.1603
13338SOL     OW40591   4.497   2.352   9.692  0.2951  0.3140 -0.1156
13338SOL    HW140592   4.537   2.391   9.770  0.0659  0.7225 -0.1999
13338SOL    HW240593   4.567   2.350   9.627  0.3086  0.5730 -0.1081
13339SOL     OW40594   0.140   9.840   8.782  0.0996 -0.4431 -0.2929
13339SOL    HW140595   0.165   9.857   8.873  0.7152  1.2294 -0.7365
13339SOL    HW240596   0.062   9.893   8.769 -0.6596 -1.5640 -0.4368
13340SOL     OW40597   8.464   2.712   6.157 -0.4492 -0.2812  0.4704
13340SOL    HW140598   8.376   2.741   6.182 -0.7136 -2.3186  2.2124
13340SOL    HW240599   8.512   2.793   6.140 -2.7380  0.8950 -1.0246
13341SOL     OW40600   1.634   4.147   5.900  0.8862 -0.4252  0.0748
13341SOL    HW140601   1.694   4.155   5.825  2.3345  1.0216  1.3260
13341SOL    HW240602   1.688   4.112   5.970 -0.4111 -1.5643  0.5510
13342SOL     OW40603   6.471   4.345   3.326  0.2422  0.1334 -0.2400
13342SOL    HW140604   6.486   4.265   3.275 -0.3007  0.4765 -0.9448
13342SOL    HW240605   6.382   4.372   3.304 -0.0471  0.2490  0.9563
13343SOL     OW40606   1.479   8.342   1.471  0.0429 -0.1981 -0.0234
13343SOL    HW140607   1.483   8.262   1.419  0.4480  0.6276 -1.3115
13343SOL    HW240608   1.563   8.347   1.515 -0.1111 -0.6425  0.3314
13344SOL     OW40609   5.581   1.245   6.845  0.3727  0.2583  0.5301
13344SOL    HW140610   5.489   1.229   6.823  0.1741 -0.0943  1.5924
13344SOL    HW240611   5.619   1.158   6.851  1.0541  0.4260 -0.9928
13345SOL     OW40612   5.615   9.781   2.027 -0.1464  0.1915  0.3123
13345SOL    HW140613   5.521   9.797   2.017 -0.2025 -0.5563 -0.4585
13345SOL    HW240614   5.623   9.747   2.116 -0.5338  0.7139  0.5548
13346SOL     OW40615   5.213   4.622   9.828 -0.1595  0.8048 -0.2100
13346SOL    HW140616   5.158   4.646   9.753 -0.9172  0.4104  0.1991
13346SOL    HW240617   5.302   4.618   9.793 -0.4661  0.8873 -1.0223
13347SOL     OW40618   1.131   6.896   1.168  0.0805  0.4431 -0.3524
13347SOL    HW140619   1.186   6.974   1.164  1.7387 -0.5103  1.7980
13347SOL    HW240620   1.139   6.857   1.081  2.2266  0.7921 -0.3754
13348SOL     OW40621   7.180   6.448   4.668  0.2440  0.4656 -0.4813
13348SOL    HW140622   7.253   6.393   4.642  0.1021 -0.7894  1.5327
13348SOL    HW240623   7.102   6.401   4.638  0.1299 -0.3954  1.0829
13349SOL     OW40624   2.151   3.211   0.009 -1.1039 -0.5876 -0.0537
13349SOL    HW140625   2.144   3.274   0.081  1.2768  0.4599 -0.6452
13349SOL    HW240626   2.177   3.129   0.052 -0.6130 -0.2093  0.3865
13350SOL     OW40627   2.563   4.636   5.114  0.5054 -0.3540  0.1788
13350SOL    HW140628   2.514   4.685   5.180  1.7594  0.2942  0.6640
13350SOL    HW240629   2.575   4.698   5.042  0.1914 -0.6688 -0.1497
13351SOL     OW40630   8.732   3.306   6.091  0.2068  0.0455 -0.4395
13351SOL    HW140631   8.751   3.388   6.138 -0.8151  0.6109 -0.9724
13351SOL    HW240632   8.753   3.237   6.153  1.5326  0.6829 -0.1266
13352SOL     OW40633   7.419   5.800   7.519  0.6866 -0.4222 -0.5032
13352SOL    HW140634   7.367   5.793   7.599  0.7860  1.1449 -0.2828
13352SOL    HW240635   7.409   5.891   7.491  1.0758 -0.8062 -1.9973
13353SOL     OW40636   2.795   4.441   3.718  0.2509 -0.2883 -0.5736
13353SOL    HW140637   2.878   4.415   3.679  0.2251  0.4800 -1.1581
13353SOL    HW240638   2.815   4.521   3.767  0.3302 -1.3374  1.2126
13354SOL     OW40639   3.046   7.657   0.056  0.2785  0.1583  0.0676
13354SOL    HW140640   3.063   7.723  -0.011  0.5960 -0.0889 -0.0920
13354SOL    HW240641   3.095   7.687   0.133 -0.2442  0.5469  0.2563
13355SOL     OW40642   6.572   9.733   4.811  0.4803 -0.1758 -0.3939
13355SOL    HW140643   6.539   9.645   4.822 -1.6227  0.7010  0.9078
13355SOL    HW240644   6.568   9.772   4.899  1.2874  1.2307 -0.9349
13356SOL     OW40645   0.417   0.363   1.842 -0.8455  0.1025  0.5891
13356SOL    HW140646   0.437   0.383   1.934 -1.4697 -0.8518  0.9436
13356SOL    HW240647   0.473   0.423   1.792 -1.3131  1.4207  1.5899
13357SOL     OW40648   6.522   1.910   3.709  0.3336  0.1807 -0.1692
13357SOL    HW140649   6.507   1.910   3.614  1.9979 -1.0031 -0.4778
13357SOL    HW240650   6.588   1.842   3.722 -2.2535 -2.1364  2.2610
13358SOL     OW40651   5.500   5.244   9.944  0.2871 -0.4433  0.0563
13358SOL    HW140652   5.518   5.318   9.885  1.4989  0.1503  1.1288
13358SOL    HW240653   5.579   5.236   9.997 -0.2213 -1.8970  0.6310
13359SOL     OW40654   5.545   6.545   5.749  0.2527  0.2069 -0.9222
13359SOL    HW140655   5.461   6.545   5.794  0.5973  0.1739 -0.2767
13359SOL    HW240656   5.560   6.453   5.728  0.2961  0.1715 -0.7310
13360SOL     OW40657   3.106   0.586   3.283 -0.3658  0.0545 -0.4963
13360SOL    HW140658   3.073   0.543   3.205  0.1431  1.0401 -1.2764
13360SOL    HW240659   3.106   0.679   3.261  1.1937  0.2272  0.1343
13361SOL     OW40660   4.604   9.579   3.933 -0.0547 -0.5631 -0.1919
13361SOL    HW140661   4.514   9.592   3.905 -0.3354 -0.8850  0.5337
13361SOL    HW240662   4.646   9.664   3.920 -0.5010 -0.3706 -0.3943
13362SOL     OW40663   4.490   6.739   5.897  0.7722 -0.1998 -0.0165
13362SOL    HW140664   4.482   6.719   5.990 -0.3166  0.8663  0.1400
13362SOL    HW240665   4.407   6.780   5.874  0.6699 -1.2655 -1.6831
13363SOL     OW40666   2.852   0.602   2.667  0.2333  0.1843 -0.3586
13363SOL    HW140667   2.765   0.563   2.678  0.1725  0.0167 -1.3707
13363SOL    HW240668   2.883   0.615   2.757  0.0787 -1.8063  0.0337
13364SOL     OW40669   6.259   5.625   0.361 -0.1855  0.7825  0.3100
13364SOL    HW140670   6.270   5.550   0.419  1.5787  0.1323 -0.7820
13364SOL    HW240671   6.324   5.689   0.390  0.9851  0.3020 -1.0890
13365SOL     OW40672   4.298   6.943   7.484  0.3003 -0.1050 -0.2625
13365SOL    HW140673   4.212   6.966   7.520 -0.3106 -1.3731 -0.8500
13365SOL    HW240674   4.331   6.875   7.543  0.3218 -0.5267 -0.7467
13366SOL     OW40675   4.319   6.207   0.683 -0.5791  0.0641  0.6252
13366SOL    HW140676   4.351   6.295   0.665  0.3585 -0.3192  0.3892
13366SOL    HW240677   4.397   6.152   0.686 -1.0181 -0.5564  2.0533
13367SOL     OW40678   5.337   3.412   8.850  0.2800 -0.0605 -0.0780
13367SOL    HW140679   5.430   3.404   8.828  0.5327 -0.8836  1.1580
13367SOL    HW240680   5.293   3.353   8.788  0.5781  0.2868 -0.6310
13368SOL     OW40681   9.056   6.534   7.452  0.9066 -0.0890 -0.2245
13368SOL    HW140682   9.005   6.482   7.514 -1.1689 -0.4638 -2.1224
13368SOL    HW240683   9.005   6.614   7.441  1.8496  0.4740 -0.6032
13369SOL     OW40684   8.010   3.868   9.460 -0.2336 -0.7230  0.0415
13369SOL    HW140685   8.081   3.832   9.513 -0.1679  1.6396  1.7002
13369SOL    HW240686   8.054   3.932   9.403 -1.0259  1.4785  1.7574
13370SOL     OW40687   4.026   1.384   9.276 -0.3318 -0.2113  0.7915
13370SOL    HW140688   3.966   1.336   9.218  1.0920 -0.3451 -0.6411
13370SOL    HW240689   4.007   1.476   9.259  0.8829 -0.2225 -0.8485
13371SOL     OW40690   4.104   1.950   8.398 -0.0456 -0.4210 -0.3823
13371SOL    HW140691   4.101   2.037   8.358  0.3272 -0.9018 -1.5280
13371SOL    HW240692   4.167   1.902   8.344  0.0442 -1.2852  0.4684
13372SOL     OW40693   8.453   9.134   1.300  0.2248 -0.5740 -0.0753
13372SOL    HW140694   8.374   9.127   1.354  0.8908 -0.0765  1.0238
13372SOL    HW240695   8.425   9.183   1.223 -0.5698 -0.4872  0.2528
13373SOL     OW40696   9.708   9.303   5.087 -0.0978 -0.1231  0.1859
13373SOL    HW140697   9.713   9.231   5.023 -1.7271 -1.5007  1.4936
13373SOL    HW240698   9.753   9.376   5.045 -2.0281 -0.5948 -3.0519
13374SOL     OW40699   5.202   4.474   4.156 -0.1992  0.3821 -0.5688
13374SOL    HW140700   5.277   4.444   4.104 -1.5197 -3.6007 -0.5091
13374SOL    HW240701   5.240   4.501   4.239  1.2964 -0.8596 -0.7927
13375SOL     OW40702   3.308   3.095   3.621  0.0256 -0.0617  0.3611
13375SOL    HW140703   3.314   3.183   3.584  1.0147 -0.5950 -0.8662
13375SOL    HW240704   3.236   3.054   3.574  0.0852 -0.1564  0.3513
13376SOL     OW40705   8.070   0.165   5.295  0.1645  0.4136 -0.2775
13376SOL    HW140706   8.121   0.113   5.234  0.6769  1.9716 -1.2178
13376SOL    HW240707   7.985   0.176   5.252  0.5684  1.6209 -0.8262
13377SOL     OW40708   1.598   9.765   7.503 -0.0794  0.2443  0.2563
13377SOL    HW140709   1.619   9.682   7.546 -0.8854  0.2660  0.7164
13377SOL    HW240710   1.609   9.831   7.571  2.3197  0.7839 -0.5510
13378SOL     OW40711   8.631   7.841   7.636 -0.1411 -0.1599 -0.1865
13378SOL    HW140712   8.543   7.806   7.650 -0.5648  0.5184 -1.0629
13378SOL    HW240713   8.617   7.921   7.586  1.0529 -0.6582 -1.3909
13379SOL     OW40714   1.526   5.592   2.276  0.6445  0.5993 -0.0971
13379SOL    HW140715   1.466   5.566   2.205  1.5512  1.4309 -1.2082
13379SOL    HW240716   1.495   5.543   2.352  0.7653 -1.8168 -1.4801
13380SOL     OW40717   0.847   3.796   4.508 -0.3926  0.2929 -0.1874
13380SOL    HW140718   0.888   3.837   4.583 -1.1097 -1.3835  1.1938
13380SOL    HW240719   0.914   3.798   4.440  1.2530 -0.5036  1.3256
13381SOL     OW40720   3.598   1.795   0.864  0.0264  0.0680  0.1033
13381SOL    HW140721   3.518   1.847   0.865  0.9855  1.7544 -2.3457
13381SOL    HW240722   3.572   1.711   0.827 -0.7283  0.3368  0.0012
13382SOL     OW40723   1.468   5.698   3.040  0.4791 -0.1612  0.0744
13382SOL    HW140724   1.419   5.631   3.088  1.5469 -0.9174  0.1480
13382SOL    HW240725   1.544   5.716   3.096  1.0524 -0.0994 -0.7158
13383SOL     OW40726   0.351   7.430   3.564  0.6115  0.5403  0.0553
13383SOL    HW140727   0.364   7.490   3.637  3.1494  1.1737 -0.8273
13383SOL    HW240728   0.429   7.374   3.564 -0.0319 -0.4133 -1.2941
13384SOL     OW40729   0.799   7.555   3.318 -0.0222 -0.5185 -0.1635
13384SOL    HW140730   0.846   7.476   3.291  2.2386  1.4854 -2.7048
13384SOL    HW240731   0.708   7.537   3.295  0.4492 -2.3248 -0.8365
13385SOL     OW40732   7.074   8.972   2.014 -0.1823  0.1467  0.6110
13385SOL    HW140733   7.032   9.010   1.937 -0.0291  0.3504  0.6270
13385SOL    HW240734   7.162   9.009   2.014 -0.3625  0.6101  1.2093
13386SOL     OW40735   8.822   6.148   4.469  0.1269  0.4715 -0.0916
13386SOL    HW140736   8.828   6.082   4.400 -1.5057  0.5114 -0.3251
13386SOL    HW240737   8.878   6.220   4.439  1.7638 -0.6969  0.0689
13387SOL     OW40738   0.089   9.487   6.914 -0.5906  0.0183 -0.1888
13387SOL    HW140739   0.129   9.480   6.827 -1.2950  0.6369 -0.5701
13387SOL    HW240740   0.121   9.570   6.949  0.5913 -0.7569  0.6213
13388SOL     OW40741   7.032   9.915   7.639  0.4545  0.5343  0.0910
13388SOL    HW140742   7.070   9.969   7.570  0.4979 -1.4621 -1.5470
13388SOL    HW240743   6.941   9.944   7.646  0.6089  1.1461 -0.3813
13389SOL     OW40744   1.596   7.853   4.618 -0.4283  0.4501  0.1878
13389SOL    HW140745   1.636   7.910   4.552 -0.7185  0.2239 -0.1810
13389SOL    HW240746   1.668   7.832   4.678  0.4538 -1.3681 -1.4171
13390SOL     OW40747   1.082   7.195   0.279 -0.0090 -0.2686 -0.9413
13390SOL    HW140748   0.997   7.219   0.241  0.4549 -1.4938 -2.9021
13390SOL    HW240749   1.147   7.237   0.222  0.7132 -0.6839 -0.4415
13391SOL     OW40750   6.391   8.338   0.918  0.0043  0.1621 -0.4274
13391SOL    HW140751   6.349   8.277   0.980  0.0245  0.1755 -0.4001
13391SOL    HW240752   6.392   8.422   0.964 -0.2365  0.2356 -0.5590
13392SOL     OW40753   3.481   1.650   0.580 -0.6526 -0.0839  0.1916
13392SOL    HW140754   3.520   1.590   0.516 -0.3046 -0.8932  1.1386
13392SOL    HW240755   3.389   1.656   0.553 -0.5535 -0.5612 -0.2798
13393SOL     OW40756   5.845   7.603   2.652 -0.2719 -0.2375  0.3722
13393SOL    HW140757   5.803   7.566   2.730  1.5096 -1.7740  0.6625
13393SOL    HW240758   5.773   7.615   2.590 -1.3430 -1.4923  1.3083
13394SOL     OW40759   8.205   4.455   1.049 -0.5528 -1.1328  0.0355
13394SOL    HW140760   8.287   4.499   1.028  0.2617 -2.6173 -0.0739
13394SOL    HW240761   8.190   4.395   0.975 -1.9104 -0.6856 -0.0929
13395SOL     OW40762   8.241   0.572   9.110 -0.2139 -0.4527 -0.2318
13395SOL    HW140763   8.217   0.577   9.202  0.6279  0.7427 -0.0642
13395SOL    HW240764   8.334   0.592   9.107 -0.3537  0.1404 -1.4023
13396SOL     OW40765   0.906   2.748   5.485 -0.3599 -0.4922 -0.7959
13396SOL    HW140766   0.972   2.679   5.477  0.1879 -0.1474  0.4154
13396SOL    HW240767   0.844   2.713   5.549  0.3745  0.4378  0.4727
13397SOL     OW40768   8.488   7.332   3.985 -0.1298 -1.2549  0.3860
13397SOL    HW140769   8.407   7.316   4.034 -0.3487  0.6259  0.7161
13397SOL    HW240770   8.465   7.313   3.894 -0.8601 -1.0559  0.5192
13398SOL     OW40771   3.634   3.711   2.118 -0.4638 -0.4927 -0.0922
13398SOL    HW140772   3.578   3.788   2.107  0.5470  0.1502 -0.9410
13398SOL    HW240773   3.622   3.685   2.209 -3.2283 -1.2575 -0.5867
13399SOL     OW40774   7.529   3.863   1.970 -0.2029  0.3672 -0.3843
13399SOL    HW140775   7.610   3.822   1.938 -0.2766  0.6335 -0.9118
13399SOL    HW240776   7.556   3.950   1.999 -0.1760  0.2047  0.0858
13400SOL     OW40777   8.263   6.539   2.605  0.0709 -0.0881 -0.3915
13400SOL    HW140778   8.183   6.529   2.555 -1.8010 -0.1600  2.3592
13400SOL    HW240779   8.309   6.456   2.595 -1.3034 -0.8817 -0.3345
13401SOL     OW40780   6.108   2.901   6.885  0.0012 -0.0932 -0.7922
13401SOL    HW140781   6.077   2.811   6.875 -0.7982  0.2943 -1.9398
13401SOL    HW240782   6.028   2.952   6.904  0.5889  0.2231  1.0048
13402SOL     OW40783   2.816   4.605   5.018  0.2582  0.2765 -0.2672
13402SOL    HW140784   2.739   4.584   5.072 -1.0992  0.8125 -1.8829
13402SOL    HW240785   2.863   4.522   5.010  0.5512  0.1977  1.7341
13403SOL     OW40786   5.882   6.338   1.092 -0.0113 -0.2984  0.5891
13403SOL    HW140787   5.940   6.406   1.126 -2.2063  1.7825  0.4973
13403SOL    HW240788   5.794   6.366   1.119 -1.3368 -1.4639 -2.0726
13404SOL     OW40789   7.701   3.680   0.104  0.0167 -0.5914  0.2290
13404SOL    HW140790   7.647   3.665   0.182 -0.8258  0.3923 -0.1463
13404SOL    HW240791   7.638   3.690   0.033  0.6092  1.7041 -0.0326
13405SOL     OW40792   6.315   6.565   9.317 -0.0320  0.2888 -0.1230
13405SOL    HW140793   6.251   6.624   9.356  0.7007  0.1799  1.3109
13405SOL    HW240794   6.400   6.604   9.338  0.4542 -1.0400  0.5018
13406SOL     OW40795   6.839   9.173   7.361  0.4374  0.3429  0.0837
13406SOL    HW140796   6.884   9.166   7.445  0.5239 -0.0459  0.0081
13406SOL    HW240797   6.757   9.124   7.374  1.6091 -2.0520 -0.8411
13407SOL     OW40798   3.900   2.285   1.575 -0.0844 -0.0971 -0.0978
13407SOL    HW140799   3.828   2.347   1.570  0.5907  0.6384 -1.2273
13407SOL    HW240800   3.979   2.339   1.561  0.6111 -1.0100  0.2008
13408SOL     OW40801   6.119   9.721   6.520  0.2110 -0.3446  0.3597
13408SOL    HW140802   6.038   9.767   6.501  1.3638  1.6742  0.0829
13408SOL    HW240803   6.104   9.632   6.488 -1.8194  0.0116  0.2010
13409SOL     OW40804   6.550   0.053   0.570 -0.3676  0.2145  0.1254
13409SOL    HW140805   6.584   0.134   0.532 -0.0974 -0.1249 -0.3716
13409SOL    HW240806   6.468   0.079   0.612 -1.6990  0.3065 -2.3166
13410SOL     OW40807   2.759   9.388   2.066 -0.0915  0.2199 -0.0441
13410SOL    HW140808   2.754   9.420   1.975 -0.4390 -0.9900 -0.4693
13410SOL    HW240809   2.797   9.300   2.058 -1.4238 -0.4600  0.8487
13411SOL     OW40810   3.545   6.963   9.017  0.3205 -0.2758  0.2169
13411SOL    HW140811   3.473   6.901   9.030 -0.0611  0.0136 -0.4447
13411SOL    HW240812   3.510   7.027   8.955  0.5677  0.8345  1.1837
13412SOL     OW40813   2.958   8.508   3.612 -0.1038 -0.1027 -0.4447
13412SOL    HW140814   3.006   8.590   3.608 -0.4274  0.2073  1.1638
13412SOL    HW240815   2.945   8.493   3.706  0.9995 -2.6258 -0.6277
13413SOL     OW40816   8.667   3.015   6.805 -0.1517  0.4867 -0.0368
13413SOL    HW140817   8.664   2.929   6.846  0.9173  1.1524  1.5222
13413SOL    HW240818   8.580   3.052   6.819 -0.4428 -0.1136 -0.2385
13414SOL     OW40819   3.314   4.485   5.791 -0.3770  0.4945  0.1270
13414SOL    HW140820   3.308   4.566   5.842  1.4345  0.6222  0.2299
13414SOL    HW240821   3.245   4.429   5.826 -0.1715  1.1464  1.6851
13415SOL     OW40822   7.223   0.690   4.291  0.3627  0.5446 -0.3507
13415SOL    HW140823   7.296   0.721   4.345 -0.1479  0.8138  0.1877
13415SOL    HW240824   7.188   0.615   4.338  0.7690 -0.0542 -0.9960
13416SOL     OW40825   0.698   8.233   9.773  0.1077 -0.3216  0.1886
13416SOL    HW140826   0.699   8.293   9.848 -1.3806  0.0226 -0.0403
13416SOL    HW240827   0.752   8.277   9.707  0.3185  0.0092  0.5758
13417SOL     OW40828   9.152   2.943   9.637  0.5971  0.4280  0.0172
13417SOL    HW140829   9.198   2.923   9.719  0.8541 -1.2472 -0.5117
13417SOL    HW240830   9.222   2.956   9.573  0.3720 -1.1486 -0.5697
13418SOL     OW40831   7.353   7.544   2.793 -0.2595  0.1311 -0.3373
13418SOL    HW140832   7.273   7.495   2.772  0.5543 -1.6160  0.4074
13418SOL    HW240833   7.322   7.621   2.841 -1.4665 -1.2759  1.2757
13419SOL     OW40834   5.658   4.731   2.272 -0.3978 -0.3313  0.0317
13419SOL    HW140835   5.647   4.673   2.348  0.4556  0.0873  0.4888
13419SOL    HW240836   5.752   4.735   2.258 -0.5443 -0.4485 -1.1067
13420SOL     OW40837   3.306   5.403   6.188  0.9617 -0.5145 -0.0392
13420SOL    HW140838   3.312   5.487   6.232  2.7720 -0.3348 -0.5557
13420SOL    HW240839   3.240   5.416   6.119  0.6426  0.2250  0.3997
13421SOL     OW40840   9.551   1.848   5.592 -0.0555 -0.0010  0.7747
13421SOL    HW140841   9.493   1.913   5.552 -0.2684 -2.1373 -2.8498
13421SOL    HW240842   9.628   1.898   5.618 -1.2552  2.0773  0.5958
13422SOL     OW40843   6.613   1.856   7.453 -0.0077 -0.0922 -0.5183
13422SOL    HW140844   6.610   1.805   7.372 -0.3712 -0.7429 -0.0993
13422SOL    HW240845   6.702   1.845   7.485 -0.3195 -1.2013  0.0255
13423SOL     OW40846   2.302  -0.012   1.996  0.1432 -0.1776  0.5171
13423SOL    HW140847   2.292  -0.058   1.912  0.5228 -0.9358  0.8770
13423SOL    HW240848   2.273   0.077   1.978 -0.0424 -0.4036 -0.3535
13424SOL     OW40849   6.074   0.117   1.338 -0.2061  0.7888  0.3842
13424SOL    HW140850   6.079   0.198   1.287 -0.3360  0.5531 -0.0096
13424SOL    HW240851   6.160   0.107   1.377  0.2376  0.4069 -0.6680
13425SOL     OW40852   0.092   0.464   0.744  0.2101  0.4751 -0.2499
13425SOL    HW140853   0.146   0.435   0.817 -0.1381  0.7121  0.1035
13425SOL    HW240854   0.154   0.482   0.673  0.5527  0.3462  0.0172
13426SOL     OW40855   8.375   5.572   0.435  0.0433  0.2726  0.4606
13426SOL    HW140856   8.407   5.546   0.522  1.3444 -1.3568 -0.4278
13426SOL    HW240857   8.454   5.596   0.387 -0.4937 -0.1278 -0.6592
13427SOL     OW40858   9.431   2.774   2.086 -0.2240 -0.1448  0.0436
13427SOL    HW140859   9.447   2.812   1.999  1.7121 -1.8370 -0.4280
13427SOL    HW240860   9.477   2.832   2.146  2.3262 -1.3126 -0.6196
13428SOL     OW40861   6.374   6.988   7.802  0.5807 -0.1149  0.4856
13428SOL    HW140862   6.399   7.075   7.773  1.4565  0.1884  2.0107
13428SOL    HW240863   6.289   6.971   7.761  0.3590  1.4866  0.2373
13429SOL     OW40864   0.106   6.258   2.127  0.0896  0.1480  0.2428
13429SOL    HW140865   0.020   6.221   2.109 -0.2510  0.9819  0.1030
13429SOL    HW240866   0.162   6.182   2.144 -1.1422 -0.3460  2.5090
13430SOL     OW40867   8.291   2.667   6.473  0.0927 -0.2492  0.3269
13430SOL    HW140868   8.220   2.627   6.524  0.8940  0.0854  1.7397
13430SOL    HW240869   8.246   2.714   6.403 -1.0063 -1.2660  0.3144
13431SOL     OW40870   4.590   8.680   3.080 -0.5008 -0.0483 -0.2414
13431SOL    HW140871   4.638   8.626   3.143  1.1178  0.1496 -1.2597
13431SOL    HW240872   4.559   8.618   3.014  0.4006  0.0858 -0.8159
13432SOL     OW40873   8.818   0.146   5.598  0.1300 -0.2962  0.7540
13432SOL    HW140874   8.867   0.192   5.530 -1.4461  0.4840  0.1047
13432SOL    HW240875   8.861   0.061   5.605  0.6431 -0.1939 -0.8305
13433SOL     OW40876   2.423   6.506   1.543 -0.0281 -0.6956  0.1205
13433SOL    HW140877   2.327   6.506   1.550 -0.0070  0.8156  0.6941
13433SOL    HW240878   2.451   6.583   1.591  1.3449  0.1111 -1.8238
13434SOL     OW40879   0.456   3.945   6.972  0.3590 -0.3943 -0.0777
13434SOL    HW140880   0.407   3.911   7.046 -0.6454 -1.7376 -1.3031
13434SOL    HW240881   0.525   3.880   6.957  1.8324  0.8762  0.8848
13435SOL     OW40882   1.793   3.020   4.851  0.4500 -0.0492  0.2825
13435SOL    HW140883   1.712   2.979   4.884  0.3819  0.3148  0.5733
13435SOL    HW240884   1.812   3.089   4.914 -0.4245  1.5653 -1.1559
13436SOL     OW40885   2.734   5.676   9.763  0.3436  0.1254 -0.0620
13436SOL    HW140886   2.701   5.637   9.844  1.5142  1.4835  1.1382
13436SOL    HW240887   2.687   5.631   9.693 -1.3605 -0.4862  1.4072
13437SOL     OW40888   5.431   2.074   3.042  0.3121  0.6816 -0.3741
13437SOL    HW140889   5.493   2.146   3.053  0.4580  0.1973  3.5655
13437SOL    HW240890   5.485   1.995   3.044 -0.0683  0.3512 -1.9853
13438SOL     OW40891   5.459   1.755   3.422  0.2560  0.1702 -0.3800
13438SOL    HW140892   5.404   1.833   3.424  0.0754  0.0304  0.7985
13438SOL    HW240893   5.542   1.783   3.461  0.6416  0.0934 -1.1320
13439SOL     OW40894   6.463   1.398   7.655 -0.0213  0.2553  0.5745
13439SOL    HW140895   6.388   1.422   7.600 -0.6248 -1.0354  0.8056
13439SOL    HW240896   6.481   1.478   7.705 -0.3078  1.0329 -0.5209
13440SOL     OW40897   4.115   4.208   7.337  0.0681  0.2688  0.4322
13440SOL    HW140898   4.075   4.138   7.388 -1.2487  1.2365  0.7833
13440SOL    HW240899   4.104   4.287   7.392  1.1865  0.8259 -0.1054
13441SOL     OW40900   4.155   5.645   4.081  0.0443  0.0077 -0.6534
13441SOL    HW140901   4.206   5.679   4.155  0.7507  1.5709 -1.7983
13441SOL    HW240902   4.083   5.597   4.122  0.9349  0.0161  1.0363
13442SOL     OW40903   5.571   8.230   8.461 -0.4322 -0.2566  0.1775
13442SOL    HW140904   5.579   8.297   8.529 -0.9155 -0.1045  0.0879
13442SOL    HW240905   5.616   8.154   8.497  0.4381  0.2204  0.1325
13443SOL     OW40906   8.766   8.775   3.344 -0.1457 -0.1251 -0.4550
13443SOL    HW140907   8.793   8.852   3.293 -0.8869  0.3073 -0.2220
13443SOL    HW240908   8.702   8.731   3.287 -0.9206  0.3176  0.0444
13444SOL     OW40909   2.175   7.014   2.635 -0.2011 -0.3056 -0.0721
13444SOL    HW140910   2.191   7.100   2.596  1.2641 -0.2721  0.5433
13444SOL    HW240911   2.260   6.970   2.632 -0.1000 -0.4494  2.6470
13445SOL     OW40912   2.435   5.372   1.134  0.0077 -0.0188 -0.5945
13445SOL    HW140913   2.425   5.305   1.066  0.9530  0.1237 -0.8899
13445SOL    HW240914   2.496   5.333   1.197  0.0211  0.2938 -0.4134
13446SOL     OW40915   7.417   8.631   0.437  0.3464  0.5249 -0.4968
13446SOL    HW140916   7.388   8.642   0.346  0.4674  0.4490 -0.5453
13446SOL    HW240917   7.463   8.547   0.437 -2.6299 -1.2323  0.3857
13447SOL     OW40918   1.018   8.352   1.781 -0.4434 -0.1773 -0.2756
13447SOL    HW140919   0.955   8.332   1.850 -0.0658 -1.8103 -0.3406
13447SOL    HW240920   1.075   8.275   1.779  0.6808  0.6460 -1.1709
13448SOL     OW40921   3.720   9.292   2.805 -0.2478 -0.2722 -0.5748
13448SOL    HW140922   3.718   9.237   2.884  0.0237 -0.8198 -0.9380
13448SOL    HW240923   3.776   9.366   2.828  0.4494 -0.8114 -0.4881
13449SOL     OW40924   2.176   4.826   0.416 -0.5874 -0.4068 -0.0225
13449SOL    HW140925   2.095   4.788   0.381 -0.7536  0.5326 -0.6871
13449SOL    HW240926   2.217   4.868   0.340  0.9717 -1.5925  0.1128
13450SOL     OW40927   8.225   7.437   3.576 -0.3040  0.3198 -0.1568
13450SOL    HW140928   8.234   7.376   3.503  2.1995  2.4865 -1.8817
13450SOL    HW240929   8.132   7.436   3.597 -0.8596 -1.6554 -2.2331
13451SOL     OW40930   4.216   7.772   5.410 -0.0953  0.1703  0.1317
13451SOL    HW140931   4.231   7.867   5.410 -0.3949  0.2273 -0.4773
13451SOL    HW240932   4.191   7.752   5.319  2.1924 -0.8502 -0.3548
13452SOL     OW40933   1.440   3.195   6.162 -0.2067 -0.0048  0.0425
13452SOL    HW140934   1.405   3.283   6.149  0.4108  0.0722 -1.2774
13452SOL    HW240935   1.371   3.136   6.131 -0.2057  0.0588 -0.0809
13453SOL     OW40936   8.994   6.133   4.790 -0.0988 -0.0678  0.2978
13453SOL    HW140937   8.926   6.192   4.757 -0.4109 -1.3150 -1.3679
13453SOL    HW240938   9.073   6.156   4.741 -0.1591 -0.8593 -0.1797
13454SOL     OW40939   0.300   9.134   8.265  0.3582 -0.0148  0.9939
13454SOL    HW140940   0.262   9.115   8.179  0.7165  0.1840  0.7870
13454SOL    HW240941   0.286   9.228   8.276  0.5920  0.0186  1.0118
13455SOL     OW40942   4.857   7.888   8.817 -0.2353  0.6168  0.0548
13455SOL    HW140943   4.840   7.965   8.762  1.5780  0.0971 -1.3013
13455SOL    HW240944   4.782   7.831   8.802 -1.2271  1.7533  0.4904
13456SOL     OW40945   1.184   4.819   0.798 -0.4659 -0.1437  0.7150
13456SOL    HW140946   1.112   4.763   0.772 -1.6391  1.5431  0.1866
13456SOL    HW240947   1.159   4.852   0.884  0.0964 -0.2232  0.9147
13457SOL     OW40948   5.032   9.929   7.903  0.4958 -0.3921  0.0936
13457SOL    HW140949   5.024   9.886   7.818 -1.7352 -0.9354  0.5203
13457SOL    HW240950   5.127   9.937   7.917  0.9380  0.4786 -2.7890
13458SOL     OW40951   4.649   8.020   6.412 -0.0114  0.0544 -0.2136
13458SOL    HW140952   4.563   7.988   6.385  0.1945 -0.6893 -0.0098
13458SOL    HW240953   4.645   8.115   6.399 -0.6508 -0.0466 -0.7886
13459SOL     OW40954   4.482   3.123   8.134  0.1017  0.5886 -0.1859
13459SOL    HW140955   4.530   3.138   8.216  0.8456 -1.3020 -0.2264
13459SOL    HW240956   4.389   3.129   8.160  0.3141  1.8465  0.3849
13460SOL     OW40957   4.783   3.410   1.010 -0.5277 -0.1563  0.2091
13460SOL    HW140958   4.758   3.490   1.056  0.1421  0.2276 -0.0851
13460SOL    HW240959   4.774   3.341   1.075  0.1503  0.3403  0.8373
13461SOL     OW40960   9.558   7.266   3.439 -0.0463 -0.1403  0.2523
13461SOL    HW140961   9.644   7.292   3.472 -0.1277 -0.0607  0.4025
13461SOL    HW240962   9.507   7.248   3.518 -0.8116  1.8078  0.2608
13462SOL     OW40963   9.572   5.462   6.244 -0.6641 -0.2039  0.0849
13462SOL    HW140964   9.562   5.367   6.244  0.3924 -0.3238  0.3180
13462SOL    HW240965   9.486   5.495   6.270 -0.5864 -1.1488  1.6664
13463SOL     OW40966   1.391   9.418   2.902  0.5787  0.1047 -0.3731
13463SOL    HW140967   1.423   9.390   2.987  1.2903  1.1261 -0.2893
13463SOL    HW240968   1.417   9.348   2.842  0.2656 -0.5141  0.1981
13464SOL     OW40969   6.157   8.738   3.271 -0.2249 -0.0150 -0.2407
13464SOL    HW140970   6.114   8.823   3.281  0.1223  0.2549 -0.9559
13464SOL    HW240971   6.121   8.684   3.341 -0.7708  0.5928 -0.0467
13465SOL     OW40972   2.626   5.501   0.293 -0.8459  0.0848  0.3234
13465SOL    HW140973   2.537   5.531   0.309 -0.2837  2.0199  0.0083
13465SOL    HW240974   2.680   5.549   0.356  0.4357  2.1630 -2.1651
13466SOL     OW40975   8.455   0.743   5.254 -0.0655  0.3052 -0.3125
13466SOL    HW140976   8.517   0.814   5.272 -1.8640  1.5785  1.3227
13466SOL    HW240977   8.376   0.768   5.302 -1.1193 -2.3347 -0.5111
13467SOL     OW40978   5.234   1.786   7.495 -0.0309 -0.7190  0.0665
13467SOL    HW140979   5.244   1.809   7.587  0.5067  1.1532 -0.4208
13467SOL    HW240980   5.312   1.821   7.453 -0.6981 -0.7349 -1.2307
13468SOL     OW40981   4.994   1.501   4.052 -0.5043  0.1808 -0.4303
13468SOL    HW140982   4.926   1.464   3.996 -1.0238  0.2907  0.1131
13468SOL    HW240983   4.971   1.471   4.140 -2.1957  3.4596  0.3906
13469SOL     OW40984   8.326   8.844   1.355  0.0581 -0.5662  0.4308
13469SOL    HW140985   8.392   8.853   1.287 -0.7346 -0.2797 -0.3307
13469SOL    HW240986   8.252   8.897   1.323 -1.4416 -2.7396  0.0846
13470SOL     OW40987   3.963   7.795   2.534 -0.0532  0.2291 -0.0754
13470SOL    HW140988   3.966   7.891   2.536  1.1505  0.1884  0.9274
13470SOL    HW240989   3.909   7.771   2.609  1.8235  0.0917  1.3109
13471SOL     OW40990   0.260   4.490   8.498  0.3933 -0.2154 -0.3636
13471SOL    HW140991   0.238   4.573   8.456 -0.3120  0.1239  0.6356
13471SOL    HW240992   0.321   4.514   8.568  0.9297 -0.6631 -0.6742
13472SOL     OW40993   7.279   9.182   9.462 -0.5080  0.5455  0.5793
13472SOL    HW140994   7.304   9.116   9.527 -2.4336 -1.4375 -0.5674
13472SOL    HW240995   7.214   9.237   9.507 -0.7875  0.0598  0.7773
13473SOL     OW40996   5.279   7.925   3.174  0.1124 -0.6783  0.4236
13473SOL    HW140997   5.200   7.900   3.223 -0.2256 -0.0075  0.2363
13473SOL    HW240998   5.320   7.842   3.150 -0.4198 -1.0313  0.7206
13474SOL     OW40999   6.892   1.205   2.346  0.0784 -0.6846 -0.3111
13474SOL    HW141000   6.815   1.171   2.392 -0.0064  0.8474  0.7592
13474SOL    HW241001   6.961   1.142   2.367 -0.2830 -0.7284  0.8651
13475SOL     OW41002   3.192   5.705   9.830  0.1596 -0.2394  0.3113
13475SOL    HW141003   3.159   5.762   9.899  0.2071 -0.5594  0.6032
13475SOL    HW241004   3.186   5.617   9.867 -0.2869 -0.4635 -0.2800
13476SOL     OW41005   0.841   4.777   4.821 -0.6912 -0.0108 -0.0520
13476SOL    HW141006   0.851   4.749   4.912 -1.9965  0.7575  0.3610
13476SOL    HW241007   0.876   4.705   4.770 -2.3198 -1.6151  0.9975
13477SOL     OW41008   3.757   7.316   4.845  0.3064 -0.1145 -0.1895
13477SOL    HW141009   3.666   7.294   4.861 -0.1488  1.9278  0.3532
13477SOL    HW241010   3.801   7.232   4.832 -1.0344 -1.4347  2.7759
13478SOL     OW41011   5.046   6.474   1.380  0.3200 -0.0441  0.1406
13478SOL    HW141012   5.106   6.418   1.330  1.6997  0.7560  0.8483
13478SOL    HW241013   5.093   6.493   1.461 -0.8616  0.7111  0.6720
13479SOL     OW41014   3.898   5.171   3.635  0.5341  0.4425  0.3447
13479SOL    HW141015   3.901   5.136   3.545  0.7117 -1.7356  1.1315
13479SOL    HW241016   3.987   5.160   3.668 -0.3731 -2.8715  2.1423
13480SOL     OW41017   9.911   6.772   3.059  0.4816 -0.0589 -0.6622
13480SOL    HW141018   9.909   6.865   3.084  0.7776 -0.6766  1.9695
13480SOL    HW241019   9.998   6.758   3.024  0.1178  0.8315 -2.0057
13481SOL     OW41020   4.555   4.753   1.915 -0.3810 -0.2481  0.0604
13481SOL    HW141021   4.588   4.794   1.835 -0.0783 -1.7051 -0.5794
13481SOL    HW241022   4.488   4.692   1.885 -1.4919  0.4168  1.0895
13482SOL     OW41023   8.001   0.649   3.569  1.0076 -0.4520  0.2362
13482SOL    HW141024   7.984   0.679   3.658  0.6308 -0.3853  0.1447
13482SOL    HW241025   7.934   0.583   3.552 -0.6649  1.4337 -0.9310
13483SOL     OW41026   8.433   6.992   2.114 -0.1699  0.4799 -0.0912
13483SOL    HW141027   8.418   7.060   2.048  0.4903 -0.2417 -1.0014
13483SOL    HW241028   8.355   6.996   2.170 -0.5171  1.4282 -0.6156
13484SOL     OW41029   0.394   3.808   9.714 -0.0562 -0.2065 -0.0436
13484SOL    HW141030   0.308   3.848   9.727 -1.0971 -2.6131  0.9495
13484SOL    HW241031   0.447   3.843   9.786 -0.5285  0.4034  0.0173
13485SOL     OW41032   3.044   9.012   1.485 -0.3412  0.0562 -0.1863
13485SOL    HW141033   3.084   8.928   1.504 -0.6198  0.0244  0.2621
13485SOL    HW241034   3.117   9.068   1.459 -0.1653 -0.3381 -0.5509
13486SOL     OW41035   8.550   4.393   6.673  0.0039 -0.3459  0.4451
13486SOL    HW141036   8.622   4.443   6.710 -1.1348  2.5983 -1.0113
13486SOL    HW241037   8.593   4.328   6.617  1.5457  0.4416  0.6608
13487SOL     OW41038   2.123   7.035   8.174  0.4139  0.1225  0.2779
13487SOL    HW141039   2.048   6.993   8.132  1.3981 -3.2136  1.5055
13487SOL    HW241040   2.199   6.983   8.146  1.7731  1.1036  1.9137
13488SOL     OW41041   9.188   6.959   4.451 -0.0167 -0.0674 -0.0005
13488SOL    HW141042   9.235   6.935   4.371  1.4672  0.7314  0.5913
13488SOL    HW241043   9.239   7.032   4.487 -0.9841 -0.0464  1.3796
13489SOL     OW41044   0.127   9.625   0.171 -0.6926 -0.2940  0.0779
13489SOL    HW141045   0.088   9.569   0.238 -2.7731  1.6707  0.6243
13489SOL    HW241046   0.097   9.713   0.193  1.9047  1.0033 -1.1217
13490SOL     OW41047   5.900   8.430   0.382 -0.0315  0.0317 -0.8973
13490SOL    HW141048   5.889   8.418   0.288  0.4172  0.3091 -0.9856
13490SOL    HW241049   5.877   8.345   0.420 -2.3316  0.4974 -1.0735
13491SOL     OW41050   2.770   8.449   5.817 -0.0411  0.2960  0.3781
13491SOL    HW141051   2.678   8.472   5.828 -0.1870 -0.2029  0.1966
13491SOL    HW241052   2.806   8.520   5.764 -0.0811  1.0194  1.2844
13492SOL     OW41053   6.963   8.388   3.645 -0.2656  0.2883 -0.2400
13492SOL    HW141054   6.987   8.376   3.553  0.7453 -0.5701  0.1208
13492SOL    HW241055   6.920   8.473   3.647  0.6223  0.7937 -1.3295
13493SOL     OW41056   7.526   8.994   2.466 -0.5582  0.2155 -0.2615
13493SOL    HW141057   7.488   9.060   2.407 -1.3167 -0.0404 -0.0769
13493SOL    HW241058   7.456   8.930   2.478 -0.3839  0.2114  0.8392
13494SOL     OW41059   8.911   3.887   1.896  0.2584 -0.4774  0.9888
13494SOL    HW141060   8.861   3.900   1.816 -0.0939 -0.3150  1.2319
13494SOL    HW241061   8.844   3.874   1.964  0.4913  1.2127  1.5801
13495SOL     OW41062   3.162   0.551   9.339  0.2268 -0.2947  0.4120
13495SOL    HW141063   3.196   0.639   9.327  0.9755 -0.7152 -0.8130
13495SOL    HW241064   3.159   0.538   9.434 -1.9567  1.7834  0.7054
13496SOL     OW41065   4.678   1.713   2.163  0.1965  0.1260  0.2707
13496SOL    HW141066   4.680   1.808   2.174 -1.5450  0.0956  1.2302
13496SOL    HW241067   4.624   1.682   2.236 -1.6168 -1.3322 -1.5838
13497SOL     OW41068   9.470   5.208   7.883 -0.0119 -0.5560  0.6532
13497SOL    HW141069   9.540   5.160   7.927 -0.4073 -0.7079  1.1263
13497SOL    HW241070   9.486   5.299   7.905  0.6819 -0.4637 -0.1657
13498SOL     OW41071   7.405   5.485   2.308 -0.3306  0.0812 -0.0949
13498SOL    HW141072   7.481   5.427   2.306 -0.1490  0.3097  0.1235
13498SOL    HW241073   7.357   5.464   2.228 -0.3729 -0.5141  0.0840
13499SOL     OW41074   2.608   6.667   3.794  0.2297  0.0759  0.5084
13499SOL    HW141075   2.610   6.609   3.870  1.5846 -0.0887  0.3636
13499SOL    HW241076   2.515   6.683   3.779 -0.3609 -3.4973 -0.5129
13500SOL     OW41077   7.065   6.027   7.581  0.1893  0.0906  0.0238
13500SOL    HW141078   7.075   6.027   7.676 -1.8556 -1.1210  0.2928
13500SOL    HW241079   7.031   5.940   7.560 -4.5340  1.8946 -1.1264
13501SOL     OW41080   6.397   4.899   2.991  0.2884  0.3523  0.0176
13501SOL    HW141081   6.398   4.909   2.896  1.3590 -0.3178 -0.0574
13501SOL    HW241082   6.362   4.811   3.006 -1.0199  0.8947  0.3137
13502SOL     OW41083   2.599   3.620   6.564  0.6905 -0.7720  0.0512
13502SOL    HW141084   2.637   3.635   6.478  2.9424 -1.7765  0.7964
13502SOL    HW241085   2.664   3.568   6.611 -1.9018 -3.2729  1.2499
13503SOL     OW41086   6.685   2.472   4.091  0.2199  0.3158 -0.6293
13503SOL    HW141087   6.601   2.427   4.080  0.1261  0.2384  0.2918
13503SOL    HW241088   6.683   2.542   4.026 -0.0910 -0.3461 -1.3520
13504SOL     OW41089   6.110   3.430   7.819 -0.1240  0.0656  0.0688
13504SOL    HW141090   6.083   3.401   7.906  1.6597 -0.1317  0.5949
13504SOL    HW241091   6.029   3.462   7.778 -0.7671  1.5350  2.3128
13505SOL     OW41092   4.108   6.008   7.643 -0.0985 -0.4961 -0.3938
13505SOL    HW141093   4.045   6.066   7.687 -0.5210 -0.9837 -0.3446
13505SOL    HW241094   4.090   5.921   7.678 -0.8807 -1.0178 -1.9748
13506SOL     OW41095   2.141   8.726   8.809 -0.1218 -0.1160 -0.3105
13506SOL    HW141096   2.183   8.807   8.781 -0.1053 -0.2111 -0.5563
13506SOL    HW241097   2.114   8.743   8.900  1.6415 -0.5133  0.3274
13507SOL     OW41098   5.703   9.387   4.642 -0.0053  0.0584  0.1272
13507SOL    HW141099   5.618   9.354   4.669  1.2533 -2.6909  1.0993
13507SOL    HW241100   5.706   9.373   4.547 -0.5114 -0.0585  0.1272
13508SOL     OW41101   9.269   8.145   9.061  0.0298  0.1988  0.1820
13508SOL    HW141102   9.212   8.068   9.056  0.1717  0.0292  1.0755
13508SOL    HW241103   9.225   8.203   9.123  0.7776  0.1044  0.8144
13509SOL     OW41104   9.731   5.585   8.652  0.6535 -0.6371 -0.0945
13509SOL    HW141105   9.808   5.573   8.597  1.5409  1.1954  0.6612
13509SOL    HW241106   9.734   5.512   8.713  1.3069 -1.0654 -0.6287
13510SOL     OW41107   1.083   5.434   5.631 -0.5655 -0.2129  0.0216
13510SOL    HW141108   1.078   5.488   5.552 -1.1313 -1.4645 -0.8318
13510SOL    HW241109   1.080   5.344   5.598 -0.4825 -0.7574  1.4569
13511SOL     OW41110   9.335   8.667   3.368  0.3698  0.6418 -0.4780
13511SOL    HW141111   9.417   8.695   3.409 -0.9641  0.3224  2.6938
13511SOL    HW241112   9.299   8.603   3.430 -1.9918  0.3132 -2.0878
13512SOL     OW41113   5.530   7.661   0.879 -0.1469 -0.3719 -0.2971
13512SOL    HW141114   5.564   7.582   0.836  1.8627 -0.4643  1.2762
13512SOL    HW241115   5.450   7.633   0.922 -1.8795 -0.4237 -3.3193
13513SOL     OW41116   6.976   6.456   4.944  0.0541  0.0197 -0.5621
13513SOL    HW141117   7.012   6.442   5.032 -0.5628  2.5936  0.1747
13513SOL    HW241118   7.048   6.496   4.895  0.3314 -1.2246 -1.2146
13514SOL     OW41119   7.674   7.310   3.203  0.4580  0.8744  0.5134
13514SOL    HW141120   7.587   7.315   3.163  1.3644  0.5916 -1.6373
13514SOL    HW241121   7.702   7.220   3.189  1.3405  1.1208  0.6093
13515SOL     OW41122   1.655   0.262   9.807  0.4291  0.2199  0.6951
13515SOL    HW141123   1.669   0.343   9.856  2.7902 -0.7804  1.8423
13515SOL    HW241124   1.741   0.220   9.805 -0.5275 -1.8322 -0.6536
13516SOL     OW41125   8.312   8.494   9.830  0.4898  0.2917 -0.5734
13516SOL    HW141126   8.351   8.498   9.917 -0.1599 -0.2487 -0.2427
13516SOL    HW241127   8.222   8.526   9.842  0.1860 -0.4028 -0.9006
13517SOL     OW41128   1.599   7.752   4.276 -0.0520  0.5840 -0.3860
13517SOL    HW141129   1.606   7.703   4.358  0.4532  2.1754  0.5846
13517SOL    HW241130   1.605   7.686   4.207 -1.3058 -0.9002  0.8487
13518SOL     OW41131   3.514   4.455   7.536 -0.6683  0.1753  0.4860
13518SOL    HW141132   3.461   4.423   7.463  0.8246 -0.6887 -0.2552
13518SOL    HW241133   3.601   4.419   7.521  0.0624  1.2431  1.8768
13519SOL     OW41134   2.490   8.525   3.056 -0.2960 -0.1875 -0.3307
13519SOL    HW141135   2.553   8.515   3.127 -0.6789  0.7675  0.1750
13519SOL    HW241136   2.409   8.551   3.100 -0.1592  1.9139 -1.1923
13520SOL     OW41137   0.261   4.932   0.809 -0.0216  0.0307  0.0184
13520SOL    HW141138   0.240   5.004   0.867 -0.0350  2.0287 -2.3000
13520SOL    HW241139   0.349   4.953   0.776  0.1418 -1.2256 -0.3983
13521SOL     OW41140   2.045   6.513   9.148  0.5261  0.1111  0.0728
13521SOL    HW141141   1.976   6.447   9.156 -1.0085  1.3605 -1.8097
13521SOL    HW241142   2.000   6.591   9.115  2.5316  1.6256  0.7046
13522SOL     OW41143   0.096   5.863   0.072  0.3019 -0.1257  0.4232
13522SOL    HW141144   0.114   5.883  -0.020 -1.9800 -1.0622 -0.2809
13522SOL    HW241145   0.052   5.941   0.106  0.9947  0.1545  0.6974
13523SOL     OW41146   4.230   9.392   0.693  0.6058  0.1778 -0.1193
13523SOL    HW141147   4.301   9.435   0.644 -1.1144  1.1983 -1.8864
13523SOL    HW241148   4.161   9.458   0.697 -0.6581 -1.1404  0.5740
13524SOL     OW41149   3.974   2.173   6.788  0.7423  0.2143  0.4759
13524SOL    HW141150   3.970   2.105   6.721 -0.7787 -1.1646  1.8969
13524SOL    HW241151   4.053   2.224   6.765  1.3441 -1.3571 -1.2139
13525SOL     OW41152   5.260   2.172   5.559  0.2090  0.6507 -0.4248
13525SOL    HW141153   5.177   2.152   5.602  1.0528 -1.4861  0.3924
13525SOL    HW241154   5.235   2.204   5.473 -1.5295 -1.6938 -0.9229
13526SOL     OW41155   1.962   7.346   2.669 -0.0236 -0.1408 -0.5062
13526SOL    HW141156   2.002   7.276   2.618 -0.2284  0.1189 -1.0196
13526SOL    HW241157   1.992   7.427   2.628 -1.8541  0.0647 -1.5147
13527SOL     OW41158   7.320   2.013   0.924  0.1990  0.4156 -0.4869
13527SOL    HW141159   7.344   1.974   0.841  0.2291 -0.6399  0.0008
13527SOL    HW241160   7.323   1.940   0.987  0.6792  1.2816  0.5344
13528SOL     OW41161   1.734   6.452   6.376 -0.1484  0.3092  0.2495
13528SOL    HW141162   1.781   6.471   6.295 -0.7752  0.1583 -0.1510
13528SOL    HW241163   1.741   6.357   6.386 -1.1073  0.1746 -0.2740
13529SOL     OW41164   7.769   3.524   5.746 -0.2766 -0.7082  0.5675
13529SOL    HW141165   7.804   3.436   5.763 -0.6190 -0.9992 -0.2024
13529SOL    HW241166   7.676   3.518   5.768 -0.8553 -1.2338 -1.7190
13530SOL     OW41167   4.019   1.890   3.519  0.2137 -0.0642  0.3899
13530SOL    HW141168   3.998   1.984   3.520 -0.0145 -0.1252  1.3319
13530SOL    HW241169   3.965   1.852   3.587  1.1083 -0.7125  0.7508
13531SOL     OW41170   0.449   8.945   1.400 -0.4070 -0.2767  0.2066
13531SOL    HW141171   0.452   8.860   1.358  0.2143 -0.4573  0.6041
13531SOL    HW241172   0.447   8.926   1.494  0.4171  0.1436  0.3249
13532SOL     OW41173   5.489   9.046   4.143 -0.1429 -0.0352 -0.7650
13532SOL    HW141174   5.466   9.045   4.236  1.3422  0.3079 -0.3781
13532SOL    HW241175   5.405   9.060   4.098 -1.0654 -1.4343  0.4391
13533SOL     OW41176   3.520   4.271   9.055  0.3103 -0.2771 -0.4811
13533SOL    HW141177   3.432   4.306   9.040 -0.0916  0.0556  2.2080
13533SOL    HW241178   3.507   4.194   9.109  1.6462 -0.5913 -0.5702
13534SOL     OW41179   0.182   8.484   8.503 -0.2869  0.1700 -0.4557
13534SOL    HW141180   0.265   8.443   8.523  0.3898  2.5638  2.2624
13534SOL    HW241181   0.201   8.542   8.429  0.6676  1.1084  0.4876
13535SOL     OW41182   9.555   8.694   1.769  0.2817  0.4318 -0.4026
13535SOL    HW141183   9.479   8.736   1.729  0.8207 -0.2455 -2.2509
13535SOL    HW241184   9.552   8.604   1.738  1.0453  0.0085  0.6779
13536SOL     OW41185   5.576   3.796   5.434  0.3251  0.6359 -1.0804
13536SOL    HW141186   5.587   3.731   5.503  1.1733  2.3000  0.4278
13536SOL    HW241187   5.489   3.778   5.398  0.1224 -0.6590 -0.0266
13537SOL     OW41188   9.041   1.951   5.999  0.4473 -0.0052 -0.2293
13537SOL    HW141189   9.059   2.045   6.008 -0.9808  0.2808 -0.0795
13537SOL    HW241190   8.990   1.929   6.077 -1.2245 -0.3590 -1.3737
13538SOL     OW41191   2.877   4.229   1.432  0.4369  0.0380  0.1345
13538SOL    HW141192   2.825   4.239   1.512  0.3238 -1.0060  0.2007
13538SOL    HW241193   2.931   4.152   1.447 -1.1225 -1.4904 -1.5966
13539SOL     OW41194   0.455   8.452   7.454 -0.1759 -0.1268  0.0106
13539SOL    HW141195   0.534   8.498   7.481 -0.1466  0.9662 -1.7617
13539SOL    HW241196   0.417   8.418   7.535 -0.8251  4.0237  1.6643
13540SOL     OW41197   9.330   6.086   5.551  0.4215 -0.1886 -0.3648
13540SOL    HW141198   9.277   6.066   5.473  0.3324  2.2126 -0.9962
13540SOL    HW241199   9.420   6.074   5.522  0.3575 -1.8380 -0.0140
13541SOL     OW41200   5.816   8.893   9.423 -0.0819  0.7054 -0.2601
13541SOL    HW141201   5.863   8.846   9.492 -1.6562 -0.2233  0.2476
13541SOL    HW241202   5.778   8.824   9.368 -0.3687  1.4233 -0.9774
13542SOL     OW41203   2.772   5.956   9.103  0.3879 -0.3995 -0.0548
13542SOL    HW141204   2.834   5.912   9.044  1.0481 -0.4668  0.6706
13542SOL    HW241205   2.783   6.049   9.085  0.3284 -0.4390 -0.2937
13543SOL     OW41206   2.925   5.367   5.115  0.1378  0.2261 -0.5553
13543SOL    HW141207   2.846   5.404   5.156  2.3728  0.4161  4.2375
13543SOL    HW241208   2.958   5.436   5.059 -1.9120  0.9468 -0.9605
13544SOL     OW41209   7.635   5.867   4.806  0.1186 -0.2437  0.0017
13544SOL    HW141210   7.677   5.914   4.735 -0.4273  1.5482  0.8132
13544SOL    HW241211   7.543   5.891   4.799 -0.1399 -1.0274  0.5823
13545SOL     OW41212   6.886   4.360   2.642  0.2376 -0.2106  0.3474
13545SOL    HW141213   6.900   4.424   2.572 -1.0199  0.2341  0.4793
13545SOL    HW241214   6.801   4.322   2.624  0.1969 -0.5889  1.2583
13546SOL     OW41215   0.841   8.665   6.470 -0.1718  0.3628 -0.4335
13546SOL    HW141216   0.844   8.646   6.563  0.3282  0.2950 -0.4614
13546SOL    HW241217   0.767   8.725   6.460 -0.4559  0.0826 -0.0493
13547SOL     OW41218   0.371   1.360   3.004  0.3244  0.1392 -0.2698
13547SOL    HW141219   0.336   1.295   3.065  0.4462 -0.2988 -0.6601
13547SOL    HW241220   0.454   1.387   3.042  0.3059  0.0160 -0.1407
13548SOL     OW41221   8.537   0.456   3.239  0.2151  0.0797 -0.1707
13548SOL    HW141222   8.598   0.405   3.292 -1.4954 -2.0562 -0.1473
13548SOL    HW241223   8.457   0.461   3.292 -1.1860 -1.2239 -2.0530
13549SOL     OW41224   7.953   5.511   5.968 -0.0849 -0.6002  0.1346
13549SOL    HW141225   7.937   5.567   6.044 -1.0492 -1.1482  0.3606
13549SOL    HW241226   7.931   5.565   5.893  0.3033 -0.2438  0.2771
13550SOL     OW41227   2.307   1.954   5.442 -0.2015  0.0784  0.0749
13550SOL    HW141228   2.275   1.931   5.355 -0.1979 -1.0084  0.3538
13550SOL    HW241229   2.228   1.960   5.496 -0.1978  0.6766  0.0182
13551SOL     OW41230   6.947   5.467   4.156  0.6090  0.2905  0.8205
13551SOL    HW141231   6.853   5.485   4.146  0.3196 -0.8633  1.2616
13551SOL    HW241232   6.989   5.552   4.142 -0.3093  0.4188 -1.7011
13552SOL     OW41233   1.180   0.525   8.584  1.3577 -0.2914 -0.2054
13552SOL    HW141234   1.117   0.585   8.625  2.9605  1.8343 -0.6531
13552SOL    HW241235   1.201   0.462   8.653 -1.0324 -0.9576  0.0202
13553SOL     OW41236   3.357   9.314   6.183  0.1127 -0.3427  0.1008
13553SOL    HW141237   3.281   9.292   6.129  0.1144  0.4890 -0.2671
13553SOL    HW241238   3.410   9.371   6.127  0.2282  0.3532  0.8973
13554SOL     OW41239   4.503   1.755   4.530 -0.3903  0.0527  0.2328
13554SOL    HW141240   4.418   1.715   4.508 -0.4830  0.8970 -1.0835
13554SOL    HW241241   4.498   1.843   4.494  0.4621  0.6791  1.5669
13555SOL     OW41242   5.126   7.852   5.410 -0.1014 -0.1850  0.0855
13555SOL    HW141243   5.063   7.924   5.422  1.9000  1.5367  0.8362
13555SOL    HW241244   5.104   7.790   5.480  0.3907  1.4592  1.7858
13556SOL     OW41245   1.484   3.705   4.105  0.8549 -0.3730 -0.0529
13556SOL    HW141246   1.576   3.713   4.079  0.8754  0.7979  0.3283
13556SOL    HW241247   1.483   3.729   4.198  0.2470 -0.9683  0.0986
13557SOL     OW41248   1.098   5.520   0.237  0.1157  0.2576 -0.1148
13557SOL    HW141249   1.173   5.556   0.190  0.6248 -0.9232 -0.2461
13557SOL    HW241250   1.136   5.455   0.296 -0.5513  1.4133  1.6678
13558SOL     OW41251   9.114   4.122   0.486 -0.4477 -0.0214  0.2771
13558SOL    HW141252   9.187   4.067   0.514 -2.3198 -2.6342  0.3167
13558SOL    HW241253   9.090   4.171   0.564  0.7060  0.2562  0.4783
13559SOL     OW41254   4.549   4.052   8.460  0.6021  0.0926  0.0963
13559SOL    HW141255   4.530   4.095   8.543 -1.0096 -1.5805  0.6669
13559SOL    HW241256   4.523   4.116   8.393 -0.3537  0.5628  0.8981
13560SOL     OW41257   8.970   7.025   4.807 -0.6827 -0.1673 -0.1712
13560SOL    HW141258   9.037   6.957   4.820  0.5153  1.1071  0.5398
13560SOL    HW241259   8.996   7.069   4.727  0.4214  1.5041  1.0501
13561SOL     OW41260   4.236   0.978   3.389  0.0685 -0.7532  0.3606
13561SOL    HW141261   4.155   0.933   3.365 -0.0991 -0.3464  0.1562
13561SOL    HW241262   4.276   0.921   3.454  0.5591 -1.9116 -0.8937
13562SOL     OW41263   9.736   0.198   3.252 -0.0078  0.2423  0.6463
13562SOL    HW141264   9.657   0.157   3.289 -0.8936  2.0500  0.8799
13562SOL    HW241265   9.711   0.222   3.163  0.9106 -0.7915  0.0867
13563SOL     OW41266   7.953   9.623   1.468  0.5562  0.4532  0.0636
13563SOL    HW141267   8.004   9.565   1.411  1.1571  0.9599  0.0727
13563SOL    HW241268   7.883   9.656   1.413  1.8169  1.8726 -0.7601
13564SOL     OW41269   1.206   5.124   3.192  0.1782 -0.3517 -0.0887
13564SOL    HW141270   1.161   5.195   3.147  0.6037 -0.9807 -1.5532
13564SOL    HW241271   1.277   5.098   3.133 -0.9925 -3.1285 -0.4470
13565SOL     OW41272   3.178   3.028   5.343 -0.8132  0.2620  0.4014
13565SOL    HW141273   3.234   3.101   5.315  0.5418 -0.8654  0.0587
13565SOL    HW241274   3.092   3.049   5.308 -1.2463  3.1770  2.7812
13566SOL     OW41275   7.628   4.888   5.794 -0.6021 -0.1359  0.3005
13566SOL    HW141276   7.603   4.813   5.847 -1.2267  0.1542  0.4405
13566SOL    HW241277   7.568   4.958   5.822 -0.1888  0.3450  0.0140
13567SOL     OW41278   9.900   3.894   0.700  0.2320 -0.6770  0.3051
13567SOL    HW141279   9.850   3.971   0.725 -0.0186 -0.3979 -0.9953
13567SOL    HW241280   9.883   3.831   0.770  0.6378  0.5057  1.5163
13568SOL     OW41281   4.571   6.815   6.302  0.1538 -0.4355 -0.2734
13568SOL    HW141282   4.484   6.777   6.290 -0.4860  0.7310  0.4930
13568SOL    HW241283   4.555   6.908   6.319  1.5789 -0.1115 -0.5597
13569SOL     OW41284   5.514   5.860   0.749  0.1452  0.7099 -0.2270
13569SOL    HW141285   5.595   5.852   0.800 -0.2443  0.9840  0.4375
13569SOL    HW241286   5.465   5.930   0.792 -1.1336 -0.4725  0.3327
13570SOL     OW41287   1.882   7.629   7.376 -0.0050  0.4958 -0.2313
13570SOL    HW141288   1.971   7.601   7.355  0.2855 -0.0825  1.5490
13570SOL    HW241289   1.889   7.723   7.391  0.1293  0.6009 -0.9490
13571SOL     OW41290   5.728   8.395   3.786 -0.2363  0.2164  0.0663
13571SOL    HW141291   5.762   8.312   3.754 -0.2477  0.3369 -0.2689
13571SOL    HW241292   5.807   8.448   3.804 -0.2271  0.1033  0.3636
13572SOL     OW41293   7.622   1.557   8.684 -0.0285 -0.2029  0.7851
13572SOL    HW141294   7.535   1.522   8.663 -0.0448  0.5033 -0.4186
13572SOL    HW241295   7.618   1.578   8.778 -1.0404 -0.4893  0.8126
13573SOL     OW41296   4.558   4.460   8.807 -0.0368 -0.2241  0.0213
13573SOL    HW141297   4.539   4.460   8.900  0.7548  0.3493  0.1904
13573SOL    HW241298   4.493   4.519   8.769 -0.7569 -0.9475  0.1180
13574SOL     OW41299   7.208   1.282   8.552 -0.3343 -0.0939  0.1798
13574SOL    HW141300   7.135   1.256   8.496  0.4138 -0.6398 -0.5766
13574SOL    HW241301   7.285   1.239   8.513  0.5462  1.2470  0.3686
13575SOL     OW41302   6.411   4.276   9.764 -0.5838 -0.3842 -0.2971
13575SOL    HW141303   6.358   4.333   9.708 -1.0468  1.2562  1.6503
13575SOL    HW241304   6.501   4.303   9.747 -0.6867 -0.2389 -0.6216
13576SOL     OW41305   2.427   1.437   6.510 -0.3732 -0.2058  0.2187
13576SOL    HW141306   2.508   1.486   6.523 -0.4490  0.2741 -0.9918
13576SOL    HW241307   2.437   1.359   6.565  1.1459 -0.4228 -0.3213
13577SOL     OW41308   0.507   9.913   1.449  0.1963  0.0864  0.5265
13577SOL    HW141309   0.446   9.842   1.427 -2.2922  2.4698 -0.8059
13577SOL    HW241310   0.525   9.956   1.366  0.5675  1.8151  1.4585
13578SOL     OW41311   3.104   3.616   4.804 -0.2068  0.0859 -0.3504
13578SOL    HW141312   3.141   3.703   4.803  0.5512 -0.1820  1.4835
13578SOL    HW241313   3.164   3.563   4.752  0.6183  0.1972  0.4647
13579SOL     OW41314   6.720   1.972   1.014  0.4620 -0.2702 -0.1460
13579SOL    HW141315   6.736   1.878   1.018  0.3143 -0.4000 -1.9045
13579SOL    HW241316   6.636   1.981   0.970 -0.7969  0.6565  2.2538
13580SOL     OW41317   5.551   6.050   6.604 -0.0466  0.1993  0.3389
13580SOL    HW141318   5.642   6.072   6.626 -0.3877  0.9583  1.0558
13580SOL    HW241319   5.551   6.039   6.509  1.3563 -2.5522  0.5692
13581SOL     OW41320   5.739   5.388   7.946  0.5462 -0.2330  0.2529
13581SOL    HW141321   5.650   5.358   7.968  0.6305  0.6418  1.9352
13581SOL    HW241322   5.725   5.462   7.888  0.2010 -0.5427 -0.0668
13582SOL     OW41323   5.488   3.215   9.560  0.4843 -0.0334  0.0980
13582SOL    HW141324   5.553   3.262   9.613  0.3181  0.1764  0.1195
13582SOL    HW241325   5.406   3.263   9.575  0.1064 -0.8984  0.8724
13583SOL     OW41326   7.957   6.980   7.149  1.0180  0.7227  0.5142
13583SOL    HW141327   7.878   7.025   7.121 -0.0100 -0.9468  0.5900
13583SOL    HW241328   8.017   6.988   7.075 -0.5460 -0.9814 -1.0531
13584SOL     OW41329   7.047   1.916   7.971  0.3323 -0.3159  0.1467
13584SOL    HW141330   7.132   1.874   7.964 -0.2779 -1.3286 -2.3502
13584SOL    HW241331   6.984   1.845   7.957 -0.8508  0.7231  0.0306
13585SOL     OW41332   0.287   4.809   7.901  0.2908  0.3404  0.1151
13585SOL    HW141333   0.366   4.830   7.851 -0.4293  0.4932 -1.0057
13585SOL    HW241334   0.316   4.748   7.969  1.2266 -0.2965 -0.8292
13586SOL     OW41335   8.890   9.273   2.047  0.1847 -0.4502 -0.2253
13586SOL    HW141336   8.909   9.366   2.061 -1.6641 -0.3058  2.1983
13586SOL    HW241337   8.802   9.273   2.009  0.1978 -1.2188 -0.2596
13587SOL     OW41338   3.598   4.526   1.255  0.2006 -0.4804 -0.3810
13587SOL    HW141339   3.589   4.431   1.258  1.1450 -0.6753 -2.2586
13587SOL    HW241340   3.630   4.545   1.167  0.4330  1.5532  0.0750
13588SOL     OW41341   7.196   3.351   0.076 -0.1087  0.3802 -0.0082
13588SOL    HW141342   7.209   3.258   0.095  0.3928  0.5608  0.5257
13588SOL    HW241343   7.281   3.383   0.047 -0.3051  0.6509 -0.3003
13589SOL     OW41344   9.760   2.144   8.153 -0.1064 -0.1306 -0.6981
13589SOL    HW141345   9.812   2.134   8.074 -0.5217 -1.1245 -0.8563
13589SOL    HW241346   9.671   2.158   8.122 -0.1642  0.1509 -0.4097
13590SOL     OW41347   0.998   1.315   7.080  0.0172 -0.4365  0.2676
13590SOL    HW141348   0.964   1.265   7.005  0.9483 -0.4975 -0.1296
13590SOL    HW241349   1.013   1.403   7.045  0.2774 -0.4171  0.4239
13591SOL     OW41350   1.970   0.627   9.167 -0.2033  0.4255 -0.5644
13591SOL    HW141351   2.019   0.591   9.240 -0.8839 -0.0076 -0.3112
13591SOL    HW241352   1.947   0.551   9.113  0.8558  0.8019 -1.6005
13592SOL     OW41353   9.452   5.078   5.567  0.1941 -0.1088 -0.0623
13592SOL    HW141354   9.424   5.162   5.532 -1.6877  0.1868  1.9819
13592SOL    HW241355   9.427   5.014   5.499 -1.8435  0.6075 -0.0483
13593SOL     OW41356   4.886   0.211   1.428  0.0974  0.1219 -0.1513
13593SOL    HW141357   4.937   0.144   1.382 -0.3983 -0.7070  0.4814
13593SOL    HW241358   4.935   0.227   1.509  0.0425  0.2806 -0.1505
13594SOL     OW41359   8.753   9.295   8.976 -0.9723  0.1417  0.5393
13594SOL    HW141360   8.769   9.207   8.942 -2.0154  0.1434 -0.0120
13594SOL    HW241361   8.721   9.281   9.065  0.9450  0.0957  1.2737
13595SOL     OW41362   3.378   8.515   8.199  0.4013  0.0259 -0.1212
13595SOL    HW141363   3.443   8.505   8.269  1.1017  0.1331 -0.7430
13595SOL    HW241364   3.386   8.606   8.172 -3.4128  1.6504  3.0517
13596SOL     OW41365   2.172   0.363   2.231  0.0557  0.2765  0.7197
13596SOL    HW141366   2.262   0.376   2.259 -0.0945  1.4144  0.7314
13596SOL    HW241367   2.176   0.289   2.171  0.4552 -1.9552  3.3056
13597SOL     OW41368   6.775   7.612   9.310  0.1313 -0.2313  0.3934
13597SOL    HW141369   6.754   7.585   9.400  1.1599  1.9136  1.3612
13597SOL    HW241370   6.842   7.551   9.281 -0.2840 -1.0138  1.0507
13598SOL     OW41371   0.100   2.527   3.590 -0.2075 -0.8820  0.0869
13598SOL    HW141372   0.028   2.466   3.606 -0.7724 -0.4412 -0.7256
13598SOL    HW241373   0.065   2.612   3.617 -0.3898 -0.4871 -1.3052
13599SOL     OW41374   2.457   1.633   5.871  0.1920 -0.0502  0.1644
13599SOL    HW141375   2.545   1.619   5.907  0.8465  0.5435 -1.1178
13599SOL    HW241376   2.446   1.728   5.872  1.0819  0.2035 -2.9151
13600SOL     OW41377   8.788   9.837   7.362  0.0534  0.5990  0.0200
13600SOL    HW141378   8.763   9.871   7.448 -1.1619  1.1081 -0.5139
13600SOL    HW241379   8.719   9.775   7.340  0.3729  0.4480 -0.5791
13601SOL     OW41380   8.650   9.062   1.879 -0.4534  0.1507 -0.1738
13601SOL    HW141381   8.622   9.036   1.791  0.3326 -0.9135 -0.1204
13601SOL    HW241382   8.651   9.157   1.876 -0.9203  0.1394 -1.1647
13602SOL     OW41383   0.186   1.466   6.955 -0.3067 -0.2014 -0.2545
13602SOL    HW141384   0.250   1.467   6.884  0.9382 -0.6476  0.8237
13602SOL    HW241385   0.174   1.558   6.978  1.6346 -0.1747  0.9412
13603SOL     OW41386   5.261   5.378   6.464  0.3842  0.5923 -0.6059
13603SOL    HW141387   5.233   5.455   6.513 -0.1329 -1.8759  3.4562
13603SOL    HW241388   5.357   5.382   6.467  0.4325 -0.2637  2.3357
13604SOL     OW41389   3.007   5.009   9.517 -0.7587 -0.3370  0.0440
13604SOL    HW141390   3.073   4.941   9.506  1.7542  1.8268  0.6753
13604SOL    HW241391   2.978   5.000   9.608  1.2291  0.7005  0.8514
13605SOL     OW41392   4.484   6.901   2.019 -0.3472 -0.5345  0.6602
13605SOL    HW141393   4.396   6.932   2.040  0.0538  0.7401  0.5037
13605SOL    HW241394   4.478   6.871   1.928 -0.5111 -0.0417  0.5071
13606SOL     OW41395   9.628   8.129   4.737  0.0458  0.6840 -0.0962
13606SOL    HW141396   9.580   8.209   4.716  0.1832  0.7910 -0.0081
13606SOL    HW241397   9.664   8.145   4.824 -0.8142  0.1005  0.3723
13607SOL     OW41398   0.889   7.237   4.835 -0.2352  0.4908  0.0715
13607SOL    HW141399   0.813   7.248   4.778 -0.6874  0.0453  0.5692
13607SOL    HW241400   0.886   7.313   4.894 -0.8074  0.0328  0.6515
13608SOL     OW41401   4.688   9.513   5.811 -0.1710  0.0192  0.4767
13608SOL    HW141402   4.594   9.532   5.814 -0.0194  0.7162  3.1645
13608SOL    HW241403   4.692   9.421   5.785 -1.7321 -0.4922  1.7879
13609SOL     OW41404   1.481   2.011   1.397 -0.2484 -0.3268  0.2074
13609SOL    HW141405   1.515   2.094   1.432  0.0736 -0.7242  0.8670
13609SOL    HW241406   1.428   1.976   1.469 -3.5923  1.1139 -1.3798
13610SOL     OW41407   3.861   8.875   4.351  0.2939  0.3833 -0.1246
13610SOL    HW141408   3.915   8.945   4.388  0.1279  1.1878 -1.3589
13610SOL    HW241409   3.921   8.824   4.296  0.3981 -0.4283  0.7110
13611SOL     OW41410   2.227   3.531   2.642 -0.0591 -0.2326  0.3011
13611SOL    HW141411   2.153   3.518   2.701 -1.2228 -0.4959 -1.1343
13611SOL    HW241412   2.244   3.625   2.645 -1.9350  0.2141 -0.9639
13612SOL     OW41413   4.345   0.933   9.306  0.0224 -0.0679  0.3819
13612SOL    HW141414   4.428   0.944   9.353 -1.0282 -0.0964  2.3658
13612SOL    HW241415   4.287   0.892   9.371 -1.4206 -0.4499 -1.0938
13613SOL     OW41416   1.263   9.846   4.442 -0.0224 -0.3242 -0.0771
13613SOL    HW141417   1.176   9.850   4.404 -0.1123 -2.1857 -0.1890
13613SOL    HW241418   1.313   9.913   4.396 -1.2614  0.4337 -0.3583
13614SOL     OW41419   9.977   0.158   3.083 -0.0646 -0.2613 -0.4207
13614SOL    HW141420   9.961   0.193   2.995 -0.3321 -1.2791 -0.7891
13614SOL    HW241421   9.907   0.195   3.137 -0.8659 -0.9183 -0.9971
13615SOL     OW41422   7.274   6.287   3.500 -0.1055 -0.5191 -0.0292
13615SOL    HW141423   7.198   6.239   3.467 -0.5710  0.5582 -0.5684
13615SOL    HW241424   7.342   6.273   3.434 -0.1477 -0.6900 -0.0351
13616SOL     OW41425   6.810   3.029   2.522 -0.3239 -0.2869  0.2366
13616SOL    HW141426   6.855   2.955   2.561 -1.7647 -1.3063  0.0667
13616SOL    HW241427   6.718   3.018   2.548 -0.7334  0.9156 -0.5699
13617SOL     OW41428   7.784   5.317   3.610 -0.7505 -0.0018  0.0222
13617SOL    HW141429   7.779   5.230   3.650 -0.3198  0.7832  1.9115
13617SOL    HW241430   7.861   5.312   3.553  1.5429  0.0640  2.8298
13618SOL     OW41431   0.346   9.623   6.952  0.4021  0.3327  0.4544
13618SOL    HW141432   0.370   9.533   6.928  2.0633  1.1082 -0.9983
13618SOL    HW241433   0.404   9.645   7.024  0.8197  0.6196  0.0372
13619SOL     OW41434   3.561   5.093   3.066  0.0632 -0.1731 -0.3726
13619SOL    HW141435   3.578   5.166   3.006  0.9861  1.1740  1.4337
13619SOL    HW241436   3.480   5.054   3.034  0.6790  0.2631 -2.6597
13620SOL     OW41437   0.214   0.742   2.869 -0.1336  0.1557  0.1483
13620SOL    HW141438   0.153   0.816   2.867  0.8196  0.9719 -1.8081
13620SOL    HW241439   0.270   0.759   2.945  0.3188  1.6934 -0.4874
13621SOL     OW41440   0.606   5.477   5.292  0.0401 -0.0039 -0.1656
13621SOL    HW141441   0.531   5.520   5.331  0.6227  1.7172 -0.8473
13621SOL    HW241442   0.600   5.498   5.199  1.0768 -0.2825 -0.3112
13622SOL     OW41443   6.353   0.976   0.300  0.2475 -0.1523 -0.8864
13622SOL    HW141444   6.287   0.909   0.282 -0.0144  0.1718 -1.1543
13622SOL    HW241445   6.415   0.967   0.228 -0.2229  0.4285 -1.3731
13623SOL     OW41446   4.339   4.868   6.934  0.0170 -0.0855  0.3519
13623SOL    HW141447   4.287   4.790   6.915 -3.3558  1.5696  1.9487
13623SOL    HW241448   4.394   4.843   7.008 -0.3420 -1.1972  0.2635
13624SOL     OW41449   6.010   7.198   8.871 -0.2070 -0.3388 -0.0732
13624SOL    HW141450   5.992   7.229   8.782 -1.7550 -0.4368  0.1660
13624SOL    HW241451   6.038   7.276   8.919  0.4653 -0.2500 -0.6005
13625SOL     OW41452   3.892   6.776   2.840 -0.7424  0.0739 -0.3897
13625SOL    HW141453   3.949   6.700   2.853 -0.5599  0.2368 -0.2295
13625SOL    HW241454   3.851   6.761   2.754 -0.9731 -0.3742 -0.2039
13626SOL     OW41455   0.616   3.770   3.193 -0.0176 -0.2696  0.0327
13626SOL    HW141456   0.601   3.761   3.287 -0.4337 -0.3987 -0.0434
13626SOL    HW241457   0.634   3.681   3.162  1.1308 -0.0871  0.1560
13627SOL     OW41458   8.071   1.830   3.486 -0.3440 -0.1759  0.2169
13627SOL    HW141459   8.138   1.821   3.553  1.0752  0.8792 -0.9862
13627SOL    HW241460   8.026   1.913   3.506  0.3191  0.3221 -0.3061
13628SOL     OW41461   0.014   3.494   8.474  0.0723 -0.2196 -0.6020
13628SOL    HW141462  -0.047   3.426   8.447 -0.0190 -0.2349 -0.3632
13628SOL    HW241463   0.056   3.523   8.393 -1.0327  0.5452 -0.9256
13629SOL     OW41464   0.312   2.737   1.177 -0.6837  0.2042  0.1663
13629SOL    HW141465   0.405   2.722   1.165 -1.1730 -2.0601 -1.5099
13629SOL    HW241466   0.300   2.831   1.165  1.2756  0.4179 -0.3559
13630SOL     OW41467   1.212   3.758   4.876 -0.3951  0.6387 -0.2899
13630SOL    HW141468   1.278   3.764   4.946  0.7695 -2.6343 -0.9558
13630SOL    HW241469   1.129   3.750   4.923  0.1539  0.3957  0.6748
13631SOL     OW41470   0.554   9.727   8.261  0.0411  0.0043 -0.3221
13631SOL    HW141471   0.638   9.728   8.216 -0.6496 -0.6744 -1.6848
13631SOL    HW241472   0.556   9.648   8.314  0.9857  0.9733  1.1530
13632SOL     OW41473   1.171   3.611   5.722  0.8855  0.0803 -0.0816
13632SOL    HW141474   1.145   3.551   5.653  0.3585  0.4873 -0.2423
13632SOL    HW241475   1.091   3.627   5.772  1.0796  0.4301  0.1221
13633SOL     OW41476   6.500   7.065   6.328 -0.1605  0.4040 -0.4960
13633SOL    HW141477   6.440   7.076   6.255  0.5129 -0.5911 -1.2246
13633SOL    HW241478   6.554   6.990   6.304 -0.5837 -0.6034  1.4778
13634SOL     OW41479   6.882   6.088   6.579 -0.1190  0.1408  0.4904
13634SOL    HW141480   6.933   6.026   6.527 -0.3080 -0.7776  1.3604
13634SOL    HW241481   6.817   6.034   6.623 -0.9070  1.0971  0.5493
13635SOL     OW41482   2.385   8.179   1.981 -0.5609  0.2062 -0.0271
13635SOL    HW141483   2.399   8.102   2.035  0.0498  0.8948  0.8171
13635SOL    HW241484   2.312   8.225   2.023 -1.2359 -0.1206 -0.7915
13636SOL     OW41485   6.180   1.872   0.167  1.0483 -0.0339 -0.4627
13636SOL    HW141486   6.230   1.804   0.212  0.9896 -0.5415 -1.1607
13636SOL    HW241487   6.143   1.829   0.090  1.2027  0.8451 -1.0446
13637SOL     OW41488   7.004   3.464   8.825 -0.2533 -0.7578 -0.3718
13637SOL    HW141489   7.067   3.531   8.799 -0.3883 -0.4424  0.1041
13637SOL    HW241490   6.918   3.501   8.804 -0.2560 -1.7091 -2.2416
13638SOL     OW41491   0.282   9.914   5.160 -0.2541  0.1736 -0.4126
13638SOL    HW141492   0.319   9.971   5.093 -0.8864  1.5471  0.3647
13638SOL    HW241493   0.194   9.948   5.175 -1.4246 -2.2356 -1.3105
13639SOL     OW41494   6.631   1.854   3.221  0.1317 -0.2089 -0.0578
13639SOL    HW141495   6.717   1.867   3.261 -0.4037 -0.0931  1.0894
13639SOL    HW241496   6.649   1.806   3.140  1.0837 -2.0579  1.1914
13640SOL     OW41497   2.256   0.615   3.325 -0.0102  0.0565 -0.3400
13640SOL    HW141498   2.225   0.537   3.371  0.3309  1.0572  1.7351
13640SOL    HW241499   2.340   0.634   3.366  0.7858  0.5141 -2.0823
13641SOL     OW41500   6.852   1.860   7.637  0.6353 -0.0703  0.4132
13641SOL    HW141501   6.896   1.776   7.652  2.3656  0.7870  0.3896
13641SOL    HW241502   6.910   1.907   7.577 -1.6774  0.0855 -1.9109
13642SOL     OW41503   6.283   0.445   9.552  0.4025  0.6351 -0.3604
13642SOL    HW141504   6.365   0.492   9.535  0.5463 -0.0875 -1.8083
13642SOL    HW241505   6.311   0.363   9.594  0.3057  0.9496  0.3334
13643SOL     OW41506   4.308   4.591   0.185 -0.1224 -0.1164 -0.9346
13643SOL    HW141507   4.242   4.634   0.239  1.9006  0.3876  1.3109
13643SOL    HW241508   4.348   4.662   0.134  0.6255  0.0766 -0.0994
13644SOL     OW41509   8.899   0.840   4.694 -0.2033  0.6654 -0.2385
13644SOL    HW141510   8.869   0.822   4.605 -1.6649  1.1848  0.1300
13644SOL    HW241511   8.906   0.935   4.699 -1.1455  0.7087  0.4993
13645SOL     OW41512   3.405   9.174   4.700 -0.2462  0.3496  0.5912
13645SOL    HW141513   3.448   9.135   4.777 -2.2199 -0.7431  1.2032
13645SOL    HW241514   3.444   9.128   4.625 -1.6098 -2.0163  1.2304
13646SOL     OW41515   1.647   4.303   6.995  0.2189  0.6397 -0.5113
13646SOL    HW141516   1.562   4.339   7.020 -0.7876 -1.6584 -0.3464
13646SOL    HW241517   1.685   4.274   7.078 -0.2386 -1.0869 -0.8617
13647SOL     OW41518   3.590   3.375   6.741  0.5592 -0.0257  0.1255
13647SOL    HW141519   3.549   3.411   6.663  2.5883  0.9037 -0.5573
13647SOL    HW241520   3.520   3.374   6.807 -0.7971  0.5352 -1.2641
13648SOL     OW41521   3.108   0.846   9.635  0.9208  0.3250 -0.0830
13648SOL    HW141522   3.126   0.837   9.728  0.6300  0.6126  0.0036
13648SOL    HW241523   3.194   0.855   9.594  1.2320 -2.1958 -0.1325
13649SOL     OW41524   2.156   0.546   6.524 -0.1190 -0.5842  0.3878
13649SOL    HW141525   2.165   0.641   6.519 -3.3722 -0.1917 -0.1577
13649SOL    HW241526   2.091   0.531   6.593 -1.5255 -2.1893 -1.1748
13650SOL     OW41527   5.803   6.732   3.589 -0.5111  0.0565 -0.0079
13650SOL    HW141528   5.835   6.672   3.522 -0.6976 -1.2745  1.0527
13650SOL    HW241529   5.768   6.807   3.540  1.2800  0.1220 -1.3065
13651SOL     OW41530   7.859   4.773   3.699  0.1523  0.0042 -0.1074
13651SOL    HW141531   7.928   4.839   3.694  0.2750 -0.2099 -1.3931
13651SOL    HW241532   7.869   4.734   3.786 -0.0241  1.7714  0.7447
13652SOL     OW41533   2.719   5.003   5.566 -0.1190  0.2528  0.5359
13652SOL    HW141534   2.766   5.082   5.591  0.6884 -0.3129  0.8386
13652SOL    HW241535   2.786   4.935   5.559 -0.7092 -0.2652 -0.3688
13653SOL     OW41536   8.817   8.474   9.872 -0.1436 -0.4303  0.1707
13653SOL    HW141537   8.842   8.406   9.934 -1.7649 -0.3007  1.0146
13653SOL    HW241538   8.789   8.426   9.794 -0.4042 -0.7009  0.4289
13654SOL     OW41539   7.409   8.424   9.258  0.1751  0.4659  0.5909
13654SOL    HW141540   7.380   8.368   9.186  0.2510  0.4343  0.5846
13654SOL    HW241541   7.346   8.496   9.260 -0.0106  0.3026  0.6908
13655SOL     OW41542   4.951   0.133   2.699  0.2823 -0.0470 -0.2837
13655SOL    HW141543   4.869   0.102   2.738  0.1931  0.2020 -0.2696
13655SOL    HW241544   4.979   0.205   2.756  0.1753  0.2877 -0.6474
13656SOL     OW41545   9.415   3.411   4.455 -0.4750 -0.0587 -0.4627
13656SOL    HW141546   9.424   3.411   4.359  0.2777 -2.2358 -0.4351
13656SOL    HW241547   9.496   3.372   4.487  1.4831  4.8486  1.4521
13657SOL     OW41548   3.091   0.450   7.465  0.1407 -0.4683  0.3517
13657SOL    HW141549   3.141   0.378   7.504 -0.0116  0.0514  1.5555
13657SOL    HW241550   3.034   0.481   7.536 -1.8601 -0.9766 -0.9555
13658SOL     OW41551   3.037   2.508   8.830  0.0888 -0.0853  0.6145
13658SOL    HW141552   3.104   2.570   8.860  0.0800  0.3444 -0.2227
13658SOL    HW241553   2.971   2.563   8.788 -0.8934 -0.4903  1.5741
13659SOL     OW41554   3.618   9.440   2.114 -0.2379  0.4592 -0.4766
13659SOL    HW141555   3.710   9.466   2.122  0.0538 -0.4626 -0.7801
13659SOL    HW241556   3.593   9.415   2.203 -0.2751  0.9466 -0.3457
13660SOL     OW41557   1.051   3.693   7.961  0.7637 -0.1750  0.4463
13660SOL    HW141558   0.975   3.636   7.969  1.6464 -1.2852  1.3497
13660SOL    HW241559   1.118   3.638   7.919  1.6690  0.1333  1.4317
13661SOL     OW41560   1.857   5.858   4.606 -0.4113  0.0667 -0.3036
13661SOL    HW141561   1.942   5.845   4.562 -0.6126 -0.6159 -0.5131
13661SOL    HW241562   1.793   5.828   4.542 -0.8259  0.7444 -0.2065
13662SOL     OW41563   6.038   1.683   7.990  0.1711  0.0548 -0.1210
13662SOL    HW141564   6.078   1.630   7.921 -1.0620 -0.6660 -0.2956
13662SOL    HW241565   6.088   1.765   7.988  0.9041 -0.3875 -1.0864
13663SOL     OW41566   9.651   3.280   1.710  0.4010  0.3507  0.2287
13663SOL    HW141567   9.591   3.342   1.749  1.7681  0.7061  1.8830
13663SOL    HW241568   9.650   3.301   1.616 -1.1232  1.1001  0.3855
13664SOL     OW41569   1.991   4.492   2.568 -0.0754  0.4542 -0.1951
13664SOL    HW141570   1.986   4.428   2.497  1.6021 -0.4278  0.4238
13664SOL    HW241571   2.017   4.573   2.526 -1.3850  0.5586 -0.8710
13665SOL     OW41572   3.583   8.166   3.266 -0.1367 -0.0073  0.2432
13665SOL    HW141573   3.552   8.076   3.250  0.6821 -0.4704  1.1439
13665SOL    HW241574   3.537   8.219   3.201  0.3588 -1.2625 -1.1858
13666SOL     OW41575   3.145   5.526   5.448  0.1720  0.1887  0.0488
13666SOL    HW141576   3.240   5.515   5.445  0.0087 -1.2275 -2.1389
13666SOL    HW241577   3.129   5.611   5.406  0.4243 -0.5052 -1.5535
13667SOL     OW41578   3.614   2.463   0.815 -0.1340 -0.5723  0.1446
13667SOL    HW141579   3.637   2.490   0.726 -0.2495 -0.8925  0.0141
13667SOL    HW241580   3.616   2.544   0.866 -0.2344 -0.3570 -0.1862
13668SOL     OW41581   8.569   2.882   2.271 -0.2277  0.2472 -0.5057
13668SOL    HW141582   8.551   2.891   2.178  0.4685 -1.7529 -0.8867
13668SOL    HW241583   8.484   2.899   2.313 -0.1682  2.9294 -1.2973
13669SOL     OW41584   7.941   3.893   2.659 -0.2748 -0.3432 -0.4881
13669SOL    HW141585   7.998   3.889   2.582  0.5976  0.2286  0.1184
13669SOL    HW241586   7.891   3.811   2.655  0.7721 -0.9858 -0.8898
13670SOL     OW41587   9.681   8.218   6.945 -0.1960  0.0050  0.1113
13670SOL    HW141588   9.776   8.208   6.949 -0.3688 -2.5529 -0.6045
13670SOL    HW241589   9.657   8.185   6.858 -1.9247 -1.7270  1.1605
13671SOL     OW41590   3.957   8.000   1.862 -0.2163  0.6280  0.6209
13671SOL    HW141591   3.900   8.073   1.889  0.6206  1.2729  0.6965
13671SOL    HW241592   3.999   8.030   1.782  0.6705  0.5362  1.0294
13672SOL     OW41593   9.668   3.418   5.211  0.1177  0.0267 -0.1714
13672SOL    HW141594   9.733   3.371   5.264  0.7025  1.1870  0.1637
13672SOL    HW241595   9.657   3.502   5.255 -1.5720 -0.1133 -0.2705
13673SOL     OW41596   0.934   8.815   7.480 -0.3060  0.6690 -0.0847
13673SOL    HW141597   0.942   8.869   7.401  1.3439 -0.2243 -0.5734
13673SOL    HW241598   0.940   8.877   7.553  1.2113  1.1945 -0.6332
13674SOL     OW41599   4.457   9.880   0.373  0.5042  0.4094  0.0603
13674SOL    HW141600   4.387   9.911   0.316  0.7355 -0.1091 -0.5170
13674SOL    HW241601   4.472   9.790   0.347  1.0266  0.3469  0.5395
13675SOL     OW41602   1.772   5.437   2.629  0.3307 -0.3897  0.0768
13675SOL    HW141603   1.830   5.504   2.663 -2.2948  2.4978 -0.7306
13675SOL    HW241604   1.783   5.442   2.534  1.0905 -2.1771  0.0171
13676SOL     OW41605   7.021   7.385   5.441 -0.7010  0.3436 -0.4200
13676SOL    HW141606   6.930   7.388   5.411 -1.1340  0.7363  0.8553
13676SOL    HW241607   7.066   7.333   5.375 -2.4219 -2.3860  0.3908
13677SOL     OW41608   2.130   0.590   7.694 -0.0077 -0.6361 -0.2579
13677SOL    HW141609   2.127   0.647   7.771 -2.6297 -0.4894 -0.3915
13677SOL    HW241610   2.166   0.646   7.625 -0.0972  0.0548  0.2351
13678SOL     OW41611   2.764   2.221   1.107 -0.0873 -0.1375 -0.0243
13678SOL    HW141612   2.806   2.299   1.143  0.7931 -1.3037  1.5848
13678SOL    HW241613   2.691   2.255   1.055  1.8617  1.8807 -1.6101
13679SOL     OW41614   6.874   4.107   7.191 -0.6442 -0.1260 -0.3832
13679SOL    HW141615   6.860   4.118   7.285 -1.5706  0.3003 -0.5574
13679SOL    HW241616   6.868   4.196   7.156 -0.6414 -0.3246 -0.8919
13680SOL     OW41617   8.496   7.210   3.347 -0.5052 -0.0046  0.5435
13680SOL    HW141618   8.400   7.212   3.347 -0.5397 -1.0163  0.0118
13680SOL    HW241619   8.521   7.295   3.310 -1.1594  0.7290  1.7245
13681SOL     OW41620   2.881   6.427   4.182  0.4267 -0.1853 -0.0239
13681SOL    HW141621   2.821   6.420   4.256  1.2628  2.8653  1.1008
13681SOL    HW241622   2.836   6.488   4.122  1.1167 -0.1820 -0.5440
13682SOL     OW41623   9.088   3.373   2.515  0.1726  0.0021  0.1282
13682SOL    HW141624   9.167   3.328   2.484  1.5037  1.5775  1.0698
13682SOL    HW241625   9.098   3.376   2.610  0.1183  2.1700  0.1049
13683SOL     OW41626   9.388   5.623   3.623  0.1012 -0.4246  0.7025
13683SOL    HW141627   9.445   5.557   3.584 -1.0549 -1.2331  0.3216
13683SOL    HW241628   9.378   5.594   3.714 -0.1596 -0.6042  0.6168
13684SOL     OW41629   1.615   0.676   2.765  0.5830  0.0664 -0.6035
13684SOL    HW141630   1.616   0.729   2.845 -0.6812  2.4620 -2.0572
13684SOL    HW241631   1.523   0.655   2.751  0.9996 -2.0838 -0.4048
13685SOL     OW41632   2.958   7.841   1.917 -0.2624 -0.4700 -0.0235
13685SOL    HW141633   2.943   7.832   2.011 -1.0932 -1.7978 -0.2529
13685SOL    HW241634   2.873   7.867   1.882 -0.0127 -0.2077 -0.4401
13686SOL     OW41635   0.952   0.093   7.754 -0.2251 -0.2636  0.1638
13686SOL    HW141636   0.892   0.131   7.690  2.1402  1.5148 -1.1414
13686SOL    HW241637   1.038   0.125   7.729  1.0559 -0.8888  3.2672
13687SOL     OW41638   3.873   5.889   4.470  0.1346 -0.0589 -0.4710
13687SOL    HW141639   3.928   5.857   4.542 -0.6978 -1.6538 -0.4933
13687SOL    HW241640   3.935   5.918   4.403  1.0899 -3.1378 -1.1031
13688SOL     OW41641   3.119   5.501   6.415 -0.0544  0.0276 -0.0231
13688SOL    HW141642   3.119   5.593   6.388 -0.4999  0.0614  0.0787
13688SOL    HW241643   3.036   5.467   6.381 -0.4033 -0.0532  0.8939
13689SOL     OW41644   4.831   7.318   3.971 -0.1967 -0.1674  0.0316
13689SOL    HW141645   4.774   7.296   3.898  0.4783  3.3182 -1.7645
13689SOL    HW241646   4.789   7.395   4.011  1.5722  0.5080  0.6905
13690SOL     OW41647   0.901   2.495   2.337 -0.1882 -0.0646 -0.3389
13690SOL    HW141648   0.830   2.431   2.327 -0.3183 -0.2328  1.4107
13690SOL    HW241649   0.890   2.554   2.262 -1.4413 -0.7803 -0.7523
13691SOL     OW41650   5.063   3.890   6.973 -0.4395  0.0816 -0.1664
13691SOL    HW141651   5.047   3.915   6.882 -1.6187  0.0494  0.0125
13691SOL    HW241652   5.109   3.806   6.967 -1.3952 -0.4206 -0.7506
13692SOL     OW41653   1.597   5.585   8.091  0.4098  0.0100  0.6212
13692SOL    HW141654   1.532   5.655   8.080 -0.7619 -0.8245  1.8907
13692SOL    HW241655   1.583   5.554   8.180  0.0280 -2.6897 -0.2996
13693SOL     OW41656   8.935   6.293   9.888 -0.3047 -0.0048  0.1065
13693SOL    HW141657   8.927   6.387   9.904 -0.7117 -0.1230  0.6041
13693SOL    HW241658   9.026   6.273   9.910  0.0007  0.4146 -0.7499
13694SOL     OW41659   2.141   7.282   6.624 -0.1084  0.4587 -0.3334
13694SOL    HW141660   2.054   7.248   6.646  0.5001 -0.3818  0.8864
13694SOL    HW241661   2.187   7.207   6.586  0.2604  0.7551 -0.4771
13695SOL     OW41662   7.812   8.268   5.337 -0.3913 -0.4364  0.3442
13695SOL    HW141663   7.797   8.174   5.323 -1.5457 -0.4347  1.4683
13695SOL    HW241664   7.771   8.287   5.421  0.7428  0.8761  0.6314
13696SOL     OW41665   3.213   6.252   0.419 -0.0022 -0.1634 -0.0039
13696SOL    HW141666   3.124   6.218   0.418  0.0226 -0.2845  0.8165
13696SOL    HW241667   3.205   6.338   0.461  0.2939 -0.2875  0.3159
13697SOL     OW41668   3.454   7.782   8.185 -0.4258  0.1337 -0.4112
13697SOL    HW141669   3.389   7.826   8.240  0.6550  1.0621  0.1644
13697SOL    HW241670   3.405   7.712   8.142 -1.4881 -0.0843  1.0797
13698SOL     OW41671   4.763   1.375   2.523 -0.4273  0.4366  0.0540
13698SOL    HW141672   4.840   1.400   2.573 -0.7331 -0.0730  0.7968
13698SOL    HW241673   4.789   1.297   2.475 -0.7014 -0.2191  0.9322
13699SOL     OW41674   8.365   3.712   7.649 -0.3180 -0.0413  0.2006
13699SOL    HW141675   8.279   3.739   7.682  0.5291  3.2769  0.0755
13699SOL    HW241676   8.357   3.718   7.553 -0.2114 -0.8211  0.1315
13700SOL     OW41677   8.180   9.742   9.332  0.0522 -0.1664 -0.3633
13700SOL    HW141678   8.169   9.705   9.245 -0.9369 -0.5897 -0.0743
13700SOL    HW241679   8.199   9.667   9.388  0.2401  0.0437 -0.1466
13701SOL     OW41680   6.158   5.845   8.985  0.7439  0.0036 -0.1845
13701SOL    HW141681   6.132   5.931   9.017 -1.3595 -0.3735 -0.7067
13701SOL    HW241682   6.205   5.863   8.903 -0.2644  0.6594 -0.6440
13702SOL     OW41683   7.253   7.274   6.664 -0.5489 -0.2566 -0.2003
13702SOL    HW141684   7.171   7.319   6.682  0.9340  2.7731 -0.3971
13702SOL    HW241685   7.286   7.250   6.751 -0.5158  0.6834  0.0532
13703SOL     OW41686   7.159   8.210   7.040  0.4689 -0.1138  0.6458
13703SOL    HW141687   7.179   8.118   7.056 -0.7435 -0.5194 -0.0417
13703SOL    HW241688   7.064   8.214   7.037  0.5144  0.7275 -1.5774
13704SOL     OW41689   7.416   7.147   0.476 -0.2769  0.0825  0.1153
13704SOL    HW141690   7.392   7.153   0.568  3.6412  0.2841  1.3124
13704SOL    HW241691   7.365   7.074   0.442 -2.5731  0.6399  2.1248
13705SOL     OW41692   4.405   2.170   6.040  0.5660 -0.0779  0.6736
13705SOL    HW141693   4.414   2.088   6.088  0.5088  0.8920  2.4416
13705SOL    HW241694   4.363   2.229   6.103 -1.6785  0.6274 -1.3407
13706SOL     OW41695   1.573   7.650   8.190 -0.8247  0.0395 -0.5482
13706SOL    HW141696   1.560   7.733   8.144  0.0165 -0.0467 -0.9615
13706SOL    HW241697   1.588   7.676   8.281  1.0224  0.4831 -0.9370
13707SOL     OW41698   7.015   0.540   2.669  0.1069  0.1704 -0.5534
13707SOL    HW141699   6.952   0.610   2.688  0.2154  0.2682 -0.5515
13707SOL    HW241700   6.985   0.466   2.721  1.5497  1.0328  1.6533
13708SOL     OW41701   1.037   1.109   2.120 -0.8590  0.1052 -0.0337
13708SOL    HW141702   0.964   1.171   2.125  0.3207  1.5154  0.4503
13708SOL    HW241703   1.057   1.088   2.211 -0.6790 -0.3212 -0.1684
13709SOL     OW41704   5.450   1.858   2.480 -0.0170  0.0754 -0.0279
13709SOL    HW141705   5.541   1.883   2.468  0.4828 -1.1116  1.0225
13709SOL    HW241706   5.439   1.780   2.425 -1.1697  1.6886 -2.2165
13710SOL     OW41707   7.861   1.041   3.490  0.2272  0.0048 -0.4506
13710SOL    HW141708   7.870   1.135   3.505  0.4545 -0.1151  0.1912
13710SOL    HW241709   7.777   1.019   3.531  1.0206 -0.3909  1.0033
13711SOL     OW41710   8.305   6.050   1.207  0.6082 -0.0940 -0.5057
13711SOL    HW141711   8.366   5.986   1.244  0.2673  0.6604  1.4973
13711SOL    HW241712   8.359   6.103   1.149  1.6207 -0.1580  0.3401
13712SOL     OW41713   6.671   1.320   9.692 -0.2279 -0.0688  0.4202
13712SOL    HW141714   6.595   1.357   9.646  1.5009 -0.7079 -3.2792
13712SOL    HW241715   6.649   1.228   9.704 -0.1376 -0.2036 -0.4264
13713SOL     OW41716   5.665   5.455   6.129 -0.3410  0.6122 -0.0419
13713SOL    HW141717   5.724   5.498   6.191 -0.8646  0.2198  0.7364
13713SOL    HW241718   5.688   5.362   6.134 -1.2417  0.4028  0.5363
13714SOL     OW41719   6.126   6.806   3.293 -0.2588 -0.2293  0.1487
13714SOL    HW141720   6.176   6.756   3.229  1.4347  1.1701  0.3254
13714SOL    HW241721   6.063   6.856   3.240  1.4747  1.3239 -0.5782
13715SOL     OW41722   2.217   6.785   4.567 -0.6339  0.3084 -0.1356
13715SOL    HW141723   2.237   6.828   4.650 -0.5120  0.3651 -0.1951
13715SOL    HW241724   2.231   6.852   4.501  1.2667 -0.3067 -0.3946
13716SOL     OW41725   7.589   3.395   4.195  0.6359  0.0911 -1.0054
13716SOL    HW141726   7.593   3.453   4.271 -0.3514  0.1625 -0.9905
13716SOL    HW241727   7.650   3.433   4.132  0.2361  0.9852 -0.8741
13717SOL     OW41728   8.276   1.249   5.799 -0.2106 -0.0485 -0.3560
13717SOL    HW141729   8.251   1.338   5.775  2.3443  1.0565  0.6811
13717SOL    HW241730   8.271   1.248   5.895  1.3357 -0.4898 -0.2635
13718SOL     OW41731   8.736   1.073   7.415 -0.2601  0.3835  0.5459
13718SOL    HW141732   8.641   1.069   7.407 -0.2200 -0.2042  0.2724
13718SOL    HW241733   8.769   1.059   7.327  0.0797  0.7690  0.6082
13719SOL     OW41734   1.181   4.055   3.948  0.0963  0.3191 -0.6116
13719SOL    HW141735   1.209   4.145   3.963  0.1164  0.3767 -0.9799
13719SOL    HW241736   1.089   4.054   3.974 -0.4064  0.8968 -2.2641
13720SOL     OW41737   1.641   3.309   8.641 -0.1582  0.4552  0.5240
13720SOL    HW141738   1.565   3.283   8.590 -0.1579  1.1361  0.1738
13720SOL    HW241739   1.608   3.314   8.731 -0.3475  0.0396  0.4830
13721SOL     OW41740   1.713   5.541   0.569 -0.0577 -0.1265 -0.3924
13721SOL    HW141741   1.632   5.563   0.522  0.0062  1.3003  0.0969
13721SOL    HW241742   1.684   5.489   0.644 -0.5120  0.1773 -0.3491
13722SOL     OW41743   7.984   4.551   8.888 -0.7183  0.1800  0.3027
13722SOL    HW141744   8.008   4.631   8.842 -0.3408 -1.3807 -2.3792
13722SOL    HW241745   8.044   4.548   8.963  0.9670  1.1754 -0.9359
13723SOL     OW41746   2.157   9.020   1.422 -0.7263 -0.5538 -0.0715
13723SOL    HW141747   2.138   9.019   1.328 -1.7618 -2.3497  0.1166
13723SOL    HW241748   2.092   9.079   1.460 -2.1746 -2.0412 -0.1641
13724SOL     OW41749   7.094   0.498   4.422 -0.1327  0.7592 -0.1890
13724SOL    HW141750   7.155   0.456   4.482  0.3063  0.2132 -1.0025
13724SOL    HW241751   7.063   0.428   4.365 -3.4274  0.4614  1.6837
13725SOL     OW41752   6.458   3.203   9.889  0.0486  0.3429  0.3515
13725SOL    HW141753   6.463   3.142   9.963  0.0444  0.2926  0.3107
13725SOL    HW241754   6.486   3.150   9.813  0.9296  0.6368  0.4602
13726SOL     OW41755   2.873   8.670   4.788 -0.1783  0.2905 -0.3243
13726SOL    HW141756   2.888   8.750   4.738 -0.4171 -0.2567 -1.2901
13726SOL    HW241757   2.956   8.622   4.782 -0.2243  0.1992 -0.2316
13727SOL     OW41758   0.017   7.746   2.914 -0.5528  0.2746  0.3997
13727SOL    HW141759   0.044   7.678   2.851 -0.4742 -1.7745  2.4998
13727SOL    HW241760   0.025   7.828   2.865  1.4889 -0.9907 -1.6117
13728SOL     OW41761   4.375   7.799   3.827 -0.9043 -0.4157 -0.9177
13728SOL    HW141762   4.451   7.743   3.815 -0.9681 -1.1800  1.5664
13728SOL    HW241763   4.301   7.739   3.833 -0.8782 -0.3066  2.5868
13729SOL     OW41764   8.032   7.833   2.959  0.0660 -0.0483 -1.0934
13729SOL    HW141765   8.011   7.916   3.001  1.2837  1.0576 -2.5795
13729SOL    HW241766   8.025   7.850   2.865  0.4842 -1.5849 -1.4432
13730SOL     OW41767   2.402   5.383   9.605  0.2546  0.0628  1.2469
13730SOL    HW141768   2.426   5.387   9.697  0.9225  1.4042  1.0469
13730SOL    HW241769   2.351   5.302   9.596 -1.6261  0.9404  3.1943
13731SOL     OW41770   6.355   1.184   7.764 -0.4749  0.5688 -0.3663
13731SOL    HW141771   6.405   1.200   7.844  0.4238  0.9319 -0.9928
13731SOL    HW241772   6.385   1.251   7.703 -2.2278  1.2508 -0.5458
13732SOL     OW41773   8.087   6.685   5.566  0.1760 -0.1504 -0.1133
13732SOL    HW141774   8.045   6.768   5.587  0.3320 -0.1597  0.2554
13732SOL    HW241775   8.136   6.702   5.486  1.6804  0.6445  0.9195
13733SOL     OW41776   1.287   3.253   7.495  0.1893  0.3530 -0.6096
13733SOL    HW141777   1.207   3.303   7.514 -0.3313 -0.0396 -1.6508
13733SOL    HW241778   1.341   3.313   7.443  0.2662  0.3880 -0.4879
13734SOL     OW41779   3.876   5.994   7.264 -0.3570  0.0229 -0.5718
13734SOL    HW141780   3.826   5.919   7.296  0.1695 -0.9077 -1.8933
13734SOL    HW241781   3.959   5.958   7.235  0.3456  1.2910 -0.2102
13735SOL     OW41782   8.908   4.910   0.754  0.4789 -0.1695 -0.1048
13735SOL    HW141783   8.895   4.847   0.826 -1.4162  0.0647 -0.1718
13735SOL    HW241784   8.830   4.899   0.700  0.9645  1.0249 -1.0716
13736SOL     OW41785   1.408   0.135   1.375 -0.3365 -0.1958 -0.1700
13736SOL    HW141786   1.326   0.130   1.424 -0.9021 -0.7464 -1.1186
13736SOL    HW241787   1.471   0.086   1.427 -0.0319  1.9435  1.5905
13737SOL     OW41788   0.486   4.086   9.359 -0.2185 -0.0221  0.3309
13737SOL    HW141789   0.497   3.994   9.383 -0.1961 -0.1166 -0.0361
13737SOL    HW241790   0.574   4.117   9.338  0.1628  0.7521  2.7535
13738SOL     OW41791   1.956   1.580   0.233  0.6353 -0.1549 -0.1344
13738SOL    HW141792   2.050   1.593   0.242  0.6527 -0.3501 -0.0333
13738SOL    HW241793   1.938   1.597   0.140  0.8420 -0.5619 -0.2489
13739SOL     OW41794   7.505   2.174   3.783  0.4419  0.3802 -0.2086
13739SOL    HW141795   7.470   2.248   3.733 -1.3464 -1.7496 -2.3462
13739SOL    HW241796   7.478   2.192   3.873 -1.8630  1.3271 -1.0054
13740SOL     OW41797   1.034   7.611   8.860 -0.0866 -0.4220 -0.3203
13740SOL    HW141798   0.963   7.552   8.885 -0.4165  0.3910  0.6889
13740SOL    HW241799   1.095   7.609   8.934 -0.1850  0.6287 -0.1991
13741SOL     OW41800   0.752   9.377   7.628  0.5570 -0.3491  0.1175
13741SOL    HW141801   0.737   9.443   7.560  1.6583 -0.5539 -0.3475
13741SOL    HW241802   0.667   9.369   7.673  0.2435  0.9340 -0.2042
13742SOL     OW41803   7.554   1.126   0.197 -0.4270 -0.3422  0.0671
13742SOL    HW141804   7.469   1.082   0.197 -0.8524  0.1404 -3.6180
13742SOL    HW241805   7.613   1.066   0.243 -2.6059 -0.8331  2.4256
13743SOL     OW41806   6.527   1.997   8.776  0.6046 -0.4955  0.3050
13743SOL    HW141807   6.545   1.912   8.815  2.1702  0.4603  1.8412
13743SOL    HW241808   6.434   2.011   8.792  0.2445 -2.0258 -0.2676
13744SOL     OW41809   3.262   5.524   3.807 -0.4952 -0.6169 -0.1818
13744SOL    HW141810   3.338   5.509   3.752 -0.3124 -0.1452 -0.0630
13744SOL    HW241811   3.295   5.575   3.881 -0.8104 -0.9161  0.1753
13745SOL     OW41812   6.792   0.679   6.276 -0.3466 -0.0399 -0.1820
13745SOL    HW141813   6.746   0.657   6.356  0.5587 -0.9255  0.1158
13745SOL    HW241814   6.883   0.691   6.303 -0.4268  2.1091 -0.6804
13746SOL     OW41815   3.991   6.904   0.519  0.1226 -0.5293 -0.2968
13746SOL    HW141816   3.929   6.976   0.534 -0.3301 -1.1368  0.8915
13746SOL    HW241817   4.074   6.948   0.503 -0.2683  0.2757 -0.1969
13747SOL     OW41818   3.140   9.555   8.579 -0.2802 -0.1578 -0.2503
13747SOL    HW141819   3.087   9.524   8.505  1.8575 -1.3853 -1.3582
13747SOL    HW241820   3.088   9.531   8.656 -1.8019 -0.3591 -1.2881
13748SOL     OW41821   1.953   7.181   3.316  0.0558 -0.5977  0.3577
13748SOL    HW141822   1.932   7.172   3.409  0.0388  0.7748  0.5128
13748SOL    HW241823   2.047   7.200   3.314  0.1473 -1.0688  0.0604
13749SOL     OW41824   1.293   4.535   8.172  0.9019  0.0864  0.1984
13749SOL    HW141825   1.269   4.588   8.096 -1.3914  0.9892  1.4395
13749SOL    HW241826   1.359   4.474   8.139 -2.4689 -2.0320 -3.4536
13750SOL     OW41827   2.167   1.234   5.671  0.3275 -0.1454 -0.0137
13750SOL    HW141828   2.088   1.247   5.723  1.4569  1.8792  1.3461
13750SOL    HW241829   2.209   1.156   5.708 -0.2439 -0.3168  0.2736
13751SOL     OW41830   9.065   5.632   4.777  0.7360  0.4193  0.5152
13751SOL    HW141831   9.082   5.714   4.732 -1.2441  1.0991  0.9315
13751SOL    HW241832   9.056   5.656   4.869  4.6045 -0.9309  1.4599
13752SOL     OW41833   0.047   6.804   7.240  0.1839 -0.3031  0.1841
13752SOL    HW141834   0.005   6.764   7.316  1.6553 -0.8899  0.7240
13752SOL    HW241835   0.123   6.850   7.276  1.5187 -1.4806 -1.0336
13753SOL     OW41836   6.603   9.712   8.796 -0.1183  0.6360  0.0279
13753SOL    HW141837   6.601   9.672   8.883  0.0218  0.7488  0.0832
13753SOL    HW241838   6.535   9.779   8.800 -2.2795 -1.3718 -0.9297
13754SOL     OW41839   8.932   0.089   5.014  0.1207  0.0165  0.2871
13754SOL    HW141840   8.934   0.138   5.096  1.5175  1.9606 -0.8277
13754SOL    HW241841   9.017   0.107   4.973 -0.7388 -0.4340 -1.8310
13755SOL     OW41842   1.030   1.759   1.554  0.1876  0.4259  0.1720
13755SOL    HW141843   1.107   1.770   1.498  0.9895  0.7775  1.3121
13755SOL    HW241844   0.977   1.837   1.536  0.9502  1.0777  0.6656
13756SOL     OW41845   1.683   8.373   9.524 -0.1033 -0.2926  0.3656
13756SOL    HW141846   1.648   8.458   9.498  0.5753 -0.6182 -1.7434
13756SOL    HW241847   1.776   8.388   9.540  0.1831 -0.7539 -0.7625
13757SOL     OW41848   1.948   9.488   9.432  0.1190 -0.1635 -0.6229
13757SOL    HW141849   2.027   9.436   9.446 -1.1957 -2.3409 -0.6923
13757SOL    HW241850   1.886   9.426   9.391 -1.0572  1.9205 -2.1944
13758SOL     OW41851   9.477   3.449   1.799  0.1598 -0.1828  0.1132
13758SOL    HW141852   9.433   3.440   1.883  0.7845  1.2155  0.6199
13758SOL    HW241853   9.516   3.537   1.801  1.3326 -0.6301 -1.0829
13759SOL     OW41854   2.933   0.685   1.267 -0.5188 -0.2959 -0.2439
13759SOL    HW141855   2.878   0.625   1.319 -0.3675  0.6293  1.0170
13759SOL    HW241856   2.964   0.631   1.194 -1.1836 -1.4892  0.3207
13760SOL     OW41857   0.081   8.346   7.407 -0.8515 -0.1955  0.0951
13760SOL    HW141858   0.016   8.277   7.391 -0.6738 -0.3876  0.1912
13760SOL    HW241859   0.062   8.375   7.497  0.2570 -1.4211  0.7616
13761SOL     OW41860   1.369   2.656   1.761  0.1494  0.2836  0.2054
13761SOL    HW141861   1.428   2.695   1.826 -0.8708  0.4253  1.0707
13761SOL    HW241862   1.421   2.586   1.720  0.5164 -0.4656  1.8637
13762SOL     OW41863   9.682   8.072   1.300 -0.4530 -0.3555 -1.0756
13762SOL    HW141864   9.632   8.089   1.380  0.0023 -0.0652 -0.8470
13762SOL    HW241865   9.698   7.978   1.302  2.3110  0.0209  0.8675
13763SOL     OW41866   4.914   0.411   6.172  0.0064  0.8315  0.1500
13763SOL    HW141867   4.955   0.384   6.090  1.1948  0.2491  0.9109
13763SOL    HW241868   4.951   0.497   6.191 -0.5596  1.1399 -0.0999
13764SOL     OW41869   1.699   1.937   0.726  0.1829  0.1549  0.6047
13764SOL    HW141870   1.719   2.025   0.757  1.7609  0.2137 -0.4998
13764SOL    HW241871   1.727   1.880   0.798  2.1260  0.3954  0.0890
13765SOL     OW41872   6.285   3.450   8.901 -0.6544  0.3760 -0.6514
13765SOL    HW141873   6.202   3.451   8.853 -0.9709 -0.0766 -0.1162
13765SOL    HW241874   6.334   3.524   8.865 -1.1330  0.4138 -1.2409
13766SOL     OW41875   3.258   2.119   9.821  0.0872 -0.3797 -0.2190
13766SOL    HW141876   3.298   2.035   9.802  1.2820  0.1190  0.0077
13766SOL    HW241877   3.179   2.121   9.767  1.0643 -0.8447 -1.7276
13767SOL     OW41878   3.587   6.858   9.478 -0.1865 -0.1901 -0.0256
13767SOL    HW141879   3.505   6.816   9.502  0.1475 -0.9601 -0.1920
13767SOL    HW241880   3.597   6.930   9.541 -1.1168  0.0936 -0.1823
13768SOL     OW41881   8.506   4.566   3.915  0.5998  0.5104  0.2948
13768SOL    HW141882   8.597   4.538   3.908  1.0071  1.4006  1.7579
13768SOL    HW241883   8.477   4.575   3.824  1.6869 -0.6341 -0.1924
13769SOL     OW41884   4.855   7.334   8.250  0.2123  0.0297 -0.4869
13769SOL    HW141885   4.815   7.396   8.190  2.0184  0.5710 -1.1998
13769SOL    HW241886   4.795   7.260   8.253 -0.9599  0.9257 -1.2484
13770SOL     OW41887   7.361   9.243   6.295  0.2746 -0.1317 -0.1081
13770SOL    HW141888   7.428   9.257   6.363 -0.3549  0.7629  0.3457
13770SOL    HW241889   7.320   9.161   6.321 -0.0376  0.2559  0.6847
13771SOL     OW41890   4.178   6.388   9.424 -0.2185  0.1761  0.4865
13771SOL    HW141891   4.095   6.367   9.468  0.0704 -0.7606  0.6011
13771SOL    HW241892   4.159   6.377   9.331 -0.0996 -0.5499  0.5380
13772SOL     OW41893   1.235   7.451   6.862  0.3495 -0.4455 -0.0710
13772SOL    HW141894   1.282   7.440   6.779  1.2279 -0.0503  0.3572
13772SOL    HW241895   1.205   7.363   6.884 -0.9873 -0.3648 -1.4208
13773SOL     OW41896   7.383   1.761   9.107 -0.0151  0.1056  0.2592
13773SOL    HW141897   7.294   1.738   9.133  0.0508  0.1421  0.5265
13773SOL    HW241898   7.420   1.805   9.184  0.3169 -0.1413  0.2466
13774SOL     OW41899   6.180   3.731   7.444 -0.4509 -0.3793  0.1173
13774SOL    HW141900   6.260   3.689   7.475 -1.4330 -1.4858  1.2672
13774SOL    HW241901   6.116   3.713   7.512 -1.5379  0.9989 -0.4969
13775SOL     OW41902   2.089   6.997   7.383  0.0551  0.1265 -0.2082
13775SOL    HW141903   2.001   6.961   7.377  0.6321 -1.9640  2.1834
13775SOL    HW241904   2.136   6.959   7.308 -0.5043 -0.6201 -0.1936
13776SOL     OW41905   3.347   0.220   8.042 -0.3157  0.1074  0.7110
13776SOL    HW141906   3.253   0.232   8.056 -0.7242 -0.9803 -0.9438
13776SOL    HW241907   3.387   0.286   8.100 -1.9745 -0.8110  3.0890
13777SOL     OW41908   9.793   3.307   9.282 -0.0292  0.3150 -0.7493
13777SOL    HW141909   9.737   3.376   9.247  0.3709  0.8058 -0.4330
13777SOL    HW241910   9.881   3.331   9.256  0.2190  0.4300  0.1699
13778SOL     OW41911   1.486   4.435   7.369  0.0521 -0.1771 -0.2240
13778SOL    HW141912   1.440   4.515   7.345  1.3223  0.0630 -2.1081
13778SOL    HW241913   1.438   4.401   7.445 -3.4474 -0.1664 -2.1914
13779SOL     OW41914   4.118   7.493   5.373 -0.0891  0.5646 -0.2561
13779SOL    HW141915   4.101   7.585   5.389 -0.0626  0.4435  0.4722
13779SOL    HW241916   4.091   7.479   5.282 -0.1244  1.2775 -0.3546
13780SOL     OW41917   6.959   1.276   7.584  0.3323  0.4846 -0.0403
13780SOL    HW141918   7.038   1.302   7.632 -0.1779  0.4158  0.8794
13780SOL    HW241919   6.892   1.338   7.613 -0.2951 -0.3257  0.2971
13781SOL     OW41920   6.622   9.334   8.994  0.0831  0.6424 -0.3509
13781SOL    HW141921   6.592   9.262   9.050 -0.3866  0.6214 -0.6271
13781SOL    HW241922   6.611   9.301   8.905 -0.4324  1.1727 -0.4894
13782SOL     OW41923   5.984   4.974   4.292 -0.1012 -0.7765  0.3584
13782SOL    HW141924   5.979   5.069   4.306 -1.0976 -0.9498  1.3653
13782SOL    HW241925   6.069   4.949   4.328 -0.6101 -0.4971  1.8690
13783SOL     OW41926   4.971   9.165   3.465  0.0260 -0.0867  0.0144
13783SOL    HW141927   5.044   9.216   3.502 -0.8110 -0.8230  3.0202
13783SOL    HW241928   4.910   9.230   3.432  0.1305  0.8040  1.4586
13784SOL     OW41929   1.716   7.295   7.017  0.2449 -0.0732  0.1348
13784SOL    HW141930   1.797   7.245   7.011  1.3629  1.2469  2.8078
13784SOL    HW241931   1.745   7.384   7.037 -1.8326  0.8739 -0.8025
13785SOL     OW41932   1.651   6.602   0.036 -0.2447 -0.4152  0.4411
13785SOL    HW141933   1.560   6.595   0.007  0.3387  1.0622 -2.1352
13785SOL    HW241934   1.680   6.688   0.002  2.3027 -1.1767  0.4777
13786SOL     OW41935   6.808   3.921   0.858  0.0237  0.4848  0.2906
13786SOL    HW141936   6.848   4.006   0.875 -0.9033  1.2566 -1.1781
13786SOL    HW241937   6.760   3.901   0.938 -0.3342  1.6984  0.4002
13787SOL     OW41938   6.404   6.243   0.688 -0.3068 -0.2732  0.4761
13787SOL    HW141939   6.431   6.179   0.622  0.1672  0.8486 -0.4518
13787SOL    HW241940   6.308   6.240   0.685 -0.2915 -0.6857  0.1891
13788SOL     OW41941   7.804   6.579   3.514  0.0987  0.2768 -0.4099
13788SOL    HW141942   7.735   6.513   3.526  0.4805  0.1724  1.5775
13788SOL    HW241943   7.884   6.527   3.500  0.4930  0.2100  1.6677
13789SOL     OW41944   7.952   4.434   4.669 -0.3691  0.2092  0.2503
13789SOL    HW141945   7.998   4.370   4.615  0.3018 -0.0292  1.0957
13789SOL    HW241946   7.916   4.496   4.605 -0.6828 -0.7592 -0.5551
13790SOL     OW41947   5.235   8.567   7.578  0.6836  0.3555 -0.1070
13790SOL    HW141948   5.177   8.643   7.575  1.8959  1.3711  1.0533
13790SOL    HW241949   5.183   8.500   7.622 -0.6772  0.2135 -1.8152
13791SOL     OW41950   4.219   6.035   6.606 -0.3683 -0.1516 -0.3822
13791SOL    HW141951   4.209   5.985   6.525  0.1566  1.8664 -1.7633
13791SOL    HW241952   4.132   6.073   6.622 -0.3841 -0.2753 -0.1629
13792SOL     OW41953   7.632   6.161   6.579 -0.3473 -0.2621  0.7230
13792SOL    HW141954   7.628   6.255   6.594 -0.3421 -0.1870  0.2709
13792SOL    HW241955   7.540   6.134   6.568 -0.2752 -0.0335 -0.7328
13793SOL     OW41956   4.339   3.514   9.628  0.7343 -0.1157 -0.7175
13793SOL    HW141957   4.420   3.539   9.583  1.2231 -0.6159 -0.1461
13793SOL    HW241958   4.368   3.488   9.715 -0.3083  1.7632  0.2342
13794SOL     OW41959   3.216   6.028   6.538 -0.1742  0.1215 -0.2883
13794SOL    HW141960   3.245   5.973   6.610  1.0222 -0.8009 -1.4197
13794SOL    HW241961   3.194   6.112   6.579  0.0265 -0.5228  1.1850
13795SOL     OW41962   9.775   1.995   1.637 -0.9714 -0.1259  0.5065
13795SOL    HW141963   9.842   2.030   1.696 -1.1468  0.6626  0.2482
13795SOL    HW241964   9.748   1.912   1.678 -1.0345  0.3704  1.4964
13796SOL     OW41965   3.089   2.927   4.158  0.1303  0.3903  0.0637
13796SOL    HW141966   3.170   2.882   4.130  0.7767  1.8135 -0.4346
13796SOL    HW241967   3.094   2.928   4.253  0.9638  0.8972  0.0260
13797SOL     OW41968   8.781   5.674   7.573 -0.2196 -0.7205  0.1631
13797SOL    HW141969   8.763   5.681   7.667  0.4867  0.0053  0.2615
13797SOL    HW241970   8.864   5.627   7.567 -1.1396 -2.3684 -0.1962
13798SOL     OW41971   9.799   4.457   1.771  0.2187  0.1801 -0.1196
13798SOL    HW141972   9.836   4.477   1.857 -0.2111 -0.6908  0.2818
13798SOL    HW241973   9.818   4.535   1.718  2.4485 -0.1224  0.1084
13799SOL     OW41974   5.824   3.114   8.874  0.0003  0.4804 -0.4992
13799SOL    HW141975   5.912   3.116   8.911  0.2324 -2.7994 -0.6097
13799SOL    HW241976   5.769   3.160   8.938  1.0516 -1.5662  2.0567
13800SOL     OW41977   2.486   0.610   9.808 -0.2553  0.0872 -0.3173
13800SOL    HW141978   2.529   0.692   9.834 -0.7941  0.3773 -0.3296
13800SOL    HW241979   2.544   0.542   9.841  0.4637  0.4738 -0.7519
13801SOL     OW41980   3.836   2.262   3.810 -0.2124 -0.4722  0.2901
13801SOL    HW141981   3.847   2.250   3.904  0.0052 -0.2401  0.2976
13801SOL    HW241982   3.902   2.206   3.770  1.6376  1.5085  0.3552
13802SOL     OW41983   6.381   8.399   1.216 -0.1769  0.0301  0.0040
13802SOL    HW141984   6.389   8.481   1.265  1.6268 -0.5476  0.7395
13802SOL    HW241985   6.296   8.363   1.244 -0.5274  1.1582  0.4193
13803SOL     OW41986   0.346   1.495   2.315 -0.5169 -0.3180 -0.5231
13803SOL    HW141987   0.310   1.490   2.404 -3.0030 -0.6557 -1.4879
13803SOL    HW241988   0.384   1.409   2.300 -0.0294 -0.2424  0.2087
13804SOL     OW41989   7.452   8.782   9.405  0.3523  0.2081 -0.2368
13804SOL    HW141990   7.358   8.771   9.419  0.4677 -1.9111 -0.8121
13804SOL    HW241991   7.488   8.799   9.492 -0.4280 -0.0961  0.1545
13805SOL     OW41992   0.313   7.437   7.215 -0.6127  0.0123 -0.1353
13805SOL    HW141993   0.260   7.501   7.263 -0.5882  0.9855 -1.3782
13805SOL    HW241994   0.352   7.486   7.144  0.5863 -1.0820 -0.2668
13806SOL     OW41995   4.071   1.354   2.554 -0.3520 -0.1884  0.2122
13806SOL    HW141996   4.063   1.288   2.485 -1.1258  1.1905 -1.0719
13806SOL    HW241997   4.159   1.391   2.542 -0.4591  0.0006  0.0036
13807SOL     OW41998   1.854   3.496   8.832 -0.4269  0.0035  0.5496
13807SOL    HW141999   1.843   3.436   8.905 -0.7238  0.6848  1.0841
13807SOL    HW242000   1.792   3.466   8.766  1.8386 -2.3690 -0.6466
13808SOL     OW42001   9.165   5.604   3.157  0.1789  0.4117 -0.3840
13808SOL    HW142002   9.114   5.565   3.228 -0.4492  0.9490 -0.5381
13808SOL    HW242003   9.193   5.689   3.190  0.6188  0.2984 -0.4584
13809SOL     OW42004   9.304   2.590   6.726 -0.3523 -0.1326 -0.0944
13809SOL    HW142005   9.263   2.648   6.663  1.3811 -0.1334 -1.2840
13809SOL    HW242006   9.322   2.510   6.677 -1.9006 -1.3974  1.2852
13810SOL     OW42007   7.854   2.444   3.046  0.5452  0.4562  0.1051
13810SOL    HW142008   7.847   2.351   3.068  0.6178  0.8033  1.7611
13810SOL    HW242009   7.943   2.454   3.012  0.2329 -0.2301 -0.9308
13811SOL     OW42010   2.060   5.269   0.728 -0.1279 -0.0482 -0.8346
13811SOL    HW142011   2.103   5.266   0.813 -2.7918 -1.8927  0.6009
13811SOL    HW242012   2.130   5.250   0.665  1.5692 -0.6239  1.1114
13812SOL     OW42013   7.980   0.936   4.483  0.2363 -0.5087 -0.4513
13812SOL    HW142014   8.054   0.966   4.431 -0.6611 -0.5635 -1.8038
13812SOL    HW242015   7.905   0.941   4.424 -0.9527  0.0195  1.0284
13813SOL     OW42016   9.420   0.836   1.053 -0.7969  0.0369  0.0088
13813SOL    HW142017   9.429   0.777   1.127  0.7708  0.6894  0.3837
13813SOL    HW242018   9.476   0.799   0.985 -1.3048  0.0680 -0.4309
13814SOL     OW42019   8.305   9.698   4.490  0.6607  0.1442  0.1510
13814SOL    HW142020   8.343   9.617   4.524  0.4459  0.3464  0.9042
13814SOL    HW242021   8.285   9.750   4.569 -1.5568 -0.1266 -0.1575
13815SOL     OW42022   5.248   7.491   5.501  0.3474 -0.7321  0.2830
13815SOL    HW142023   5.157   7.508   5.523  0.6256 -1.2883  2.0481
13815SOL    HW242024   5.251   7.491   5.405 -1.5708 -1.0722  0.1974
13816SOL     OW42025   1.282   0.686   4.609  0.3069 -0.7657 -0.1577
13816SOL    HW142026   1.267   0.592   4.623 -0.8310 -0.2541  2.7528
13816SOL    HW242027   1.360   0.705   4.660 -0.9836  0.2870  1.5321
13817SOL     OW42028   2.264   6.538   3.240  0.9481  0.4130 -0.5344
13817SOL    HW142029   2.197   6.605   3.224 -1.2510 -1.0948  1.5972
13817SOL    HW242030   2.231   6.461   3.194  1.1528 -0.3584  0.5719
13818SOL     OW42031   7.206   2.496   2.179 -0.4218  0.7018  0.0882
13818SOL    HW142032   7.148   2.420   2.174 -1.0538  1.0883  1.1032
13818SOL    HW242033   7.148   2.568   2.205  0.6357  0.9045  2.0612
13819SOL     OW42034   3.293   8.503   7.303  0.7247  0.4591  0.1229
13819SOL    HW142035   3.252   8.564   7.241 -0.5056 -1.8466 -1.5128
13819SOL    HW242036   3.280   8.543   7.389 -1.9705  1.5123 -0.6556
13820SOL     OW42037   9.357   7.893   2.905  0.1172  0.1371  0.0203
13820SOL    HW142038   9.294   7.928   2.841 -1.9000 -0.6320  1.4797
13820SOL    HW242039   9.314   7.816   2.941  2.0957 -0.6404  0.8547
13821SOL     OW42040   6.821   7.074   6.665 -0.3296 -0.1419 -0.0350
13821SOL    HW142041   6.850   7.100   6.578 -1.4473 -0.2309 -0.4495
13821SOL    HW242042   6.869   6.994   6.683  2.0516  1.3129  0.6441
13822SOL     OW42043   3.018   5.306   8.773  1.1809  0.9749  0.2960
13822SOL    HW142044   2.947   5.358   8.810 -1.4756 -2.9953  1.4537
13822SOL    HW242045   3.008   5.315   8.678 -2.0150 -0.5055  0.3411
13823SOL     OW42046   9.830   6.180   4.416 -0.0725  0.5861 -0.5045
13823SOL    HW142047   9.849   6.209   4.326  1.3170  0.0001 -0.4226
13823SOL    HW242048   9.741   6.145   4.411  0.2327 -0.0903 -1.8216
13824SOL     OW42049   6.806   4.168   4.788  0.3101  0.2815  0.0344
13824SOL    HW142050   6.784   4.245   4.736 -0.2873 -0.4913 -0.8923
13824SOL    HW242051   6.880   4.128   4.742  0.4307  0.1419  0.3444
13825SOL     OW42052   5.646   9.513   8.079  0.0894  0.5133 -0.6394
13825SOL    HW142053   5.709   9.568   8.124 -0.0013  1.1628 -1.2841
13825SOL    HW242054   5.675   9.423   8.096 -2.2936  0.3860  4.2884
13826SOL     OW42055   5.173   1.248   2.519  0.0619 -0.4255  0.0120
13826SOL    HW142056   5.206   1.307   2.450 -2.1421 -0.2887 -1.0131
13826SOL    HW242057   5.147   1.169   2.472 -0.3595 -0.8138  0.8849
13827SOL     OW42058   7.989   1.954   5.979 -0.8154 -0.3832  0.3477
13827SOL    HW142059   7.960   2.042   5.956  0.7867  0.5217  1.5814
13827SOL    HW242060   8.068   1.968   6.031 -0.4758 -2.5651  0.4953
13828SOL     OW42061   2.882   9.338   8.860  0.3837 -0.5341 -0.5246
13828SOL    HW142062   2.805   9.301   8.904  0.3439 -0.1779 -0.2925
13828SOL    HW242063   2.939   9.367   8.931  1.1581 -1.6463 -0.6752
13829SOL     OW42064   0.937   7.848   1.230 -0.2174 -0.6168 -0.0741
13829SOL    HW142065   0.936   7.849   1.326  0.4350  0.1309 -0.0643
13829SOL    HW242066   1.024   7.815   1.207 -0.7020 -1.7247 -0.4326
13830SOL     OW42067   5.511   3.458   6.871  0.3330  0.5401 -0.4320
13830SOL    HW142068   5.581   3.394   6.881  0.7973  0.8387 -1.6804
13830SOL    HW242069   5.556   3.543   6.866 -0.0252  0.6590 -2.1517
13831SOL     OW42070   7.019   8.133   4.435 -0.3334  0.4736  0.0365
13831SOL    HW142071   7.091   8.183   4.395  0.1612  1.3498  1.9296
13831SOL    HW242072   7.054   8.045   4.447  0.7786  1.1070  1.7281
13832SOL     OW42073   4.512   9.061   3.625 -0.2799  0.7319  0.4383
13832SOL    HW142074   4.493   9.061   3.531  0.2489 -0.1005  0.3157
13832SOL    HW242075   4.606   9.045   3.631 -0.5458 -0.8121  1.1218
13833SOL     OW42076   2.102   5.542   6.661 -0.4513  0.0700  0.1835
13833SOL    HW142077   2.142   5.626   6.636 -1.7489  0.6986  0.1093
13833SOL    HW242078   2.008   5.557   6.651 -0.8086 -0.8749  1.7834
13834SOL     OW42079   2.521   4.264   7.799 -0.3246 -0.0440 -0.1885
13834SOL    HW142080   2.427   4.263   7.815 -0.2944  0.3265  0.0463
13834SOL    HW242081   2.535   4.203   7.727 -0.7701  0.0480 -0.3541
13835SOL     OW42082   1.388   5.327   9.662 -0.6091  0.4355  0.1830
13835SOL    HW142083   1.393   5.359   9.752 -0.0509  0.5471  0.1158
13835SOL    HW242084   1.479   5.315   9.635 -0.7935 -0.5615 -0.0273
13836SOL     OW42085   6.347   7.662   3.852  0.7079 -0.3084 -0.2565
13836SOL    HW142086   6.431   7.624   3.824  0.9848  1.1501 -1.5991
13836SOL    HW242087   6.371   7.726   3.919  0.4758 -1.0753  0.5588
13837SOL     OW42088   5.043   5.152   6.400  0.2279  0.5969 -0.0070
13837SOL    HW142089   5.006   5.122   6.484  0.5075 -0.0211 -0.0989
13837SOL    HW242090   5.118   5.205   6.425  1.5370 -1.2359  0.1160
13838SOL     OW42091   4.132   8.585   6.886 -0.1519 -0.0077 -0.2721
13838SOL    HW142092   4.180   8.519   6.837 -0.2669 -0.0245 -0.3640
13838SOL    HW242093   4.184   8.600   6.965 -1.4788 -2.1824  1.1101
13839SOL     OW42094   8.685   8.929   5.195 -0.8499 -0.1137 -0.0306
13839SOL    HW142095   8.625   8.996   5.163 -0.8302  0.4331  1.0243
13839SOL    HW242096   8.691   8.945   5.289  0.3144 -0.6744  0.0140
13840SOL     OW42097   7.323   2.039   3.984 -0.4940 -0.3762  0.2772
13840SOL    HW142098   7.375   1.997   4.053 -1.4837 -3.0512 -0.4728
13840SOL    HW242099   7.255   2.087   4.031 -0.7644 -1.6182  1.2047
13841SOL     OW42100   1.968   9.933   2.066  0.0083  0.2112  0.3639
13841SOL    HW142101   2.047   9.893   2.102 -0.1752  1.0977  1.8359
13841SOL    HW242102   1.988  10.027   2.063 -1.2727  0.5696  1.6441
13842SOL     OW42103   4.855   1.586   9.846 -0.5924  0.2570 -0.0596
13842SOL    HW142104   4.774   1.602   9.798  0.1483 -1.9006 -2.2357
13842SOL    HW242105   4.882   1.498   9.819  1.4285  0.1086  2.1612
13843SOL     OW42106   4.061   1.480   0.650 -0.1424  0.3099 -0.6110
13843SOL    HW142107   4.082   1.523   0.732 -0.7720  0.7693 -0.6874
13843SOL    HW242108   4.047   1.551   0.588  1.2229 -0.0273 -1.3618
13844SOL     OW42109   8.620   8.968   1.615 -0.1372  0.1135  0.6667
13844SOL    HW142110   8.627   8.889   1.561  2.1497 -0.7246  2.0274
13844SOL    HW242111   8.695   9.021   1.589 -1.7934  2.0691 -0.4292
13845SOL     OW42112   9.871   1.140   5.050 -0.1456 -0.8317  0.3874
13845SOL    HW142113   9.805   1.098   4.996 -0.5859 -0.2246  0.4426
13845SOL    HW242114   9.841   1.231   5.059  0.4119 -0.6848  0.8601
13846SOL     OW42115   7.220   4.701   3.370 -0.2220  0.6795 -0.0790
13846SOL    HW142116   7.238   4.795   3.361  0.5379  0.5202 -0.3593
13846SOL    HW242117   7.242   4.681   3.460 -1.2033  0.9308  0.2257
13847SOL     OW42118   7.081   1.749   9.682  0.2653  0.0549 -0.2367
13847SOL    HW142119   7.123   1.687   9.742 -0.0254  0.9066  0.9041
13847SOL    HW242120   7.129   1.831   9.696  0.9391  0.0109 -2.0454
13848SOL     OW42121   1.842   4.230   8.761 -0.0066 -0.3893 -0.0564
13848SOL    HW142122   1.911   4.252   8.824  0.4111 -0.6910 -0.4017
13848SOL    HW242123   1.871   4.271   8.680 -0.5466  0.0047 -0.0560
13849SOL     OW42124   3.512   7.178   8.123 -0.2283 -0.5517  0.0674
13849SOL    HW142125   3.559   7.235   8.185  0.4285  0.6336 -1.4446
13849SOL    HW242126   3.581   7.141   8.068 -0.8255 -1.2636 -0.2088
13850SOL     OW42127   0.198   3.282   4.948 -0.5931 -0.2996  0.2062
13850SOL    HW142128   0.127   3.313   5.004 -1.8634 -0.6391 -1.1647
13850SOL    HW242129   0.173   3.308   4.860  1.0499 -0.3428 -0.3113
13851SOL     OW42130   1.733   0.750   4.178 -0.0456 -0.3541 -0.0746
13851SOL    HW142131   1.727   0.761   4.083 -1.8374 -0.8145 -0.0491
13851SOL    HW242132   1.759   0.659   4.191  3.2692  0.4597 -0.1051
13852SOL     OW42133   8.787   1.324   5.368  0.5672 -0.2978 -0.0071
13852SOL    HW142134   8.767   1.252   5.429 -0.5413  0.6281  0.7698
13852SOL    HW242135   8.701   1.351   5.334  1.1230 -0.3995 -1.5365
13853SOL     OW42136   0.774   5.857   1.665  0.3528 -0.1667  0.2600
13853SOL    HW142137   0.791   5.838   1.757  1.3970 -0.0627  0.1001
13853SOL    HW242138   0.697   5.913   1.666 -0.3798 -1.1649  0.9845
13854SOL     OW42139   2.160   6.370   6.457  0.2899  0.1117  0.3601
13854SOL    HW142140   2.119   6.315   6.524 -0.8359  0.2588 -0.1693
13854SOL    HW242141   2.107   6.450   6.457  0.4768  0.2410 -0.4808
13855SOL     OW42142   5.150   6.756   1.929  0.3348  0.0968 -0.0363
13855SOL    HW142143   5.062   6.733   1.960  0.7001  1.1160  1.9019
13855SOL    HW242144   5.135   6.792   1.841 -1.2500  0.6839  0.4381
13856SOL     OW42145   4.940   6.835   6.690  0.4371 -0.3102  0.1070
13856SOL    HW142146   5.001   6.908   6.705 -1.3297  0.9401  1.6900
13856SOL    HW242147   4.923   6.837   6.596  0.5898  1.2173  0.0721
13857SOL     OW42148   1.445   6.592   3.065  0.5565 -0.0484 -0.3658
13857SOL    HW142149   1.384   6.658   3.098  0.6205  0.1315 -0.6004
13857SOL    HW242150   1.440   6.601   2.970  2.0823  1.0443 -0.3891
13858SOL     OW42151   1.196   4.963   6.579 -0.7940 -0.2724 -0.3069
13858SOL    HW142152   1.147   5.044   6.564  0.4987  0.1372 -2.7085
13858SOL    HW242153   1.263   4.987   6.643 -2.9681 -0.6092  2.2980
13859SOL     OW42154   9.948   5.238   7.626 -0.3002 -0.0419 -0.6709
13859SOL    HW142155   9.958   5.271   7.715  1.6935  0.0009 -0.8655
13859SOL    HW242156   9.907   5.152   7.636  0.1078 -0.1278  0.3073
13860SOL     OW42157   7.162   9.942   0.643  0.0811  0.0978  0.3013
13860SOL    HW142158   7.086   9.940   0.702 -0.0230  1.9882  0.2964
13860SOL    HW242159   7.164   9.855   0.604 -3.5147  0.6067 -1.4248
13861SOL     OW42160   8.442   8.885   5.860  0.4587 -0.0885 -0.5438
13861SOL    HW142161   8.438   8.835   5.941  2.2554  0.3893 -0.1058
13861SOL    HW242162   8.431   8.819   5.791 -1.9347 -0.3796  0.0464
13862SOL     OW42163   2.531   6.518   3.155  0.4167  0.1169  0.5663
13862SOL    HW142164   2.459   6.543   3.213 -1.7202 -0.5657 -1.6027
13862SOL    HW242165   2.504   6.433   3.120  2.3779 -0.2195 -0.2344
13863SOL     OW42166   2.026   1.660   3.565  0.0643  0.5411  0.1067
13863SOL    HW142167   1.951   1.613   3.602 -2.5535  2.7493 -2.0214
13863SOL    HW242168   2.063   1.600   3.501 -0.1982 -0.3965  0.8146
13864SOL     OW42169   1.182   0.228   5.022 -0.0673 -0.5107  0.1273
13864SOL    HW142170   1.244   0.297   5.000 -0.0522 -0.7880 -0.7407
13864SOL    HW242171   1.229   0.173   5.085 -0.0076  0.1464  0.6638
13865SOL     OW42172   5.462   0.717   8.038  0.0684  0.5368 -0.1916
13865SOL    HW142173   5.494   0.634   8.002  1.0350  0.0308  1.7207
13865SOL    HW242174   5.460   0.776   7.963  0.1220 -0.9908 -1.4454
13866SOL     OW42175   2.105   0.400   7.299 -0.4954  0.0020 -0.0925
13866SOL    HW142176   2.110   0.365   7.388  2.3988 -0.4238 -0.3367
13866SOL    HW242177   2.170   0.471   7.297 -1.3813  0.8285 -1.5420
13867SOL     OW42178   4.204   9.696   2.266 -0.0412  0.2503 -0.2795
13867SOL    HW142179   4.235   9.741   2.187  1.9837  1.6656  1.2464
13867SOL    HW242180   4.118   9.736   2.283 -0.5140 -0.0739 -1.7024
13868SOL     OW42181   1.000   2.814   1.896 -0.3327 -0.4457 -0.3264
13868SOL    HW142182   1.022   2.757   1.823 -0.4956  0.6113 -1.2348
13868SOL    HW242183   1.074   2.875   1.902 -1.9045  1.8415 -2.0877
13869SOL     OW42184   5.945   6.436   0.819 -0.1528 -0.1551 -0.5459
13869SOL    HW142185   5.849   6.445   0.821 -0.1738 -0.4743  0.3804
13869SOL    HW242186   5.964   6.375   0.890  0.6989 -0.5472 -1.0964
13870SOL     OW42187   6.800   9.117   5.705  0.1046  0.7340  0.1357
13870SOL    HW142188   6.722   9.127   5.650  0.3819  0.7913 -0.2504
13870SOL    HW242189   6.833   9.029   5.684 -0.0972  0.5374  0.6183
13871SOL     OW42190   3.879   3.492   2.200  0.1166  0.1005 -0.2483
13871SOL    HW142191   3.820   3.507   2.274 -0.4817  1.4920 -0.9847
13871SOL    HW242192   3.821   3.474   2.126  0.6933 -0.6971 -0.5140
13872SOL     OW42193   7.201   1.236   8.988 -0.0098 -0.1535 -0.5011
13872SOL    HW142194   7.132   1.228   8.922  0.7854 -3.1270 -1.0823
13872SOL    HW242195   7.153   1.246   9.071 -1.0405  0.8687 -1.1753
13873SOL     OW42196   8.554   8.560   1.124 -0.3399 -0.5056 -0.0654
13873SOL    HW142197   8.507   8.527   1.201 -0.5797 -2.5562 -1.0159
13873SOL    HW242198   8.544   8.655   1.129  0.3222 -0.4832  2.8332
13874SOL     OW42199   3.821   0.638   9.082  0.3490  0.5365  0.5119
13874SOL    HW142200   3.837   0.718   9.032 -1.0052 -0.2019 -1.1893
13874SOL    HW242201   3.726   0.633   9.090  0.2823 -1.6737 -0.8070
13875SOL     OW42202   9.479   5.838   1.447 -0.0701 -0.5011  0.0316
13875SOL    HW142203   9.469   5.923   1.488  0.1635 -0.1724 -0.5707
13875SOL    HW242204   9.573   5.830   1.430 -0.1493 -0.6524 -0.3696
13876SOL     OW42205   6.579   6.253   2.002 -0.1346 -0.3695  0.5445
13876SOL    HW142206   6.499   6.228   1.956  1.0618 -2.1436 -0.7221
13876SOL    HW242207   6.616   6.169   2.031  1.1189  0.4408  1.3626
13877SOL     OW42208   8.905   2.842   9.644 -0.2341 -0.0536  0.2532
13877SOL    HW142209   8.887   2.794   9.725 -0.1087  0.3938  0.5505
13877SOL    HW242210   8.992   2.881   9.659 -0.1263 -0.1285 -0.1730
13878SOL     OW42211   9.858   7.152   5.835  0.1699 -0.6979  0.4923
13878SOL    HW142212   9.932   7.203   5.802 -0.1960 -1.4702 -1.7281
13878SOL    HW242213   9.830   7.198   5.914  1.3849  1.0858 -0.0508
13879SOL     OW42214   4.534   8.479   8.659 -0.1674  0.0373 -0.0511
13879SOL    HW142215   4.452   8.430   8.669  0.2849 -0.6986  0.1761
13879SOL    HW242216   4.569   8.486   8.747 -0.1781  0.7038 -0.0962
13880SOL     OW42217  -0.008   4.782   0.718 -0.0309 -0.0977 -0.1728
13880SOL    HW142218   0.080   4.749   0.702  0.0646 -0.0679  0.2744
13880SOL    HW242219  -0.034   4.825   0.636  0.5064  0.2054 -0.1835
13881SOL     OW42220   4.066   3.353   4.249  0.0883  0.0175 -0.7173
13881SOL    HW142221   3.987   3.339   4.301  0.3333 -0.6074 -0.5042
13881SOL    HW242222   4.122   3.279   4.271  1.4621  1.3545  0.4610
13882SOL     OW42223   8.108   9.730   7.963  0.0287  0.0594 -0.4845
13882SOL    HW142224   8.029   9.695   8.004  1.3925 -1.9377  0.6379
13882SOL    HW242225   8.142   9.793   8.026  0.1528 -0.2798 -0.2038
13883SOL     OW42226   3.183   7.620   5.950 -0.4490  0.3057  0.4767
13883SOL    HW142227   3.158   7.608   6.041  0.3247  2.0127  0.9622
13883SOL    HW242228   3.158   7.710   5.930 -0.0996  0.1401 -0.8197
13884SOL     OW42229   3.501   9.825   0.197  0.4897  0.4210 -0.1877
13884SOL    HW142230   3.535   9.910   0.170  2.3240 -0.5271 -1.0560
13884SOL    HW242231   3.513   9.822   0.292  0.5228  1.0661 -0.1706
13885SOL     OW42232   8.214   5.267   3.235 -0.1359 -0.0474  0.2077
13885SOL    HW142233   8.241   5.322   3.309 -1.7572  0.9529  0.1037
13885SOL    HW242234   8.174   5.191   3.276 -0.0949  0.0108  0.3592
13886SOL     OW42235   1.435   8.806   1.844  0.0408  0.2132  0.1306
13886SOL    HW142236   1.508   8.791   1.904 -0.8853 -0.7992  1.0364
13886SOL    HW242237   1.467   8.777   1.759  0.2929 -1.4517  0.7537
13887SOL     OW42238   5.883   9.881   6.519 -0.3991  0.2400  0.3095
13887SOL    HW142239   5.789   9.888   6.533 -0.5708 -1.0819 -0.0005
13887SOL    HW242240   5.907   9.960   6.471 -1.5589  0.0442 -0.6408
13888SOL     OW42241   2.643   2.597   6.517  0.3972 -0.2578 -0.1785
13888SOL    HW142242   2.631   2.666   6.452  2.0595 -0.1832 -0.4605
13888SOL    HW242243   2.672   2.644   6.596 -1.4374 -0.3613  0.6044
13889SOL     OW42244   8.103   6.687   8.955  0.2047  0.0644 -0.4545
13889SOL    HW142245   8.175   6.748   8.941 -0.5803  0.8189 -1.3393
13889SOL    HW242246   8.123   6.613   8.898 -0.3977  0.8894 -1.7882
13890SOL     OW42247   8.794   8.499   3.206  0.5620  0.8688  0.7264
13890SOL    HW142248   8.758   8.480   3.293  0.2098 -0.3236  0.3293
13890SOL    HW242249   8.883   8.531   3.224  0.7580 -0.0684  1.4925
13891SOL     OW42250   9.111   6.027   1.662 -0.8717 -0.0516 -0.2116
13891SOL    HW142251   9.131   6.103   1.715 -0.8603  0.3374 -0.7661
13891SOL    HW242252   9.190   6.011   1.611 -1.1980  0.1437 -0.7912
13892SOL     OW42253   9.897   8.696   4.766 -0.7929 -0.4966 -0.2967
13892SOL    HW142254   9.895   8.623   4.828 -0.3281 -1.6581 -1.6034
13892SOL    HW242255   9.991   8.713   4.753 -0.8815 -0.4269 -0.8622
13893SOL     OW42256   6.945   8.536   9.247  0.2329  0.4260 -0.2425
13893SOL    HW142257   6.941   8.558   9.340 -0.5362 -0.0635 -0.1485
13893SOL    HW242258   6.885   8.598   9.206 -1.6165 -1.1198 -0.0300
13894SOL     OW42259   7.779   8.277   9.760  0.3425  0.2924 -0.3773
13894SOL    HW142260   7.745   8.253   9.846 -0.7223  0.4713 -0.7397
13894SOL    HW242261   7.776   8.195   9.710 -1.3038  0.6834 -0.9659
13895SOL     OW42262   1.176   9.172   2.917 -0.6616  0.1842  0.4946
13895SOL    HW142263   1.158   9.081   2.940 -0.0889 -0.5443 -1.7010
13895SOL    HW242264   1.248   9.197   2.974 -2.7028  0.3019  3.2247
13896SOL     OW42265   4.986   3.485   0.539 -0.1733  0.1730  0.0374
13896SOL    HW142266   5.025   3.446   0.461  0.5899  1.4143 -0.2304
13896SOL    HW242267   4.905   3.437   0.552  0.5726 -1.2748 -0.4444
13897SOL     OW42268   7.933   2.705   2.504  0.4570  0.3344 -0.0784
13897SOL    HW142269   7.954   2.763   2.578 -1.1964  1.0434 -0.1182
13897SOL    HW242270   8.011   2.651   2.493  2.3280  2.9354 -0.4059
13898SOL     OW42271   9.844   6.603   4.586 -0.0645  0.4500  0.5174
13898SOL    HW142272   9.796   6.521   4.602  0.7325 -0.2297 -0.4291
13898SOL    HW242273   9.779   6.672   4.599 -1.5478 -0.4707 -1.4721
13899SOL     OW42274   0.467   5.917   7.638  0.0232  0.0139 -0.0756
13899SOL    HW142275   0.481   6.010   7.652 -2.5272  0.2415  1.7716
13899SOL    HW242276   0.407   5.912   7.563 -1.5919  0.0783  1.1548
13900SOL     OW42277   9.558   2.966   2.202  0.4553 -0.0263  0.0114
13900SOL    HW142278   9.582   3.015   2.280  1.3076  0.1343 -0.3429
13900SOL    HW242279   9.581   3.023   2.129 -2.6927  0.9135 -0.3783
13901SOL     OW42280   2.307   1.951   9.771 -0.0773 -0.3878  0.4992
13901SOL    HW142281   2.337   2.030   9.725  2.3938 -2.6068 -2.1411
13901SOL    HW242282   2.217   1.939   9.742 -0.7170  1.6979  1.4380
13902SOL     OW42283   4.418   2.075   7.959  0.2805 -0.1894  0.0237
13902SOL    HW142284   4.514   2.074   7.958  0.3863 -1.2291  2.3684
13902SOL    HW242285   4.396   2.158   8.001  0.2290 -0.4417  0.5090
13903SOL     OW42286   4.785   5.223   1.602  0.3046 -0.1630 -0.2242
13903SOL    HW142287   4.724   5.292   1.630  0.0784 -0.2710 -0.4488
13903SOL    HW242288   4.857   5.227   1.666  0.6755  0.7955 -0.6934
13904SOL     OW42289   9.544   1.568   3.205 -0.3703 -0.2278  0.0570
13904SOL    HW142290   9.593   1.625   3.146  0.6365 -0.9221  0.1998
13904SOL    HW242291   9.452   1.587   3.187 -0.0511  1.0986 -0.2123
13905SOL     OW42292   2.346   6.344   3.539  0.4110 -0.2931  0.4045
13905SOL    HW142293   2.419   6.396   3.572 -0.5563  0.7952  0.8802
13905SOL    HW242294   2.278   6.408   3.519  0.1477 -1.1244 -1.6088
13906SOL     OW42295   7.543   9.197   5.602 -0.2344 -0.1996  0.0292
13906SOL    HW142296   7.583   9.275   5.639  1.9701 -1.0188 -0.4699
13906SOL    HW242297   7.490   9.161   5.673 -0.7345  1.3521  0.4685
13907SOL     OW42298   0.433   6.187   4.060  0.3221  0.5656  0.5943
13907SOL    HW142299   0.477   6.130   3.998 -0.9776  1.6121 -1.4087
13907SOL    HW242300   0.340   6.165   4.051 -0.0465  1.8952  0.9225
13908SOL     OW42301   8.009   7.567   4.844 -0.1129  0.4104 -0.4173
13908SOL    HW142302   8.043   7.495   4.791 -0.9474 -0.7023  0.4958
13908SOL    HW242303   7.919   7.542   4.863 -0.0737  1.1454  0.8622
13909SOL     OW42304   6.324   0.755   7.026 -0.4607 -0.0172  0.2877
13909SOL    HW142305   6.378   0.729   6.952  0.2400 -0.9517  1.0911
13909SOL    HW242306   6.235   0.732   7.000 -0.2847  0.1007 -0.4426
13910SOL     OW42307   3.124   4.571   6.838  0.5792  0.2007 -0.0017
13910SOL    HW142308   3.188   4.540   6.903 -1.7208 -2.1818  1.2834
13910SOL    HW242309   3.073   4.637   6.885  1.0715  1.0011 -0.5546
13911SOL     OW42310   3.173   4.404   0.062 -0.5421 -0.2046  0.3965
13911SOL    HW142311   3.166   4.361  -0.023  0.3714 -2.3406  1.3238
13911SOL    HW242312   3.190   4.332   0.123 -1.7552  1.1899  2.4862
13912SOL     OW42313   5.428   5.092   8.562  0.1850 -0.1600 -0.0691
13912SOL    HW142314   5.407   5.000   8.549 -1.4962  0.5618 -3.5186
13912SOL    HW242315   5.354   5.127   8.612  0.6456 -0.5737  0.9182
13913SOL     OW42316   3.360   6.950   2.056  0.4530  0.3706  0.0089
13913SOL    HW142317   3.413   6.941   2.135 -0.8620  2.7125  1.2941
13913SOL    HW242318   3.294   6.881   2.063  0.7647  0.1247  0.6044
13914SOL     OW42319   4.938   5.225   5.498  0.0169 -0.1735 -0.1183
13914SOL    HW142320   5.016   5.172   5.511 -0.2751 -0.2067  1.7716
13914SOL    HW242321   4.971   5.311   5.471  0.8291  0.1291  1.6654
13915SOL     OW42322   4.356   5.792   0.444 -0.2797  0.1218  0.0046
13915SOL    HW142323   4.431   5.781   0.386 -0.0335 -0.9937  0.5104
13915SOL    HW242324   4.394   5.803   0.531 -0.7008 -0.1409  0.2246
13916SOL     OW42325   8.085   5.603   1.110  0.2161 -0.5857  0.2205
13916SOL    HW142326   8.157   5.561   1.156 -0.7701 -2.3354  0.2466
13916SOL    HW242327   8.069   5.548   1.033 -1.9875 -1.1098  0.9700
13917SOL     OW42328   2.536   9.367   0.651  0.2425 -0.0159  0.4838
13917SOL    HW142329   2.543   9.460   0.630 -1.5668  0.5109  1.9479
13917SOL    HW242330   2.571   9.323   0.573  1.1231  1.8620 -0.2568
13918SOL     OW42331   1.145   8.386   0.611 -0.5683  0.0487 -0.5488
13918SOL    HW142332   1.075   8.321   0.605  1.2075 -2.1699  0.7737
13918SOL    HW242333   1.220   8.343   0.570  0.7862  1.1048  0.6969
13919SOL     OW42334   2.179   0.671   5.420 -0.1437 -0.0408 -0.4024
13919SOL    HW142335   2.119   0.724   5.366  1.2525  1.4308 -0.5847
13919SOL    HW242336   2.241   0.634   5.358 -0.1416 -0.5923 -0.0810
13920SOL     OW42337   2.032   3.549   6.539  0.4755 -0.6259 -0.4635
13920SOL    HW142338   2.119   3.556   6.500  0.2345  0.8017 -0.8056
13920SOL    HW242339   1.973   3.587   6.473 -0.0166  1.1913  0.9293
13921SOL     OW42340   4.181   5.427   9.512  0.1031  0.4137  0.3966
13921SOL    HW142341   4.093   5.462   9.513  0.5237  1.5304 -0.3653
13921SOL    HW242342   4.192   5.387   9.599 -1.7947 -1.4840 -0.1618
13922SOL     OW42343   1.977   8.153   5.127  0.1005 -0.7246 -0.6041
13922SOL    HW142344   2.004   8.186   5.212  1.8676  0.6868 -1.6447
13922SOL    HW242345   1.954   8.061   5.142 -0.8211 -0.1926  1.5850
13923SOL     OW42346   3.086   4.325   2.992 -0.2773 -0.1908  0.1435
13923SOL    HW142347   3.044   4.244   2.963  0.0727 -0.9180  1.5919
13923SOL    HW242348   3.042   4.346   3.074 -0.4246  1.1589 -0.2506
13924SOL     OW42349   5.269   6.165   9.253  0.2756 -0.4579  0.1720
13924SOL    HW142350   5.303   6.109   9.323  0.5633  0.4033  0.7444
13924SOL    HW242351   5.174   6.157   9.260  0.2051  1.1578  2.0189
13925SOL     OW42352   0.963   3.404   8.467  0.3968  0.3435  0.3102
13925SOL    HW142353   0.973   3.415   8.562  0.0690 -1.0829  0.5268
13925SOL    HW242354   1.024   3.468   8.430  0.0573  1.3832  1.4570
13926SOL     OW42355   0.328   6.741   9.412 -0.2793 -0.1660 -0.0976
13926SOL    HW142356   0.253   6.796   9.438 -1.2368 -1.4139 -0.1052
13926SOL    HW242357   0.401   6.776   9.462 -1.3360 -0.2645  1.6089
13927SOL     OW42358   0.630   9.725   0.632  0.5610 -0.4754  0.4002
13927SOL    HW142359   0.633   9.818   0.612  1.0158 -0.3728  0.9027
13927SOL    HW242360   0.539   9.699   0.617  0.4779  0.0051  0.0728
13928SOL     OW42361   1.118   0.624   0.881  0.3037  0.2518 -0.5317
13928SOL    HW142362   1.183   0.661   0.821  1.0078  1.3287  0.8363
13928SOL    HW242363   1.167   0.607   0.961 -1.4030  2.9905  1.2609
13929SOL     OW42364   9.795   4.638   9.365  0.3086 -0.1300 -0.3906
13929SOL    HW142365   9.788   4.606   9.455  1.1200  0.1062 -0.2363
13929SOL    HW242366   9.806   4.732   9.374  0.8633 -0.1613 -0.7130
13930SOL     OW42367   6.614   6.132   8.846 -0.8704 -0.3261 -0.0959
13930SOL    HW142368   6.546   6.193   8.876 -1.7918 -0.0250 -2.5538
13930SOL    HW242369   6.688   6.188   8.824 -0.4479 -0.4807  0.8726
13931SOL     OW42370   9.921   6.812   5.171 -0.3643 -0.2173 -0.1967
13931SOL    HW142371   9.887   6.776   5.253 -0.8282  0.4403 -0.0950
13931SOL    HW242372   9.922   6.907   5.185  1.4439 -0.2032 -0.2231
13932SOL     OW42373   6.985   3.544   2.668  0.4818 -0.4631  0.1214
13932SOL    HW142374   7.012   3.635   2.657  0.1122 -0.2073  1.2674
13932SOL    HW242375   7.043   3.508   2.734 -0.6984 -0.4548  1.1964
13933SOL     OW42376   9.297   4.758   0.816  0.0641 -0.0262 -0.1203
13933SOL    HW142377   9.369   4.819   0.833  1.7401 -2.0160  0.3294
13933SOL    HW242378   9.247   4.799   0.745  0.0444  2.6715  1.3141
13934SOL     OW42379   9.719   4.202   4.826  0.2579  0.8909 -0.1977
13934SOL    HW142380   9.695   4.295   4.826  0.3790  0.9435  0.9403
13934SOL    HW242381   9.814   4.202   4.839  0.1314  0.6036  0.7898
13935SOL     OW42382   4.709   8.687   6.679 -0.6634  0.1840  0.5796
13935SOL    HW142383   4.793   8.642   6.669 -0.3267  0.7367  0.8359
13935SOL    HW242384   4.733   8.778   6.698 -1.3066  0.1464  1.6680
13936SOL     OW42385   3.262   1.490   0.840  0.0164  0.2092  0.1427
13936SOL    HW142386   3.187   1.549   0.850 -0.8917 -0.7931 -0.5001
13936SOL    HW242387   3.255   1.430   0.913 -0.6107 -0.7054 -0.6368
13937SOL     OW42388   8.187   8.701   6.374  0.0634 -0.0868  0.2680
13937SOL    HW142389   8.131   8.746   6.438  0.9306  1.8887 -0.2681
13937SOL    HW242390   8.144   8.715   6.290  1.1326  1.1566 -0.1024
13938SOL     OW42391   2.071   6.108   5.904  0.3714 -0.6646  0.2118
13938SOL    HW142392   2.121   6.164   5.845  0.5191  0.1773  1.1098
13938SOL    HW242393   2.126   6.030   5.915  0.3981 -0.7783 -0.6458
13939SOL     OW42394   4.464   5.978   6.056  0.1883  0.2834  0.2766
13939SOL    HW142395   4.381   5.933   6.042  0.0843  0.9679 -1.6444
13939SOL    HW242396   4.530   5.914   6.031  0.1633  0.2228  0.3663
13940SOL     OW42397   9.720   2.808   3.290 -0.0198 -0.3828  0.6106
13940SOL    HW142398   9.647   2.757   3.326  0.1528 -0.3205  1.0642
13940SOL    HW242399   9.751   2.861   3.364  0.5140 -0.4402  0.4359
13941SOL     OW42400   6.931   7.729   1.607  0.4498  0.1429  0.4270
13941SOL    HW142401   6.974   7.773   1.680  1.1168  2.0452 -1.0471
13941SOL    HW242402   6.847   7.774   1.598  0.4155 -0.0069 -0.0285
13942SOL     OW42403   9.639   5.732   3.550  0.1959 -0.2403 -0.2897
13942SOL    HW142404   9.565   5.695   3.598  0.5274 -0.8804 -0.2522
13942SOL    HW242405   9.684   5.655   3.515 -0.3746  0.2113 -2.1380
13943SOL     OW42406   4.160   7.518   0.578  0.7450  0.1857 -0.0422
13943SOL    HW142407   4.086   7.482   0.529  1.8167 -0.5988 -1.1482
13943SOL    HW242408   4.185   7.450   0.640 -0.0021  0.8033  0.9657
13944SOL     OW42409   5.742   1.779   8.299  0.6940  0.1495 -0.3218
13944SOL    HW142410   5.726   1.786   8.205 -2.0902 -4.2386 -0.4644
13944SOL    HW242411   5.660   1.809   8.339  1.6903  1.5523  0.7840
13945SOL     OW42412   9.336   4.894   0.016  0.7263  0.5056 -0.1245
13945SOL    HW142413   9.299   4.948   0.086  0.5602 -0.0054  0.1834
13945SOL    HW242414   9.327   4.948  -0.062 -0.3120  0.5572  0.0115
13946SOL     OW42415   8.929   4.724   9.245 -0.1625 -0.1397  0.2026
13946SOL    HW142416   8.975   4.773   9.177  0.0752  0.0107  0.4664
13946SOL    HW242417   8.955   4.767   9.327  0.0767 -0.7352  0.4426
13947SOL     OW42418   4.074   8.793   6.138  0.5115 -0.3713  0.4526
13947SOL    HW142419   4.072   8.888   6.127  0.7626 -0.2732  1.1970
13947SOL    HW242420   4.006   8.776   6.204  0.0038 -0.7801 -0.1714
13948SOL     OW42421   7.646   7.192   5.347  0.2672  0.2570 -0.6419
13948SOL    HW142422   7.683   7.107   5.373 -0.9551 -0.6156 -1.6036
13948SOL    HW242423   7.671   7.202   5.256  1.8815  1.8010 -0.0621
13949SOL     OW42424   8.005   4.528   8.425  0.4602 -0.5050 -0.2283
13949SOL    HW142425   8.085   4.477   8.432  0.6515 -0.4775 -1.9063
13949SOL    HW242426   8.034   4.614   8.393 -0.2578 -0.5437 -0.9986
13950SOL     OW42427   4.234   5.231   5.912  0.4681 -0.3541  0.2500
13950SOL    HW142428   4.245   5.297   5.980  0.8987 -0.2565  0.0903
13950SOL    HW242429   4.140   5.231   5.893 -0.2297 -2.6203  3.0688
13951SOL     OW42430   9.772   3.619   9.506  0.1017  0.3411 -0.3417
13951SOL    HW142431   9.804   3.708   9.516  0.1288  0.4114 -1.0323
13951SOL    HW242432   9.681   3.623   9.536  0.4064  0.3660  0.6219
13952SOL     OW42433   7.741   4.614   1.543  0.0106  1.1996  0.1495
13952SOL    HW142434   7.733   4.697   1.496 -1.0244 -0.5629 -3.1000
13952SOL    HW242435   7.834   4.591   1.534 -0.5246 -0.2267 -3.4736
13953SOL     OW42436   3.033   6.261   4.646 -0.2237 -0.0756 -0.5351
13953SOL    HW142437   3.074   6.209   4.577 -1.5785 -1.9822 -0.0010
13953SOL    HW242438   2.994   6.335   4.601 -1.4754 -1.5165 -1.9333
13954SOL     OW42439   5.904   1.353   8.284 -0.5732 -0.6625 -0.7012
13954SOL    HW142440   5.884   1.397   8.367 -0.7641  0.8095 -1.4885
13954SOL    HW242441   5.840   1.282   8.277 -1.0284 -0.3328  0.0610
13955SOL     OW42442   8.565   1.726   9.945 -0.0117  0.2346  0.2686
13955SOL    HW142443   8.537   1.665   9.877  2.1342 -0.0706 -0.4329
13955SOL    HW242444   8.485   1.772   9.971 -1.0636 -0.3222 -1.7783
13956SOL     OW42445   5.872   6.274   2.124  0.6294  0.1270  0.6687
13956SOL    HW142446   5.859   6.223   2.045 -0.6927 -0.9784  1.5547
13956SOL    HW242447   5.786   6.313   2.142  1.6310  2.9564 -0.1178
13957SOL     OW42448   9.052   1.781   2.270  0.6591 -0.7044  0.4757
13957SOL    HW142449   8.957   1.795   2.269  0.5978 -1.1205  0.0383
13957SOL    HW242450   9.065   1.701   2.219  1.5425  1.3434 -2.8580
13958SOL     OW42451   9.266   8.303   5.122 -0.0538  0.0824  0.2903
13958SOL    HW142452   9.322   8.242   5.074 -0.1611  0.7707 -0.7263
13958SOL    HW242453   9.319   8.382   5.133 -0.6121  0.5282 -0.1630
13959SOL     OW42454   4.590   0.922   4.787 -0.3627  0.1172 -0.1745
13959SOL    HW142455   4.550   0.967   4.862 -0.4975 -0.1296 -0.0987
13959SOL    HW242456   4.675   0.892   4.821 -0.0069  0.8292 -0.3977
13960SOL     OW42457   2.144   4.280   8.899 -0.4195 -0.3738  0.5391
13960SOL    HW142458   2.088   4.319   8.966 -1.9554  0.3864 -1.1165
13960SOL    HW242459   2.190   4.354   8.859  0.0087 -0.7515  0.3125
13961SOL     OW42460   9.646   4.446   7.917 -0.4249  0.1319  0.6189
13961SOL    HW142461   9.572   4.462   7.975  0.0043  2.1464  0.6736
13961SOL    HW242462   9.631   4.358   7.882 -1.7478 -0.3082  2.2035
13962SOL     OW42463   7.729   3.841   6.327  0.6372 -0.4773  0.5079
13962SOL    HW142464   7.755   3.750   6.313 -0.8111 -0.6826 -1.2004
13962SOL    HW242465   7.797   3.892   6.284  2.2061 -0.6021  2.6305
13963SOL     OW42466   2.845   0.520   8.920  0.1651  0.1294  0.1138
13963SOL    HW142467   2.851   0.516   9.015  0.7627  0.8894  0.1204
13963SOL    HW242468   2.820   0.610   8.901 -2.0153 -0.5157 -0.3809
13964SOL     OW42469   1.174   3.858   0.262  0.1728 -0.2596  0.2637
13964SOL    HW142470   1.155   3.804   0.185  1.2859 -0.7046  0.2930
13964SOL    HW242471   1.262   3.892   0.246 -0.4707  1.5188  0.2801
13965SOL     OW42472   4.577   8.338   4.679 -0.0962  0.1901 -0.1230
13965SOL    HW142473   4.562   8.291   4.597 -0.4144 -2.0486  1.1364
13965SOL    HW242474   4.641   8.285   4.726  0.2688  1.5563  1.0003
13966SOL     OW42475   0.907   7.318   7.162 -0.4665  0.3141  0.0200
13966SOL    HW142476   0.863   7.315   7.077  0.0938 -0.3456 -0.2669
13966SOL    HW242477   1.000   7.306   7.140 -0.1741  1.3257  0.6327
13967SOL     OW42478   8.623   8.446   4.351 -0.1736  0.2531 -0.1281
13967SOL    HW142479   8.706   8.438   4.304 -0.3593  1.3772 -0.6653
13967SOL    HW242480   8.627   8.531   4.394 -0.0071 -0.7300  1.9299
13968SOL     OW42481   0.081   9.022   2.604  0.1754  0.3855 -0.0768
13968SOL    HW142482   0.084   8.932   2.573 -0.4170  0.5684 -0.7058
13968SOL    HW242483   0.055   9.015   2.696 -0.3562 -0.0741 -0.2516
13969SOL     OW42484   5.830   2.714   3.250 -0.0576  0.8226  0.1765
13969SOL    HW142485   5.821   2.754   3.337  1.3355  2.2612 -0.2936
13969SOL    HW242486   5.767   2.761   3.196  2.0844  3.1175 -0.5526
13970SOL     OW42487   2.191   2.419   5.718  0.3257 -0.0115  0.0766
13970SOL    HW142488   2.131   2.358   5.674  1.0692  0.0327 -1.0400
13970SOL    HW242489   2.254   2.444   5.650  2.6719 -1.3815  1.5911
13971SOL     OW42490   5.390   6.996   7.041  0.5197 -0.1985 -0.2694
13971SOL    HW142491   5.365   6.937   7.112 -0.1117 -0.9204 -1.0689
13971SOL    HW242492   5.312   7.049   7.026  0.4203 -0.5126 -0.8750
13972SOL     OW42493   3.338   6.508   7.871 -0.5186  0.2196 -0.7735
13972SOL    HW142494   3.286   6.446   7.923 -1.8984  1.4973 -0.5512
13972SOL    HW242495   3.413   6.528   7.927  0.4765 -1.9179 -1.2389
13973SOL     OW42496   6.905   9.432   0.159 -0.0980 -0.1599  0.0721
13973SOL    HW142497   6.978   9.372   0.146 -1.4848 -1.6582 -1.2859
13973SOL    HW242498   6.885   9.425   0.253  0.8261 -0.5290  0.2482
13974SOL     OW42499   3.553   7.781   3.718 -0.2180  0.1805 -0.2010
13974SOL    HW142500   3.647   7.777   3.703  0.1572  0.3811  1.8570
13974SOL    HW242501   3.532   7.698   3.760 -0.8475  0.4047 -0.0615
13975SOL     OW42502   0.173   5.565   0.608  0.3207  0.0436  0.2203
13975SOL    HW142503   0.183   5.490   0.666  1.3188 -0.2130 -0.2483
13975SOL    HW242504   0.248   5.559   0.549  0.4953  1.4840  0.2558
13976SOL     OW42505   1.664   3.208   0.623 -0.2056  0.3538 -0.3497
13976SOL    HW142506   1.729   3.148   0.661  1.0442  1.6855 -0.3345
13976SOL    HW242507   1.635   3.164   0.543  1.0850 -0.0391 -0.6262
13977SOL     OW42508   7.715   8.595   2.409 -0.4797  0.0648  1.2127
13977SOL    HW142509   7.799   8.549   2.418 -1.3734 -1.4233  2.5276
13977SOL    HW242510   7.735   8.687   2.427  1.1488  0.0343 -0.2209
13978SOL     OW42511   7.632   2.536   2.918  0.6021  0.6627  0.5326
13978SOL    HW142512   7.566   2.527   2.987  1.3368 -0.8766  1.0793
13978SOL    HW242513   7.715   2.515   2.961  1.4506  2.2731 -0.2112
13979SOL     OW42514   5.877   2.805   9.134  0.1591  0.2550  0.0000
13979SOL    HW142515   5.787   2.804   9.102  0.0408  2.8493  0.0970
13979SOL    HW242516   5.881   2.732   9.195 -2.1855  0.7069  0.7892
13980SOL     OW42517   8.820   4.227   8.524 -0.6598 -0.1385  0.0574
13980SOL    HW142518   8.830   4.161   8.592  0.2919 -1.4196 -1.2732
13980SOL    HW242519   8.760   4.188   8.461 -0.7144  0.6021 -0.3652
13981SOL     OW42520   4.753   4.600   4.123  0.0573 -0.0164  0.5680
13981SOL    HW142521   4.738   4.658   4.197  1.0046  0.9443  0.0377
13981SOL    HW242522   4.686   4.533   4.131 -0.5171  0.6650  1.6941
13982SOL     OW42523   5.657   5.727   8.640 -0.1868  0.0049  0.1958
13982SOL    HW142524   5.649   5.668   8.565  0.8185  1.6175 -1.2728
13982SOL    HW242525   5.740   5.772   8.626 -1.4311  2.6128  0.5618
13983SOL     OW42526   2.805   7.576   7.810  0.7570  0.3655  0.2543
13983SOL    HW142527   2.877   7.523   7.777  0.3255 -0.3289  0.4037
13983SOL    HW242528   2.804   7.561   7.904  0.3342  0.2610  0.2351
13984SOL     OW42529   5.593   0.567   5.541 -0.0210  0.9575 -0.0099
13984SOL    HW142530   5.620   0.550   5.451  1.2472 -0.3989  0.5756
13984SOL    HW242531   5.660   0.626   5.575 -0.4757  1.4328  0.0590
13985SOL     OW42532   1.729   0.762   5.874  0.0810 -0.2174  0.2109
13985SOL    HW142533   1.722   0.710   5.953 -1.0351 -1.3727 -0.6187
13985SOL    HW242534   1.775   0.842   5.902  0.7069 -1.0732  1.7625
13986SOL     OW42535   5.434   1.633  -0.004  0.2501 -0.3679  0.4075
13986SOL    HW142536   5.341   1.650   0.013 -0.0873 -0.1347 -1.4021
13986SOL    HW242537   5.477   1.717   0.013  0.2125 -0.5954  1.6874
13987SOL     OW42538   0.479   6.792   6.731 -0.4805 -0.2137  0.3092
13987SOL    HW142539   0.440   6.874   6.762 -1.0321  0.3049 -1.6107
13987SOL    HW242540   0.416   6.725   6.755 -0.2451 -0.0313  1.4864
13988SOL     OW42541   8.979   7.507   6.723 -0.5216 -0.4151  0.2839
13988SOL    HW142542   9.056   7.489   6.777  0.8011  1.3699 -0.9081
13988SOL    HW242543   8.907   7.514   6.787  0.2608 -2.0123  1.4281
13989SOL     OW42544   2.821   2.993   0.925 -0.3565 -0.0569  0.1955
13989SOL    HW142545   2.873   3.009   0.845  0.7372 -0.1214  0.8695
13989SOL    HW242546   2.828   2.899   0.940 -1.1123 -0.1485  0.0167
13990SOL     OW42547   2.321   0.741   9.624 -0.0831  1.0786  0.3040
13990SOL    HW142548   2.269   0.665   9.596  2.5127  0.2418 -3.0182
13990SOL    HW242549   2.394   0.703   9.672  0.8790  1.4441 -0.8118
13991SOL     OW42550   4.188   3.864   0.143  0.4164  0.2095 -0.4244
13991SOL    HW142551   4.225   3.952   0.152  1.8501 -0.2749 -1.2414
13991SOL    HW242552   4.117   3.861   0.207  0.8842  1.6750  0.2053
13992SOL     OW42553   2.236   6.338   2.642  0.4354  0.0498 -0.1451
13992SOL    HW142554   2.220   6.244   2.629 -0.8572  0.3540 -0.9364
13992SOL    HW242555   2.183   6.360   2.719 -0.1804  0.3462 -0.6427
13993SOL     OW42556   2.985   0.644   0.729 -0.6468 -0.1131 -0.1398
13993SOL    HW142557   2.959   0.572   0.786  0.6270 -1.5432 -1.2477
13993SOL    HW242558   3.035   0.703   0.786 -0.1586 -1.0441  0.4213
13994SOL     OW42559   4.253   6.345   6.749  0.0719  0.0510  0.0233
13994SOL    HW142560   4.161   6.372   6.747 -0.1037 -0.5415 -1.2920
13994SOL    HW242561   4.253   6.264   6.799 -0.0449  0.2754  0.3942
13995SOL     OW42562   2.474   0.057   4.438  0.5898 -0.2220  0.4926
13995SOL    HW142563   2.509  -0.029   4.461  2.4944  0.1981 -0.5707
13995SOL    HW242564   2.426   0.043   4.356  1.8925 -0.1315 -0.3257
13996SOL     OW42565   7.443   4.740   5.407  0.1768 -0.5870  0.2554
13996SOL    HW142566   7.467   4.675   5.473  0.7385  0.1317  0.7781
13996SOL    HW242567   7.380   4.797   5.451  0.9857  0.2399  0.3889
13997SOL     OW42568   3.611   1.781   9.581 -0.2841  0.1781  0.3288
13997SOL    HW142569   3.526   1.744   9.606  0.1955 -1.4433 -0.2677
13997SOL    HW242570   3.653   1.803   9.664 -1.1900  0.8089  0.6365
13998SOL     OW42571   2.893   2.061   0.235 -0.0156 -0.1758 -0.3885
13998SOL    HW142572   2.843   2.124   0.287  0.9585 -0.0861  0.4590
13998SOL    HW242573   2.981   2.098   0.230  0.3031 -0.9612 -0.7620
13999SOL     OW42574   6.936   3.683   1.986  0.0664 -0.3978 -0.0209
13999SOL    HW142575   6.935   3.596   2.027  0.2162 -0.0455  0.7481
13999SOL    HW242576   6.980   3.739   2.050  0.1519  0.2071 -0.5969
14000SOL     OW42577   8.073   0.046   3.924  0.0183 -0.0260  0.2981
14000SOL    HW142578   8.063   0.056   3.829  1.6317 -0.6623  0.0164
14000SOL    HW242579   7.989   0.072   3.960 -0.3212  1.1895 -1.2408
14001SOL     OW42580   4.627   8.687   8.111 -0.3399 -0.2285 -0.9034
14001SOL    HW142581   4.608   8.778   8.133 -0.7704 -0.3251 -0.8615
14001SOL    HW242582   4.717   8.673   8.142 -1.0811 -0.5123  1.3678
14002SOL     OW42583   5.591   6.720   3.969 -0.0189 -0.2288  0.0230
14002SOL    HW142584   5.529   6.783   3.932  0.9067  2.2216  2.2604
14002SOL    HW242585   5.668   6.726   3.912 -0.5149 -0.5718 -0.6940
14003SOL     OW42586   5.737   9.516   5.606  0.5100  0.6013 -0.2920
14003SOL    HW142587   5.731   9.608   5.581 -2.8101  0.4721 -0.5398
14003SOL    HW242588   5.821   9.508   5.651  1.8256  3.2531 -1.9949
14004SOL     OW42589   8.537   8.139   9.542 -0.2463  0.3578  0.1813
14004SOL    HW142590   8.623   8.106   9.515 -1.2209 -2.2829  0.0122
14004SOL    HW242591   8.502   8.182   9.465  0.8542  1.4086  0.2315
14005SOL     OW42592   0.868   2.543   9.780  0.2260 -0.0800  0.4064
14005SOL    HW142593   0.909   2.581   9.702 -0.8332 -0.4669 -0.3634
14005SOL    HW242594   0.900   2.596   9.852  0.1384  1.1928 -0.4549
14006SOL     OW42595   9.490   7.587   9.422 -0.1544  0.1699  0.4322
14006SOL    HW142596   9.479   7.682   9.412 -2.2353 -0.0171  0.5108
14006SOL    HW242597   9.497   7.555   9.332  0.1856  0.3493  0.3916
14007SOL     OW42598   0.471   3.360   5.632  0.4363 -0.1675  0.0451
14007SOL    HW142599   0.537   3.427   5.645  0.6847 -0.4217  0.1132
14007SOL    HW242600   0.456   3.323   5.720  0.0677  0.0147  0.0614
14008SOL     OW42601   6.008   5.778   7.554  0.0495 -0.4395  0.4447
14008SOL    HW142602   5.981   5.869   7.566 -1.0982 -0.6751 -0.1483
14008SOL    HW242603   6.004   5.740   7.642  3.1109  0.6772  1.1877
14009SOL     OW42604   8.928   2.491   1.042 -0.2846  0.1228  0.8069
14009SOL    HW142605   8.843   2.459   1.072 -1.0745 -0.8183 -2.1264
14009SOL    HW242606   8.991   2.428   1.077 -1.0679 -0.5823  0.9880
14010SOL     OW42607   8.842   3.234   2.719  0.5162 -0.2583  0.0358
14010SOL    HW142608   8.793   3.202   2.794 -2.1944  1.3083 -0.9407
14010SOL    HW242609   8.843   3.161   2.657 -0.2951 -0.4450  0.2345
14011SOL     OW42610   7.695   2.081   0.364 -0.1415 -0.1884 -0.3080
14011SOL    HW142611   7.664   2.009   0.309  0.1477 -1.6263  1.2828
14011SOL    HW242612   7.788   2.087   0.344 -0.1120 -0.4548 -0.2624
14012SOL     OW42613   7.078   8.513   1.802  0.0024 -0.6105  0.1449
14012SOL    HW142614   7.146   8.495   1.868  1.4939  0.5594 -0.9773
14012SOL    HW242615   7.074   8.434   1.748  0.5276 -0.6692  0.1879
14013SOL     OW42616   4.715   3.910   9.090  0.6390 -0.3426 -0.4625
14013SOL    HW142617   4.703   3.932   9.182 -0.2934  0.5192 -0.7631
14013SOL    HW242618   4.768   3.830   9.090  1.5734  0.2576  0.7737
14014SOL     OW42619   4.253   7.643   8.615  0.0104  0.0724  0.2127
14014SOL    HW142620   4.244   7.565   8.560 -0.2122 -0.1245  0.5212
14014SOL    HW242621   4.325   7.692   8.576 -0.8546  0.4928 -0.9176
14015SOL     OW42622   1.491   2.271   6.000  0.2102 -0.0927  0.2065
14015SOL    HW142623   1.488   2.176   6.001 -0.7314 -0.0735  1.7398
14015SOL    HW242624   1.566   2.292   5.944 -0.1794 -1.6957 -0.9915
14016SOL     OW42625   5.752   9.408   9.562 -0.2849  0.7951 -0.4479
14016SOL    HW142626   5.740   9.316   9.587  0.4794  0.7262 -0.3195
14016SOL    HW242627   5.779   9.451   9.643  2.1713  0.5762 -1.0950
14017SOL     OW42628   1.051   0.261   4.771 -0.0717 -0.1482  0.0779
14017SOL    HW142629   1.097   0.213   4.839  2.8826  0.3187 -1.4118
14017SOL    HW242630   1.033   0.196   4.703  0.2270  0.0610 -0.2047
14018SOL     OW42631   1.832   6.625   5.122 -0.4261 -0.8449 -0.5794
14018SOL    HW142632   1.765   6.593   5.061 -1.6578  1.2124 -0.3729
14018SOL    HW242633   1.808   6.586   5.206 -0.5451 -1.2071 -0.7771
14019SOL     OW42634   9.614   7.841   9.479  0.2659 -0.4988  0.1813
14019SOL    HW142635   9.562   7.914   9.513  0.8817 -1.3930  3.3294
14019SOL    HW242636   9.693   7.839   9.533  0.9625 -2.5602 -0.7905
14020SOL     OW42637   9.733   0.280   6.304  0.2274  0.1625  0.2667
14020SOL    HW142638   9.748   0.191   6.271  1.2491 -0.2704  1.7823
14020SOL    HW242639   9.698   0.267   6.392 -3.4697  1.2595 -0.8888
14021SOL     OW42640   0.541   5.363   7.033  0.4588 -0.0284  0.5006
14021SOL    HW142641   0.455   5.353   6.992  1.0880  0.3015 -0.9759
14021SOL    HW242642   0.541   5.301   7.106 -0.8608 -0.3399  0.2577
14022SOL     OW42643   2.541   3.593   2.767 -0.0539 -0.2152  0.2181
14022SOL    HW142644   2.451   3.568   2.787 -0.2298  0.4374  0.2561
14022SOL    HW242645   2.536   3.685   2.742  0.5721 -0.2306  0.0029
14023SOL     OW42646   5.262   7.606   2.760  0.3895 -0.3085  0.7194
14023SOL    HW142647   5.301   7.518   2.756  0.8621 -0.0775  0.2064
14023SOL    HW242648   5.326   7.663   2.719  0.0607  0.2789  1.0046
14024SOL     OW42649   1.829   3.161   9.332  0.1654 -0.1248  0.0361
14024SOL    HW142650   1.842   3.222   9.405 -0.4781 -0.4602  0.4452
14024SOL    HW242651   1.738   3.175   9.306  0.4189  0.0462 -0.7584
14025SOL     OW42652   0.199   1.356   3.894 -0.4832  0.9067 -0.3973
14025SOL    HW142653   0.199   1.415   3.969 -1.8980  2.8101 -1.7654
14025SOL    HW242654   0.196   1.268   3.931  1.7408  1.6341  1.7413
14026SOL     OW42655   8.197   3.036   0.769 -0.1702  0.5475  0.3570
14026SOL    HW142656   8.276   3.088   0.761  1.0136 -1.0692  0.9555
14026SOL    HW242657   8.141   3.086   0.829  1.7646  0.2449  2.5902
14027SOL     OW42658   3.812   9.461   5.692 -0.1147  0.3531  0.2566
14027SOL    HW142659   3.871   9.389   5.672 -1.7668 -1.0355  0.1254
14027SOL    HW242660   3.736   9.419   5.733 -0.8058  2.1121  0.8721
14028SOL     OW42661   4.861   0.953   1.146 -0.6317  0.3545  0.0213
14028SOL    HW142662   4.813   0.871   1.157 -0.4943  0.0614 -1.3130
14028SOL    HW242663   4.917   0.938   1.069  1.0004  0.9765  1.0446
14029SOL     OW42664   2.015   7.312   5.639  0.6717  0.3829  0.4446
14029SOL    HW142665   2.078   7.371   5.678 -0.9518  1.5871  1.3666
14029SOL    HW242666   2.019   7.233   5.693  0.3543  1.0202  1.4282
14030SOL     OW42667   0.568   9.495   6.708  0.6506  0.6769 -0.8213
14030SOL    HW142668   0.530   9.457   6.787  2.9240  0.2682  0.1531
14030SOL    HW242669   0.493   9.527   6.658 -0.8329  2.1494  2.1060
14031SOL     OW42670   7.751   7.587   7.912 -0.7524  0.1883  0.0782
14031SOL    HW142671   7.658   7.602   7.927 -0.5254  1.5177  0.2970
14031SOL    HW242672   7.788   7.571   7.999 -0.1189  3.8592  0.6385
14032SOL     OW42673   9.268   8.707   5.847 -0.0637 -0.3689  0.7676
14032SOL    HW142674   9.258   8.783   5.790 -1.3231 -2.7326 -2.5081
14032SOL    HW242675   9.192   8.709   5.904 -0.1772  0.7041  0.5932
14033SOL     OW42676   7.327   5.513   7.120  0.4190 -0.0974  0.1872
14033SOL    HW142677   7.414   5.475   7.117  0.4096 -0.0866 -0.2968
14033SOL    HW242678   7.336   5.591   7.175  0.4231 -0.8199  1.2394
14034SOL     OW42679   8.215   3.030   9.401  0.2568 -0.3383 -0.0169
14034SOL    HW142680   8.247   3.046   9.490  0.5986  1.4679 -0.4156
14034SOL    HW242681   8.146   2.964   9.411 -0.7770  0.9363  1.8071
14035SOL     OW42682   6.122   6.990   9.790  0.3227  0.3617  0.2251
14035SOL    HW142683   6.183   7.030   9.853  0.5656 -1.9844  1.5960
14035SOL    HW242684   6.037   6.996   9.833  0.0247  1.1078 -0.4422
14036SOL     OW42685   7.360   0.157   1.210  0.5627 -0.5507 -0.5407
14036SOL    HW142686   7.421   0.086   1.190  1.4068  0.5114 -1.9343
14036SOL    HW242687   7.273   0.115   1.205  1.0577 -1.5779 -0.9197
14037SOL     OW42688   6.902   0.876   5.000 -0.3333  0.0724 -0.0470
14037SOL    HW142689   6.943   0.948   4.952 -0.8642  0.4531  0.0694
14037SOL    HW242690   6.947   0.876   5.084 -1.4731  1.3746  0.6043
14038SOL     OW42691   9.212   7.002   9.307 -0.0454 -0.1927  0.0983
14038SOL    HW142692   9.175   7.060   9.241  0.0500  0.0777  0.2793
14038SOL    HW242693   9.139   6.987   9.368 -0.2547 -0.7786 -0.2873
14039SOL     OW42694   7.569   2.234   0.152  0.9718 -0.3240 -0.1137
14039SOL    HW142695   7.607   2.249   0.238  0.6593  0.4977 -0.1119
14039SOL    HW242696   7.575   2.139   0.139  1.3141 -0.4143  0.6695
14040SOL     OW42697   6.859   0.467   8.081  0.3179  0.4355 -0.0785
14040SOL    HW142698   6.925   0.403   8.055  0.1503  0.6340 -1.0337
14040SOL    HW242699   6.822   0.431   8.162 -0.4984 -1.2599 -1.1282
14041SOL     OW42700   2.270   6.880   9.538  0.4210 -0.2890 -0.5046
14041SOL    HW142701   2.345   6.912   9.587  0.1950 -1.5459  0.7592
14041SOL    HW242702   2.198   6.937   9.565  0.8859  0.9228 -1.7263
14042SOL     OW42703   9.311   7.231   8.326 -0.4804  0.6892 -0.0257
14042SOL    HW142704   9.252   7.288   8.376 -0.1452  0.2001  0.9569
14042SOL    HW242705   9.258   7.155   8.305 -0.6327  0.9110 -0.4596
14043SOL     OW42706   8.156   6.216   1.441 -0.3089 -0.1829  0.3194
14043SOL    HW142707   8.078   6.162   1.432 -1.3424  1.2910  0.0542
14043SOL    HW242708   8.214   6.186   1.371 -1.7008  0.3972 -1.1372
14044SOL     OW42709   1.340   6.184   2.557  0.3954  0.1929 -0.0810
14044SOL    HW142710   1.314   6.149   2.471  0.4104 -0.0823  0.0239
14044SOL    HW242711   1.432   6.209   2.546 -0.2932  2.6037 -0.9022
14045SOL     OW42712   9.074   8.259   9.780  0.1500 -0.0779 -0.2178
14045SOL    HW142713   9.063   8.309   9.861 -0.1110 -2.0789  1.0634
14045SOL    HW242714   9.161   8.219   9.788 -0.5794 -1.6960 -0.0599
14046SOL     OW42715   0.447   2.351   6.962  0.1653  0.0862 -0.1755
14046SOL    HW142716   0.519   2.410   6.941  0.4608 -0.7663 -1.6277
14046SOL    HW242717   0.417   2.318   6.878 -1.8625  0.3194  0.4064
14047SOL     OW42718   3.806   8.935   0.912  0.4746  0.1919 -0.1909
14047SOL    HW142719   3.811   8.904   1.002 -1.4607 -1.1507 -0.4851
14047SOL    HW242720   3.786   9.029   0.919  0.3300  0.0899  0.7602
14048SOL     OW42721   2.783   7.152   4.705 -0.1934  0.2071  0.7963
14048SOL    HW142722   2.738   7.216   4.760  1.1338  1.2681  0.6887
14048SOL    HW242723   2.862   7.129   4.753 -0.4578 -1.0907  0.6552
14049SOL     OW42724   4.677   0.102   2.710 -0.2393  0.5050  0.2984
14049SOL    HW142725   4.625   0.181   2.724 -1.3188 -0.0720 -0.2233
14049SOL    HW242726   4.639   0.038   2.771 -0.1020  0.0877 -0.0521
14050SOL     OW42727   8.004   0.183   0.313 -0.1600  0.3596  0.6394
14050SOL    HW142728   7.924   0.188   0.260 -0.2404 -1.2455  0.5737
14050SOL    HW242729   8.013   0.090   0.334  1.6575  0.5327  0.7255
14051SOL     OW42730   2.111   8.394   7.735  0.3993  0.0133  0.0534
14051SOL    HW142731   2.078   8.402   7.825  2.8472 -2.4467  1.2895
14051SOL    HW242732   2.185   8.455   7.731  1.3491 -1.0923  0.3049
14052SOL     OW42733   3.447   6.178   8.098 -0.4842 -0.4937 -0.3366
14052SOL    HW142734   3.452   6.246   8.030  0.1045 -1.8953 -1.7674
14052SOL    HW242735   3.381   6.117   8.066 -1.7796 -0.0837  1.4562
14053SOL     OW42736   1.873   6.826   7.427  0.0417 -0.3876 -0.2788
14053SOL    HW142737   1.788   6.801   7.391  0.1871  0.4237 -1.2378
14053SOL    HW242738   1.913   6.743   7.456 -2.1223 -0.5687  2.6953
14054SOL     OW42739   5.281   1.154   6.510 -0.1139 -0.0751  0.1495
14054SOL    HW142740   5.291   1.215   6.438 -0.1261 -1.0599 -0.7141
14054SOL    HW242741   5.188   1.130   6.509  0.4089 -2.4349 -1.5472
14055SOL     OW42742   1.064   2.106   4.613 -0.1796  0.7781  0.3303
14055SOL    HW142743   1.010   2.056   4.553  2.5922 -2.9186  0.5075
14055SOL    HW242744   1.134   2.143   4.558 -0.9024  2.5714  0.5529
14056SOL     OW42745   2.132   9.358   1.738  0.0933 -0.2727  0.0194
14056SOL    HW142746   2.212   9.359   1.791  0.7326 -1.2042 -0.8979
14056SOL    HW242747   2.159   9.394   1.654  0.0254 -2.2991 -0.9197
14057SOL     OW42748   7.873   6.462   9.121 -0.1389  0.0120  0.0888
14057SOL    HW142749   7.961   6.440   9.090 -0.6641 -0.1017 -1.3898
14057SOL    HW242750   7.888   6.519   9.197  1.2051 -0.2689  0.0608
14058SOL     OW42751   4.514   4.067   0.399  0.0411 -0.1215 -0.2584
14058SOL    HW142752   4.471   4.080   0.315 -0.6834 -1.2533 -0.0994
14058SOL    HW242753   4.607   4.072   0.380 -0.0760 -1.5071 -1.3711
14059SOL     OW42754   2.031   0.939   8.426 -0.4162  0.4226 -0.0414
14059SOL    HW142755   2.125   0.945   8.443 -0.4092  0.1044  0.0326
14059SOL    HW242756   1.998   0.880   8.493 -0.6644  0.5113 -0.0862
14060SOL     OW42757   7.059   8.652   6.063  0.3466  0.2330 -0.1839
14060SOL    HW142758   7.076   8.686   5.976  0.6538 -0.0313 -0.2314
14060SOL    HW242759   7.050   8.729   6.119  2.0197  0.3892 -0.1009
14061SOL     OW42760   2.570   0.559   2.015 -0.3642 -0.4771 -0.3542
14061SOL    HW142761   2.480   0.530   1.999  0.2836 -2.7580 -0.2353
14061SOL    HW242762   2.574   0.578   2.108 -0.6258 -0.7601 -0.2849
14062SOL     OW42763   1.662   4.716   4.621  0.0261 -0.1448  0.0807
14062SOL    HW142764   1.745   4.718   4.667  1.1023 -2.4340 -1.5616
14062SOL    HW242765   1.621   4.634   4.649 -0.8459  0.0910 -0.4593
14063SOL     OW42766   6.144   4.349   1.469  1.0148  0.1808  0.6544
14063SOL    HW142767   6.075   4.375   1.408  1.2013 -0.4301  0.1700
14063SOL    HW242768   6.182   4.271   1.430  1.4321  0.0328  1.3406
14064SOL     OW42769   7.125   9.755   4.455  0.5246 -0.4197  0.0455
14064SOL    HW142770   7.178   9.678   4.477  2.2136  0.4461 -0.7692
14064SOL    HW242771   7.035   9.724   4.457  0.9408 -1.7139  2.5444
14065SOL     OW42772   2.243   7.356   0.242  0.1604  0.0408 -0.1168
14065SOL    HW142773   2.218   7.349   0.150  1.1458  1.4021 -0.5286
14065SOL    HW242774   2.307   7.286   0.255  0.6474  0.3666 -0.7136
14066SOL     OW42775   5.241   7.137   0.982 -0.3520  0.4237  0.2742
14066SOL    HW142776   5.150   7.149   1.009 -0.0302  1.3515  0.9803
14066SOL    HW242777   5.289   7.206   1.028  0.8016 -0.4371  0.3897
14067SOL     OW42778   6.184   7.041   4.136 -0.2363  0.2547 -0.4706
14067SOL    HW142779   6.170   7.084   4.220  0.8793  0.3445 -0.3228
14067SOL    HW242780   6.261   6.985   4.149  0.5994  1.0533 -1.7000
14068SOL     OW42781   6.811   0.771   0.640 -0.1714  0.0937  0.5635
14068SOL    HW142782   6.876   0.796   0.575 -0.5818  0.5371  0.3180
14068SOL    HW242783   6.833   0.680   0.663 -0.0773 -0.0942 -0.2538
14069SOL     OW42784   2.844   9.070   4.517 -0.0412 -0.3885  0.2010
14069SOL    HW142785   2.826   8.985   4.476  0.6500  0.0581 -1.1248
14069SOL    HW242786   2.889   9.048   4.598 -1.5437 -1.3262  0.8217
14070SOL     OW42787   4.886   3.715   1.781  0.1985  0.8746  0.3029
14070SOL    HW142788   4.911   3.805   1.763 -0.2809  1.0368  0.4240
14070SOL    HW242789   4.793   3.720   1.806  0.2951  0.4099  0.7860
14071SOL     OW42790   7.368   7.246   5.857 -0.1892 -0.0542  0.0791
14071SOL    HW142791   7.275   7.223   5.861 -0.5904  1.4536 -0.0461
14071SOL    HW242792   7.401   7.196   5.782 -1.3680  0.8945 -1.1342
14072SOL     OW42793   6.409   5.632   7.866 -0.0375  0.4125  0.4674
14072SOL    HW142794   6.409   5.687   7.787  1.4568  1.9005  1.4284
14072SOL    HW242795   6.336   5.665   7.918 -1.3688 -0.9308 -0.4743
14073SOL     OW42796   5.136   3.474   1.097 -0.4817 -0.2577  0.5818
14073SOL    HW142797   5.213   3.429   1.131 -0.4600 -0.1030  0.7416
14073SOL    HW242798   5.116   3.429   1.015  0.7986  0.8051 -0.3384
14074SOL     OW42799   4.964   3.285   9.286 -0.0440  0.1077 -0.0582
14074SOL    HW142800   4.982   3.220   9.354  0.0105 -0.3207 -0.4736
14074SOL    HW242801   5.007   3.250   9.208 -0.2716  0.4959 -0.3611
14075SOL     OW42802   9.545   5.823   4.512  0.0411  0.2974  0.6225
14075SOL    HW142803   9.475   5.879   4.547 -0.0877 -0.7655  2.1240
14075SOL    HW242804   9.615   5.828   4.577  0.9862  0.5488 -0.3817
14076SOL     OW42805   4.352   9.153   2.660  0.1889 -0.5242  0.2374
14076SOL    HW142806   4.399   9.070   2.658 -0.1780 -0.7220 -0.6425
14076SOL    HW242807   4.260   9.128   2.665 -0.0275 -0.2223 -1.6589
14077SOL     OW42808   0.142   6.822   0.745 -0.2699  0.1171  0.2953
14077SOL    HW142809   0.056   6.779   0.749 -0.0772 -0.2637  0.3580
14077SOL    HW242810   0.185   6.782   0.669 -0.1530  0.3196  0.2553
14078SOL     OW42811   3.281   7.859   2.208 -0.4318  0.5399  0.2004
14078SOL    HW142812   3.200   7.849   2.158  0.0706  0.3938 -0.6057
14078SOL    HW242813   3.277   7.948   2.243  0.0419  1.3445 -1.6685
14079SOL     OW42814   3.840   4.763   5.466 -0.0219 -0.0638  0.4636
14079SOL    HW142815   3.935   4.771   5.467 -0.0650  0.4711  0.7112
14079SOL    HW242816   3.815   4.785   5.376  0.1151 -0.5822  0.2959
14080SOL     OW42817   8.176   9.416   9.910 -0.0930 -0.6364 -0.0316
14080SOL    HW142818   8.190   9.328   9.946  4.1842 -0.7017 -1.2789
14080SOL    HW242819   8.106   9.453   9.963  0.2133 -3.6106  2.7417
14081SOL     OW42820   4.854   0.790   8.420 -0.0084 -0.2261 -0.2756
14081SOL    HW142821   4.945   0.808   8.399  0.4617  0.3784  1.9796
14081SOL    HW242822   4.852   0.696   8.441  0.3274 -0.0376  0.6370
14082SOL     OW42823   9.497   4.261   8.969  0.0649  0.5041  0.2398
14082SOL    HW142824   9.496   4.257   8.873 -0.3539 -2.0950  0.3014
14082SOL    HW242825   9.587   4.241   8.994 -0.6331 -2.8880  0.4119
14083SOL     OW42826   0.034   4.059   8.412 -0.3109 -0.5463 -0.3449
14083SOL    HW142827   0.122   4.089   8.430 -0.4739  0.6537 -1.3723
14083SOL    HW242828  -0.001   4.031   8.497  0.4312  0.6573  0.3724
14084SOL     OW42829   9.282   4.900   8.058  0.1937 -0.2982  0.0823
14084SOL    HW142830   9.247   4.924   8.143 -0.8531 -2.8783  0.4708
14084SOL    HW242831   9.228   4.947   7.995  0.0566  0.5140  0.7858
14085SOL     OW42832   7.223   2.966   4.805  0.5129 -0.3480  0.3049
14085SOL    HW142833   7.288   3.037   4.799 -0.0627  0.2641  1.0078
14085SOL    HW242834   7.204   2.942   4.715 -0.1860  1.2577 -0.0099
14086SOL     OW42835   6.784   0.494   9.627 -0.5647 -0.7643  0.4062
14086SOL    HW142836   6.709   0.441   9.602 -0.1003 -1.0872 -0.3282
14086SOL    HW242837   6.804   0.468   9.717 -0.3183 -1.8669  0.0444
14087SOL     OW42838   5.494   2.687   3.620  0.3014 -0.0725  0.4085
14087SOL    HW142839   5.580   2.647   3.607  0.8420  0.7820  1.1980
14087SOL    HW242840   5.504   2.740   3.699 -1.0148 -0.1144  0.6332
14088SOL     OW42841   8.870   8.537   8.262  0.3443 -0.3392  0.1619
14088SOL    HW142842   8.861   8.508   8.171 -2.2175  1.4278 -0.2515
14088SOL    HW242843   8.933   8.609   8.258 -0.6508  0.5200 -0.4474
14089SOL     OW42844   4.102   0.778   8.540  0.1969 -0.1763  0.6569
14089SOL    HW142845   4.139   0.691   8.551 -1.7881 -1.3525 -1.1582
14089SOL    HW242846   4.008   0.763   8.531  0.0488  1.7012 -3.0166
14090SOL     OW42847   7.197   1.756   6.398 -0.3238 -0.4840 -0.1679
14090SOL    HW142848   7.188   1.667   6.362  1.8168 -0.4693 -0.8946
14090SOL    HW242849   7.144   1.810   6.339 -2.5364 -1.3575  0.9081
14091SOL     OW42850   2.018   0.299   8.436 -0.1002  0.3258  0.1454
14091SOL    HW142851   2.010   0.395   8.432  1.9027  0.4747 -2.3677
14091SOL    HW242852   2.076   0.283   8.511 -0.6245  1.0184  0.7218
14092SOL     OW42853   3.573   0.136   6.353  0.1627  0.0386 -0.2167
14092SOL    HW142854   3.540   0.218   6.316 -0.0614 -0.0680 -0.2595
14092SOL    HW242855   3.563   0.147   6.447  0.2456  0.1079 -0.2159
14093SOL     OW42856   7.623   0.685   8.281  0.3657 -0.0876  0.3335
14093SOL    HW142857   7.702   0.647   8.243  0.9350 -0.7171  2.0661
14093SOL    HW242858   7.653   0.763   8.327 -0.0661 -0.1794  0.7794
14094SOL     OW42859   6.349   5.837   4.488  0.0439 -0.0792  0.0807
14094SOL    HW142860   6.379   5.915   4.534 -0.2384  0.9079 -1.3377
14094SOL    HW242861   6.265   5.862   4.452 -0.7295 -1.5416  0.7868
14095SOL     OW42862   5.903   1.136   2.102  0.7025 -0.3858 -0.5139
14095SOL    HW142863   5.986   1.109   2.141  0.3039  0.3558  0.9350
14095SOL    HW242864   5.915   1.228   2.081 -0.8567  0.8745  3.2382
14096SOL     OW42865   1.273   9.222   1.890  0.3641 -0.6490  0.5491
14096SOL    HW142866   1.214   9.172   1.946  1.0592 -2.1009  0.0733
14096SOL    HW242867   1.326   9.154   1.846  1.1371  0.5175 -0.3850
14097SOL     OW42868   2.159   5.989   2.495  0.1559 -0.2609 -0.0586
14097SOL    HW142869   2.131   6.039   2.418  0.2325 -2.2483 -1.4434
14097SOL    HW242870   2.249   5.964   2.475 -0.6586 -3.0568 -0.6055
14098SOL     OW42871   1.155   8.170   6.069 -0.0857  0.4637  0.6048
14098SOL    HW142872   1.201   8.143   6.148  0.1067 -0.1425  0.2885
14098SOL    HW242873   1.122   8.258   6.089  0.6938  0.6608  1.0455
14099SOL     OW42874   1.839   4.854   8.899  0.0229 -0.0339  0.3025
14099SOL    HW142875   1.802   4.801   8.828 -0.6148  0.4826  0.2416
14099SOL    HW242876   1.917   4.894   8.861 -0.5568  0.5941 -0.2593
14100SOL     OW42877   8.225   7.227   7.708  0.1780  0.5457  0.0606
14100SOL    HW142878   8.141   7.227   7.755 -1.4157 -0.3906 -2.5594
14100SOL    HW242879   8.262   7.140   7.725  0.7516  1.0259  1.3711
14101SOL     OW42880   7.008   5.484   6.754 -0.2393  0.1662  0.4318
14101SOL    HW142881   6.971   5.495   6.666 -0.9224 -0.8182  0.5939
14101SOL    HW242882   7.082   5.425   6.741  0.6286  1.2346  0.2944
14102SOL     OW42883   8.919   0.763   5.736 -0.0157  0.0067 -0.5896
14102SOL    HW142884   8.934   0.744   5.644 -0.8125  1.4342 -1.0333
14102SOL    HW242885   8.875   0.685   5.770  0.7075 -0.7242 -1.2745
14103SOL     OW42886   4.064   5.801   4.709 -0.4641  0.4464 -0.5189
14103SOL    HW142887   4.008   5.724   4.716 -0.5579  0.6664  1.9073
14103SOL    HW242888   4.023   5.866   4.766  0.5399  1.7290 -1.1861
14104SOL     OW42889   1.679   1.119   0.914  0.0489  0.2051  0.6931
14104SOL    HW142890   1.775   1.123   0.917  0.1133 -1.3236  1.3973
14104SOL    HW242891   1.660   1.068   0.835 -0.1105 -0.8844  1.4174
14105SOL     OW42892   1.385   0.193   8.557  0.0961  0.5117 -0.8415
14105SOL    HW142893   1.448   0.266   8.559 -0.4743  1.1408 -3.0538
14105SOL    HW242894   1.379   0.170   8.464 -1.2189 -1.0801 -0.3904
14106SOL     OW42895   7.601   0.042   5.924  0.4311  0.6844  0.0350
14106SOL    HW142896   7.629   0.111   5.984  1.3678  0.6991 -0.3925
14106SOL    HW242897   7.658   0.052   5.847 -0.6186  0.5578 -0.7866
14107SOL     OW42898   3.909   5.497   2.809  0.3622  0.1539  0.0811
14107SOL    HW142899   3.903   5.402   2.799  0.6724  0.2418 -1.1593
14107SOL    HW242900   3.993   5.520   2.769 -0.4066  1.1019 -1.0687
14108SOL     OW42901   6.061   8.951   4.247  0.2722 -0.1388 -0.0631
14108SOL    HW142902   6.053   9.005   4.168 -0.6733 -1.6270 -1.0398
14108SOL    HW242903   6.140   8.899   4.233 -0.9937 -1.9097 -1.0688
14109SOL     OW42904   0.783   6.708   4.307  0.2673 -0.1378  0.0818
14109SOL    HW142905   0.731   6.711   4.388  0.2665 -1.4054  0.1560
14109SOL    HW242906   0.858   6.765   4.325 -1.1045  1.7976 -0.0653
14110SOL     OW42907   3.557   9.634   6.851 -0.1007  0.3802  0.6750
14110SOL    HW142908   3.635   9.618   6.904  1.0871  0.0481 -1.0890
14110SOL    HW242909   3.537   9.548   6.812 -2.1074  0.1733  2.0217
14111SOL     OW42910   0.645   3.391   9.672  0.4035 -0.4949 -0.4587
14111SOL    HW142911   0.737   3.383   9.697  0.6941 -1.9175 -1.7767
14111SOL    HW242912   0.622   3.304   9.638 -1.7129 -0.4515  0.6937
14112SOL     OW42913   8.483   3.515   6.888 -0.0573  0.4171 -0.0802
14112SOL    HW142914   8.467   3.568   6.966 -3.3450 -1.1940  0.5305
14112SOL    HW242915   8.543   3.447   6.917  1.3620  1.6834  0.0761
14113SOL     OW42916   6.045   6.928   4.661  0.3903 -0.2887 -0.0843
14113SOL    HW142917   6.031   7.022   4.669 -0.1521 -0.1171 -2.1961
14113SOL    HW242918   6.111   6.907   4.726 -2.0668  0.8288  3.0534
14114SOL     OW42919   1.493   6.630   0.422  0.3765 -0.2501 -0.1154
14114SOL    HW142920   1.502   6.724   0.408  1.9550 -0.2358  0.7096
14114SOL    HW242921   1.546   6.612   0.500 -0.9508 -1.6329  0.5287
14115SOL     OW42922   5.546   6.148   5.205  0.9339  0.2490  0.2331
14115SOL    HW142923   5.525   6.196   5.125  1.1575  0.3046  0.2051
14115SOL    HW242924   5.640   6.132   5.199  0.4769 -2.3993 -0.9487
14116SOL     OW42925   2.349   9.051   0.310 -0.3811 -0.6025 -0.6296
14116SOL    HW142926   2.276   9.109   0.288 -0.1773 -0.0419  0.1472
14116SOL    HW242927   2.425   9.091   0.270 -0.0540  0.2809  0.7819
14117SOL     OW42928   9.640   1.438   4.192  0.5910 -0.1671  0.0066
14117SOL    HW142929   9.600   1.464   4.109  0.4478 -0.4273 -0.0069
14117SOL    HW242930   9.731   1.465   4.184  0.3682  0.6355  0.1276
14118SOL     OW42931   3.385   7.018   1.501 -0.3069 -0.1255  0.1492
14118SOL    HW142932   3.359   6.965   1.426  0.8058  0.0966 -0.4024
14118SOL    HW242933   3.378   6.958   1.576 -0.5380 -0.6094 -0.2556
14119SOL     OW42934   8.087   8.267   5.449 -0.0846  0.0404 -0.2648
14119SOL    HW142935   7.999   8.276   5.411 -0.2674  2.2093  0.5398
14119SOL    HW242936   8.084   8.184   5.497 -1.6183 -0.0343 -0.4437
14120SOL     OW42937   4.766   8.068   1.201  0.2562 -0.3350 -0.0404
14120SOL    HW142938   4.675   8.076   1.229 -0.2049  0.6011 -1.6844
14120SOL    HW242939   4.802   8.156   1.209  1.0138 -0.6853  0.5392
14121SOL     OW42940   1.380   5.060   6.730  0.3237  0.2974 -0.4790
14121SOL    HW142941   1.363   5.153   6.744  0.6337  0.0740  1.5988
14121SOL    HW242942   1.459   5.042   6.781  0.5927 -1.0125 -1.2986
14122SOL     OW42943   0.502   8.483   8.771  0.8031  0.3543 -0.5537
14122SOL    HW142944   0.516   8.562   8.718 -0.4697  1.3397  0.4874
14122SOL    HW242945   0.460   8.421   8.712 -1.6741  1.8498 -0.5084
14123SOL     OW42946   9.751   2.138   1.332 -0.0551 -0.3677 -0.1481
14123SOL    HW142947   9.730   2.182   1.249 -0.3341  1.0974  0.6617
14123SOL    HW242948   9.678   2.160   1.390 -1.3905 -3.7812 -0.2997
14124SOL     OW42949   0.427   0.762   4.689  0.3808 -0.0519 -0.0587
14124SOL    HW142950   0.339   0.760   4.652  0.4547  0.2495 -0.2549
14124SOL    HW242951   0.468   0.839   4.650  0.8266 -0.3483 -0.1953
14125SOL     OW42952   5.290   7.688   3.848 -0.4218  0.5096  0.4261
14125SOL    HW142953   5.291   7.772   3.895 -1.3788  0.4591  0.5708
14125SOL    HW242954   5.207   7.648   3.874  0.4121 -0.8895  1.0384
14126SOL     OW42955   9.097   4.781   9.930  0.0793  0.1283  0.2882
14126SOL    HW142956   9.063   4.716   9.990 -1.8150  1.0384  0.2749
14126SOL    HW242957   9.184   4.803   9.964 -0.4013 -0.3717  1.8760
14127SOL     OW42958   4.459   0.318   3.069 -0.2903  0.6439 -0.3123
14127SOL    HW142959   4.470   0.241   3.125  3.0471  1.0914 -0.1262
14127SOL    HW242960   4.391   0.369   3.112 -0.5274 -0.8178  1.1781
14128SOL     OW42961   8.876   0.623   9.882  0.6384  0.4157 -0.1210
14128SOL    HW142962   8.841   0.679   9.813  0.1348  0.2352 -0.0135
14128SOL    HW242963   8.909   0.546   9.836  0.8881  0.5764 -0.2188
14129SOL     OW42964   5.829   1.497   8.050  0.1144 -0.0666 -0.4624
14129SOL    HW142965   5.890   1.470   8.119 -0.4208  3.3177  1.5286
14129SOL    HW242966   5.856   1.585   8.026 -2.5530  0.6527 -1.1941
14130SOL     OW42967   9.900   1.528   9.350 -0.0283  0.2102  0.0503
14130SOL    HW142968   9.910   1.585   9.273  0.9085 -0.3956 -0.3100
14130SOL    HW242969   9.810   1.540   9.379  0.0333  1.5421 -0.2771
14131SOL     OW42970   8.504   6.434   0.422 -0.5512  0.6221  1.0257
14131SOL    HW142971   8.438   6.365   0.420  0.8394 -0.8160  1.9162
14131SOL    HW242972   8.587   6.387   0.411  0.3549  2.3267  0.2738
14132SOL     OW42973   8.207   3.657   9.030  0.1865 -0.6537  0.0052
14132SOL    HW142974   8.271   3.598   8.991  0.7731  0.3607 -0.6130
14132SOL    HW242975   8.142   3.600   9.070  2.0621 -1.7669  1.6775
14133SOL     OW42976   9.706   3.568   6.154 -0.3879 -0.5638 -0.3532
14133SOL    HW142977   9.722   3.643   6.098  0.2761 -0.6483 -0.2765
14133SOL    HW242978   9.765   3.579   6.228 -1.3859 -0.3566  0.4408
14134SOL     OW42979   4.147   5.900   7.165 -1.0413  0.2566 -0.1869
14134SOL    HW142980   4.136   5.810   7.136 -1.4078  0.2305  0.0328
14134SOL    HW242981   4.220   5.896   7.227 -0.8964  0.1532 -0.3625
14135SOL     OW42982   1.021   1.655   1.230 -0.1948  0.2101  0.3346
14135SOL    HW142983   1.034   1.729   1.290 -1.1320  0.3727  0.3408
14135SOL    HW242984   0.926   1.648   1.219 -0.2861 -2.2275  1.8827
14136SOL     OW42985   3.321   9.056   9.745  0.3071  0.0716  0.1393
14136SOL    HW142986   3.391   9.070   9.809 -0.6246 -1.7151  1.6572
14136SOL    HW242987   3.287   9.143   9.726  2.1369  0.8629  0.2526
14137SOL     OW42988   6.239   9.833   2.776  0.0950  0.0031  0.4224
14137SOL    HW142989   6.233   9.805   2.685 -1.9230 -1.8460  1.0240
14137SOL    HW242990   6.327   9.868   2.785 -0.2527  2.1215 -2.7038
14138SOL     OW42991   1.570   9.567   5.560 -0.6827 -0.3716  0.1688
14138SOL    HW142992   1.626   9.556   5.484  0.4295 -0.5556  0.9952
14138SOL    HW242993   1.629   9.594   5.630 -1.6420 -0.4657  1.0416
14139SOL     OW42994   1.231   8.162   3.528 -0.2354 -0.4341  0.5468
14139SOL    HW142995   1.291   8.145   3.600 -1.4749 -0.7679  1.5329
14139SOL    HW242996   1.202   8.075   3.500 -0.0346 -0.2903 -0.1335
14140SOL     OW42997   9.421   4.761   5.546 -0.0596 -0.0970 -0.2475
14140SOL    HW142998   9.438   4.804   5.463 -2.7477 -0.7254 -1.2575
14140SOL    HW242999   9.426   4.830   5.611 -0.1578  0.8962 -1.2677
14141SOL     OW43000   7.590   0.295   8.325 -0.6197  0.1065  0.0150
14141SOL    HW143001   7.585   0.308   8.230 -0.5124 -1.8964 -0.3072
14141SOL    HW243002   7.682   0.271   8.341 -0.5718  0.7027  0.6774
14142SOL     OW43003   7.381   1.129   0.753 -0.1106  0.0641  0.1679
14142SOL    HW143004   7.307   1.068   0.763 -0.3857  0.7389  2.8854
14142SOL    HW243005   7.423   1.101   0.671 -0.2840 -3.7165  1.1473
14143SOL     OW43006   1.338   7.560   4.250 -0.1907 -0.4219 -0.9217
14143SOL    HW143007   1.311   7.530   4.163  1.5949 -2.3439 -0.8787
14143SOL    HW243008   1.316   7.488   4.309 -2.2249  1.2186  0.4499
14144SOL     OW43009   8.387   6.160   8.356 -0.0112 -0.5529  0.3963
14144SOL    HW143010   8.324   6.198   8.295  0.5997 -0.9222 -0.4934
14144SOL    HW243011   8.355   6.071   8.370  1.5623 -1.6206 -2.0222
14145SOL     OW43012   8.067   9.386   9.363  0.4275  0.1202 -0.1520
14145SOL    HW143013   8.145   9.430   9.329 -1.0621  2.7270 -0.4962
14145SOL    HW243014   8.066   9.409   9.456 -0.4978  1.1225 -0.3853
14146SOL     OW43015   1.109   2.433   0.576 -0.1376  0.0807  0.1503
14146SOL    HW143016   1.186   2.487   0.562  0.2901 -0.7504 -0.8793
14146SOL    HW243017   1.042   2.493   0.609  1.2251  0.6307  2.0225
14147SOL     OW43018   6.885   0.260   7.278  0.2421  0.1893  0.7055
14147SOL    HW143019   6.853   0.237   7.191  0.6213  0.3667  0.5156
14147SOL    HW243020   6.963   0.314   7.262  1.9235 -1.9663  1.1128
14148SOL     OW43021   1.259   1.295   6.947 -0.0297  0.3875  0.0053
14148SOL    HW143022   1.167   1.296   6.975 -0.4288  0.5108 -1.2536
14148SOL    HW243023   1.284   1.388   6.947 -0.3976  0.5056 -1.1393
14149SOL     OW43024   8.573   8.014   4.570  0.1535  0.5724  0.1108
14149SOL    HW143025   8.630   8.082   4.535 -1.3942  1.3700 -0.9634
14149SOL    HW243026   8.573   8.029   4.665  0.4009  1.6210 -0.0438
14150SOL     OW43027   7.734   5.033   3.611 -0.0033  0.3705 -0.2377
14150SOL    HW143028   7.761   4.975   3.683 -0.1219  0.6654  0.0476
14150SOL    HW243029   7.639   5.038   3.620 -0.0087  0.4737 -0.3679
14151SOL     OW43030   7.780   7.581   8.209  0.5337 -0.0126 -0.0332
14151SOL    HW143031   7.710   7.529   8.248  0.3584  0.3691  0.1583
14151SOL    HW243032   7.861   7.539   8.238  0.4128  0.3728  0.8892
14152SOL     OW43033   2.616   9.219   8.996 -0.2861 -0.1386  0.3290
14152SOL    HW143034   2.570   9.289   9.041  0.1747  0.0138  0.5723
14152SOL    HW243035   2.561   9.198   8.921 -0.1626  0.8751 -0.0670
14153SOL     OW43036   2.362   3.319   2.025  0.0826 -0.1559 -0.2061
14153SOL    HW143037   2.340   3.238   1.978 -0.4109  0.4042 -0.9585
14153SOL    HW243038   2.425   3.291   2.091  0.7929 -0.9679 -1.1900
14154SOL     OW43039   5.574   3.915   1.571  0.0163  0.0822  0.0556
14154SOL    HW143040   5.563   3.833   1.523  0.4844  1.0941 -1.9213
14154SOL    HW243041   5.667   3.936   1.560  0.1931  0.2544  1.6591
14155SOL     OW43042   2.052   8.697   3.781  0.7617 -0.0246 -0.6794
14155SOL    HW143043   2.042   8.679   3.874 -2.3287  0.4010 -0.8231
14155SOL    HW243044   1.968   8.673   3.743  1.2659  1.6123 -3.0505
14156SOL     OW43045   3.264   2.804   5.466  0.2028  0.4279  0.4964
14156SOL    HW143046   3.182   2.756   5.477 -0.9325  2.4183  1.4915
14156SOL    HW243047   3.241   2.878   5.409  2.0829 -0.5923 -1.7329
14157SOL     OW43048   8.717   7.074   1.412  0.2068  0.0759 -0.4528
14157SOL    HW143049   8.707   6.980   1.429 -0.6826  0.2263 -0.0796
14157SOL    HW243050   8.720   7.113   1.499  1.5378  0.3204 -0.5863
14158SOL     OW43051   9.661   5.926   7.119 -0.0249  0.8698  0.0740
14158SOL    HW143052   9.753   5.935   7.141  0.4595 -1.3583 -0.7534
14158SOL    HW243053   9.658   5.933   7.023  0.0168 -2.9970 -0.3943
14159SOL     OW43054   1.349   8.844   8.447 -0.7796 -0.5680  0.0778
14159SOL    HW143055   1.396   8.927   8.453 -0.0946 -0.8985 -0.5856
14159SOL    HW243056   1.265   8.861   8.491 -1.0980  0.8049 -0.9852
14160SOL     OW43057   8.695   9.849   1.038 -0.5352  0.0876 -0.3498
14160SOL    HW143058   8.760   9.850   0.968 -0.4451  1.6070 -0.2660
14160SOL    HW243059   8.653   9.763   1.030 -0.5104  0.2113 -2.2518
14161SOL     OW43060   1.855   6.305   6.807 -0.4937 -0.0521  0.4444
14161SOL    HW143061   1.775   6.357   6.797 -0.1990  0.1797 -0.7659
14161SOL    HW243062   1.855   6.245   6.733  0.9651  0.6429 -0.1495
14162SOL     OW43063   4.197   6.047   1.482  0.0527  0.3675  0.3491
14162SOL    HW143064   4.262   6.087   1.539  0.7111 -0.8233  0.4555
14162SOL    HW243065   4.215   6.085   1.395 -0.5656  1.7193  0.7825
14163SOL     OW43066   2.945   6.123   7.513 -0.6311  0.3260 -0.2618
14163SOL    HW143067   2.944   6.218   7.507 -0.3452  0.2786 -1.1903
14163SOL    HW243068   2.872   6.094   7.460 -0.6458  0.0203 -0.0801
14164SOL     OW43069   3.904   9.112   6.689 -0.1110  0.2063 -0.1496
14164SOL    HW143070   3.966   9.043   6.709  0.1984  0.8839  1.4612
14164SOL    HW243071   3.939   9.189   6.734 -1.7728  0.7518  0.3089
14165SOL     OW43072   2.018   3.168   8.546 -0.0907  0.2595 -0.0539
14165SOL    HW143073   1.961   3.134   8.477 -0.0174  1.6327 -0.8122
14165SOL    HW243074   2.080   3.097   8.563 -0.8125 -0.5206 -0.5835
14166SOL     OW43075   2.605   8.689   3.640 -0.2644  0.4348 -0.1959
14166SOL    HW143076   2.598   8.666   3.733  1.6210 -3.0259 -0.7420
14166SOL    HW243077   2.685   8.743   3.635  0.8122 -1.0670  0.0329
14167SOL     OW43078   7.220   6.551   3.884  0.0558 -0.0030  0.8247
14167SOL    HW143079   7.151   6.609   3.917 -0.5321  1.3028 -2.3355
14167SOL    HW243080   7.172   6.479   3.843  0.3656  1.5687 -2.5608
14168SOL     OW43081   3.711   3.190   4.670  0.4231  0.1173  0.2166
14168SOL    HW143082   3.667   3.189   4.755 -1.7695  0.5722 -0.8589
14168SOL    HW243083   3.741   3.280   4.659 -1.9958  0.8884 -0.7382
14169SOL     OW43084   1.280   8.013   0.038  0.1559  0.1119 -0.0259
14169SOL    HW143085   1.341   7.973   0.100  2.6542  0.6998 -1.9110
14169SOL    HW243086   1.218   7.943   0.017  1.2173 -1.1031  0.7246
14170SOL     OW43087   6.238   4.910   4.616  0.4971 -0.6684 -0.5765
14170SOL    HW143088   6.170   4.861   4.662  1.4149 -1.7677 -0.3146
14170SOL    HW243089   6.237   4.875   4.527  1.2930 -1.3586 -0.3350
14171SOL     OW43090   6.861   6.289   7.012 -0.0132 -0.7592  0.1378
14171SOL    HW143091   6.864   6.193   7.018  2.1301 -0.7134  0.6480
14171SOL    HW243092   6.912   6.309   6.934 -0.8640 -0.0151 -0.2476
14172SOL     OW43093   8.312   0.091   2.191  0.4512  0.0718  0.1348
14172SOL    HW143094   8.231   0.069   2.145  0.2504  1.9285 -0.4792
14172SOL    HW243095   8.290   0.084   2.284 -0.1930 -0.2015 -0.0319
14173SOL     OW43096   9.591   9.731   8.778 -0.2082  0.5356  0.2998
14173SOL    HW143097   9.660   9.679   8.738  0.3147  0.6433  1.0364
14173SOL    HW243098   9.635   9.780   8.848 -1.1126  0.2411  1.0970
14174SOL     OW43099   4.929   0.080   3.978 -0.3547  0.1053  0.3902
14174SOL    HW143100   5.020   0.105   3.995 -0.3570  0.1826  0.2868
14174SOL    HW243101   4.879   0.160   3.992 -0.4010  0.0759  0.3936
14175SOL     OW43102   1.878   5.440   7.163 -0.2779  0.0770 -0.5383
14175SOL    HW143103   1.851   5.530   7.184 -1.5692 -0.3064 -0.4327
14175SOL    HW243104   1.860   5.391   7.243  0.2981 -0.3084 -0.6405
14176SOL     OW43105   4.426   0.528   1.742  0.2704 -0.1803  0.3518
14176SOL    HW143106   4.406   0.443   1.703 -0.0016  1.1121 -2.5882
14176SOL    HW243107   4.487   0.568   1.681 -0.0596  1.9691  1.3551
14177SOL     OW43108   8.342   5.285   8.041 -0.1157  0.1228 -0.5683
14177SOL    HW143109   8.413   5.346   8.057 -0.7018  1.0257 -1.2624
14177SOL    HW243110   8.301   5.317   7.960 -1.5447 -0.1282  0.0262
14178SOL     OW43111   3.729   0.323   3.029 -0.2050 -0.0569 -0.2049
14178SOL    HW143112   3.709   0.413   3.052 -0.0836  0.4511 -1.9620
14178SOL    HW243113   3.701   0.272   3.105 -1.2621  1.3381  0.3853
14179SOL     OW43114   4.162   9.754   3.983  0.6656 -0.0105 -0.1425
14179SOL    HW143115   4.085   9.767   3.928  1.6379  1.9388 -1.1383
14179SOL    HW243116   4.232   9.728   3.922  0.8426 -1.8628  0.7514
14180SOL     OW43117   6.391   3.834   7.748 -0.0147  0.3057  0.1584
14180SOL    HW143118   6.415   3.764   7.687 -0.8209 -0.7870  1.0522
14180SOL    HW243119   6.296   3.839   7.743 -0.0007  1.0425  0.4385
14181SOL     OW43120   6.041   1.241   3.857 -0.0093  0.1162  0.5713
14181SOL    HW143121   6.118   1.284   3.822 -0.3383 -0.5650 -1.0947
14181SOL    HW243122   5.968   1.299   3.834 -0.1336  0.1316  0.9958
14182SOL     OW43123   9.858   2.982   1.161 -0.4557 -0.2697 -0.1153
14182SOL    HW143124   9.793   2.911   1.160 -0.2279 -0.4827 -1.3834
14182SOL    HW243125   9.922   2.957   1.094  0.7124  0.1566  0.7992
14183SOL     OW43126   1.119   5.036   9.728  0.1741  0.3701  0.6392
14183SOL    HW143127   1.112   5.104   9.795  0.9890 -0.0201  1.1417
14183SOL    HW243128   1.125   5.083   9.645 -0.1027  0.8829  0.9089
14184SOL     OW43129   3.162   8.350   7.745  0.0613  0.1119 -0.2705
14184SOL    HW143130   3.245   8.371   7.788  0.2952  0.2937 -0.8136
14184SOL    HW243131   3.101   8.339   7.818  0.6074 -0.2522  0.1443
14185SOL     OW43132   9.121   2.494   6.149  0.2481 -0.1575  0.3118
14185SOL    HW143133   9.132   2.584   6.117  1.1688 -0.7740 -1.1918
14185SOL    HW243134   9.026   2.484   6.159  0.2079  1.7233  2.8408
14186SOL     OW43135   2.132   1.764   2.627 -0.2664  0.1571  0.0883
14186SOL    HW143136   2.154   1.671   2.635 -0.7026  0.0525  0.0947
14186SOL    HW243137   2.204   1.801   2.575 -0.5953 -0.3832 -0.7745
14187SOL     OW43138   1.087   6.832   7.219 -0.1804  0.0362 -0.6873
14187SOL    HW143139   1.145   6.764   7.186 -0.8816 -0.6254 -0.6052
14187SOL    HW243140   1.051   6.873   7.140  1.4728  1.4453 -0.7656
14188SOL     OW43141   0.990   0.206   0.351 -0.5489 -0.0517  0.0239
14188SOL    HW143142   0.929   0.137   0.324  1.4270 -1.5523 -0.8509
14188SOL    HW243143   0.994   0.266   0.276 -0.2624 -0.4646 -0.2968
14189SOL     OW43144   5.883   7.573   5.386 -0.0156  0.8668 -0.1434
14189SOL    HW143145   5.871   7.666   5.405 -0.4510  0.5991  0.9806
14189SOL    HW243146   5.960   7.548   5.438 -1.1448  0.1496  1.2825
14190SOL     OW43147   5.332   0.129   7.058 -0.0304 -0.3582 -0.5556
14190SOL    HW143148   5.421   0.110   7.089  0.3748 -0.7912 -1.9183
14190SOL    HW243149   5.343   0.202   6.997 -0.7390  0.1420 -0.0966
14191SOL     OW43150   6.186   6.740   4.179 -0.0127  0.4429  0.2274
14191SOL    HW143151   6.251   6.716   4.113 -1.0769 -1.2499 -0.2939
14191SOL    HW243152   6.233   6.737   4.262  0.0752 -3.6653  0.2362
14192SOL     OW43153   8.820   3.440   2.472  0.0519  0.3715  0.5826
14192SOL    HW143154   8.911   3.467   2.463 -0.0975  0.3657 -1.4626
14192SOL    HW243155   8.823   3.364   2.530  1.2865  0.6562  0.9126
14193SOL     OW43156   0.259   1.505   8.497 -0.2237 -0.0260 -0.2625
14193SOL    HW143157   0.323   1.466   8.557 -0.2820 -0.1752 -0.2950
14193SOL    HW243158   0.175   1.495   8.543 -0.1197  0.9199  0.1450
14194SOL     OW43159   6.561   9.802   1.025  0.0018 -0.0768  0.1248
14194SOL    HW143160   6.635   9.817   1.085  0.3921 -0.6619 -0.2035
14194SOL    HW243161   6.582   9.854   0.948  0.1970 -0.4335 -0.0663
14195SOL     OW43162   1.249   7.341   0.112 -0.0463  0.4056 -0.5956
14195SOL    HW143163   1.323   7.298   0.069  0.0611  0.2995 -0.3057
14195SOL    HW243164   1.268   7.435   0.105  1.2913  0.3695  1.4816
14196SOL     OW43165   2.556   8.332   0.411  0.1111 -0.4808  0.6380
14196SOL    HW143166   2.504   8.324   0.330 -0.2872  0.2297  0.8174
14196SOL    HW243167   2.511   8.399   0.462  0.6286 -0.5914  1.2519
14197SOL     OW43168   3.299   1.850   7.967  0.1807 -0.0698  0.0803
14197SOL    HW143169   3.270   1.760   7.980 -0.0554 -0.0272 -0.1417
14197SOL    HW243170   3.376   1.859   8.023  1.0229 -0.8210 -0.8916
14198SOL     OW43171   6.800   4.661   6.719 -0.3680  0.3477  0.1121
14198SOL    HW143172   6.709   4.634   6.711  0.2812 -1.2942 -3.9550
14198SOL    HW243173   6.849   4.580   6.730  0.7267  1.0908  0.9618
14199SOL     OW43174   0.671   5.286   3.888 -0.4166 -0.0549 -0.1737
14199SOL    HW143175   0.590   5.337   3.885 -0.0400  0.5240 -1.1315
14199SOL    HW243176   0.727   5.335   3.948 -0.0814  0.6588 -1.0353
14200SOL     OW43177   0.062   1.869   3.698 -0.0687 -0.0753  0.0580
14200SOL    HW143178   0.114   1.797   3.734 -1.0885  0.5227  2.9412
14200SOL    HW243179  -0.007   1.826   3.648  0.0207 -1.0570  0.7525
14201SOL     OW43180   9.734   6.991   7.210 -0.3318  0.4905  0.7149
14201SOL    HW143181   9.671   7.058   7.236  0.9300  1.1673  2.1506
14201SOL    HW243182   9.747   6.938   7.289  0.1122 -0.2862  0.1327
14202SOL     OW43183   7.122   1.860   9.178  0.0680  0.1453 -0.5413
14202SOL    HW143184   7.094   1.904   9.258  0.9306 -2.0614  1.0677
14202SOL    HW243185   7.068   1.781   9.175  2.3150 -1.4776 -0.2646
14203SOL     OW43186   8.493   3.202   2.462 -0.3342 -0.0808  0.6560
14203SOL    HW143187   8.494   3.130   2.525 -0.1468 -1.0219 -0.3927
14203SOL    HW243188   8.480   3.281   2.515 -0.5951 -0.8911  1.8185
14204SOL     OW43189   6.941   5.614   5.427  0.9324  0.1385  0.3614
14204SOL    HW143190   6.925   5.564   5.347 -0.1331 -0.5770  0.9976
14204SOL    HW243191   6.855   5.651   5.450  0.9425 -0.7107  1.8522
14205SOL     OW43192   4.762   7.169   7.943 -0.0500  0.0256 -0.3770
14205SOL    HW143193   4.766   7.257   7.981 -0.6688 -0.4142  0.7581
14205SOL    HW243194   4.802   7.178   7.857 -0.1582  1.4296 -0.2978
14206SOL     OW43195   7.342   3.884   2.200 -0.1245 -0.1696 -0.0325
14206SOL    HW143196   7.396   3.844   2.268  0.1214  1.2384  0.6218
14206SOL    HW243197   7.394   3.878   2.120  0.9923  1.0680  0.5634
14207SOL     OW43198   5.946   8.895   6.198  0.6326 -0.2635 -0.2791
14207SOL    HW143199   5.900   8.900   6.282 -0.1259  1.1196 -0.7564
14207SOL    HW243200   5.935   8.982   6.159  1.9546 -0.5268 -1.3080
14208SOL     OW43201   1.501   4.319   3.912  0.3026 -0.3125 -0.2834
14208SOL    HW143202   1.455   4.394   3.952  0.6849 -1.3370  2.2521
14208SOL    HW243203   1.484   4.329   3.818  0.2507  2.8830 -0.0620
14209SOL     OW43204   4.908   4.996   9.587  0.2204 -0.1605 -0.0133
14209SOL    HW143205   4.920   5.039   9.502  1.4273 -0.1080  0.1595
14209SOL    HW243206   4.850   4.922   9.568 -1.4550  1.1906 -0.4109
14210SOL     OW43207   1.309   1.811   8.760  0.0051 -0.2533  0.1561
14210SOL    HW143208   1.320   1.721   8.727  0.7624  0.0536 -0.4736
14210SOL    HW243209   1.230   1.843   8.717 -0.0168 -0.4751  0.0284
14211SOL     OW43210   2.311  -0.027   1.369  0.0623 -0.1435 -0.4776
14211SOL    HW143211   2.268   0.043   1.418 -0.1661 -0.9152  0.4734
14211SOL    HW243212   2.403  -0.002   1.367  0.0706 -0.0814  0.3515
14212SOL     OW43213   9.233   2.148   3.619  0.0824  0.8694 -0.0966
14212SOL    HW143214   9.243   2.184   3.708 -0.5847 -4.3015  2.4450
14212SOL    HW243215   9.320   2.118   3.595 -0.3753 -1.2992  0.7250
14213SOL     OW43216   2.366   6.312   2.028 -0.2998  0.3847 -0.2162
14213SOL    HW143217   2.284   6.266   2.042  1.3018 -2.5373  0.2842
14213SOL    HW243218   2.431   6.263   2.080  2.1389  1.2921 -2.1922
14214SOL     OW43219   1.824   9.193   0.698 -0.0113  0.1780 -0.5116
14214SOL    HW143220   1.908   9.231   0.726  0.7424 -0.0207 -2.3097
14214SOL    HW243221   1.795   9.252   0.627 -0.8358 -0.3809 -0.6445
14215SOL     OW43222   4.928   2.469   8.264  0.5799  0.1292 -0.0190
14215SOL    HW143223   4.947   2.426   8.347  0.1788  2.6661  1.4884
14215SOL    HW243224   5.013   2.482   8.223  0.8117 -0.8550  0.1408
14216SOL     OW43225   0.399   0.767   8.670  0.0418  0.0659  0.6677
14216SOL    HW143226   0.355   0.758   8.585  1.1185  0.6634  0.0242
14216SOL    HW243227   0.421   0.677   8.694 -0.6751 -0.1507  0.5345
14217SOL     OW43228   3.207   9.812   3.669 -0.0762 -0.2431  0.0238
14217SOL    HW143229   3.255   9.871   3.727  0.0362  0.0091 -0.3168
14217SOL    HW243230   3.141   9.771   3.725  1.8134 -2.1395  0.9870
14218SOL     OW43231   5.232   1.603   8.474  0.7292 -0.6773  0.1869
14218SOL    HW143232   5.147   1.644   8.484  0.0058 -1.7107 -1.3258
14218SOL    HW243233   5.279   1.625   8.554 -1.0302 -0.2837  1.1595
14219SOL     OW43234   8.756   4.931   9.863  0.5286 -0.4619 -0.1821
14219SOL    HW143235   8.811   5.004   9.837 -1.3853  0.2545 -2.5342
14219SOL    HW243236   8.673   4.971   9.889  0.5144 -1.6188  1.7264
14220SOL     OW43237   3.716   2.665   8.179 -0.0783  0.1927  0.0288
14220SOL    HW143238   3.659   2.597   8.214  1.2975 -0.8460  0.3337
14220SOL    HW243239   3.664   2.707   8.110 -1.3995 -0.3257  0.6771
14221SOL     OW43240   4.248   5.614   5.238 -0.0076  0.1510 -0.3883
14221SOL    HW143241   4.337   5.578   5.241 -0.2132 -0.3115  0.4722
14221SOL    HW243242   4.221   5.605   5.147  0.4521 -0.6317 -0.4544
14222SOL     OW43243   0.545   8.746   9.294  0.3983 -0.4055  0.2618
14222SOL    HW143244   0.540   8.832   9.253 -0.7554 -0.4096  0.3672
14222SOL    HW243245   0.455   8.715   9.295  0.3968 -0.4881  2.6117
14223SOL     OW43246   6.241   2.649   3.004  0.2244  0.5955  0.1173
14223SOL    HW143247   6.212   2.582   3.066  0.0755  1.7632  1.3410
14223SOL    HW243248   6.238   2.605   2.919 -2.3028 -0.2138  0.5396
14224SOL     OW43249   3.582   2.799   8.758 -0.0411 -0.3662 -0.3672
14224SOL    HW143250   3.667   2.828   8.724  0.7276  0.5891  2.1010
14224SOL    HW243251   3.602   2.719   8.806 -0.9383 -1.2759 -1.4765
14225SOL     OW43252   8.356   4.487   5.616 -0.4435  0.4937 -0.7980
14225SOL    HW143253   8.422   4.483   5.547  1.2773  0.6485  0.7381
14225SOL    HW243254   8.275   4.510   5.572  0.4771  0.0386 -2.8096
14226SOL     OW43255   6.127   2.253   5.722 -0.1241  0.1055  0.0673
14226SOL    HW143256   6.139   2.169   5.678  2.1789 -0.2169  1.1555
14226SOL    HW243257   6.185   2.313   5.675  0.2489  0.4262  0.9243
14227SOL     OW43258   9.794   5.825   9.490  0.0555  0.4235  0.0270
14227SOL    HW143259   9.887   5.845   9.495  0.6124 -2.0748  2.3938
14227SOL    HW243260   9.753   5.883   9.554  0.2924  0.3066  0.2871
14228SOL     OW43261   1.148   7.445   2.522 -0.2266  0.1580 -0.5230
14228SOL    HW143262   1.193   7.377   2.572 -2.9093  0.0853  2.1068
14228SOL    HW243263   1.122   7.403   2.441  0.5657 -1.0921 -0.1503
14229SOL     OW43264   5.863   1.744   0.995  0.2320 -0.2883  0.6093
14229SOL    HW143265   5.786   1.800   0.993  1.0692  0.9805  1.9643
14229SOL    HW243266   5.831   1.660   1.026 -0.7100  0.0158  0.4867
14230SOL     OW43267   7.239   0.702   7.842  0.0459  0.3304  0.3636
14230SOL    HW143268   7.249   0.767   7.912  2.5113  0.1858  0.2084
14230SOL    HW243269   7.265   0.748   7.762 -0.6270 -0.1474 -0.1444
14231SOL     OW43270   4.366   7.399   9.908 -0.2363 -0.3666 -0.0518
14231SOL    HW143271   4.336   7.375   9.995  0.8535 -2.8606 -0.2709
14231SOL    HW243272   4.291   7.384   9.851 -0.1184 -1.6014  0.0911
14232SOL     OW43273   5.204   5.208   7.038 -0.7919 -0.0350  0.4046
14232SOL    HW143274   5.193   5.113   7.038  2.5224 -0.5862 -1.5234
14232SOL    HW243275   5.186   5.235   6.948 -0.6275  0.9814  0.6584
14233SOL     OW43276   2.950   8.795   6.529 -0.6441  0.1082 -0.8723
14233SOL    HW143277   2.999   8.866   6.570 -0.8274 -0.3747  0.2201
14233SOL    HW243278   2.985   8.715   6.570 -1.8075 -0.2902 -0.6338
14234SOL     OW43279   8.960   8.682   5.529 -0.5863 -0.0726 -0.0298
14234SOL    HW143280   9.040   8.630   5.519 -0.3129  0.6558 -1.9986
14234SOL    HW243281   8.898   8.622   5.571  1.1719 -0.4218  2.2710
14235SOL     OW43282   4.313   5.707   2.663  0.5742 -0.2851  0.1163
14235SOL    HW143283   4.250   5.641   2.633  0.5157 -0.4492  0.6027
14235SOL    HW243284   4.364   5.728   2.585  1.2894 -1.6665  0.1851
14236SOL     OW43285   4.875   4.164   1.362  0.2771 -0.6278  0.0721
14236SOL    HW143286   4.813   4.220   1.315  2.1341  0.3319 -1.3890
14236SOL    HW243287   4.882   4.203   1.449  0.3343  0.4790 -0.4152
14237SOL     OW43288   1.869   1.500   8.449  0.0370  0.2596  0.4890
14237SOL    HW143289   1.889   1.429   8.510  0.8227  2.4980  3.0392
14237SOL    HW243290   1.955   1.538   8.428 -0.1844 -0.5403 -2.2774
14238SOL     OW43291   9.362   7.159   4.511 -0.0369 -0.1442  0.1856
14238SOL    HW143292   9.448   7.128   4.538  0.1750  1.5159  1.6274
14238SOL    HW243293   9.320   7.186   4.593 -2.0389 -1.1153 -0.4445
14239SOL     OW43294   6.575   5.284   7.056 -0.2292  0.5021  0.3346
14239SOL    HW143295   6.585   5.208   7.112 -0.5484  0.0183 -0.2485
14239SOL    HW243296   6.643   5.274   6.989 -0.3156  0.6917  0.2153
14240SOL     OW43297   1.438   5.187   4.257 -0.4852 -0.3180  0.2775
14240SOL    HW143298   1.505   5.135   4.213 -0.2270  0.1862  0.0696
14240SOL    HW243299   1.466   5.189   4.349 -1.0511 -1.4117  0.4880
14241SOL     OW43300   2.179   2.873   6.623  0.0068 -0.0570 -0.5674
14241SOL    HW143301   2.084   2.880   6.614 -0.4178 -0.3466  2.4709
14241SOL    HW243302   2.195   2.779   6.633  0.4316  0.0703  0.0453
14242SOL     OW43303   3.719   4.958   9.301 -0.2233 -0.2409  0.3649
14242SOL    HW143304   3.796   5.014   9.289 -0.0316 -0.8218 -1.4890
14242SOL    HW243305   3.740   4.903   9.376  0.3217  0.9385  1.1142
14243SOL     OW43306   9.628   0.570   7.822  0.5101 -0.1288  0.1576
14243SOL    HW143307   9.545   0.557   7.775  0.1310  1.2583  0.3869
14243SOL    HW243308   9.601   0.580   7.914  0.9834 -0.2146  0.3062
14244SOL     OW43309   8.762   5.573   5.392 -0.2356 -0.5796  0.0820
14244SOL    HW143310   8.821   5.498   5.396 -0.4048 -0.7544 -0.7003
14244SOL    HW243311   8.779   5.621   5.474  0.6080 -0.9098  0.1081
14245SOL     OW43312   5.003   6.385   0.945  0.5082  0.5237 -0.5347
14245SOL    HW143313   4.958   6.447   0.888  0.8812  1.0320 -0.2797
14245SOL    HW243314   5.004   6.303   0.895 -0.2254  0.6479 -0.7571
14246SOL     OW43315   7.936   6.042   9.542 -0.2552  0.1285  0.0267
14246SOL    HW143316   7.842   6.028   9.525 -0.5391 -2.0526  2.6411
14246SOL    HW243317   7.938   6.105   9.613  0.0813 -1.1804  1.2387
14247SOL     OW43318   6.921   2.010   2.160  0.2331  0.6653  0.1870
14247SOL    HW143319   6.948   2.009   2.252  2.4888 -0.7977 -0.4254
14247SOL    HW243320   6.970   2.083   2.121  1.2314 -0.2631 -0.3459
14248SOL     OW43321   7.798   0.460   3.836  0.2099  0.5560 -0.1800
14248SOL    HW143322   7.754   0.468   3.751 -1.2154  2.6453  0.6779
14248SOL    HW243323   7.891   0.454   3.814 -0.2507 -1.4685 -1.9479
14249SOL     OW43324   1.992   1.261   6.355 -0.4199  0.1301 -0.0485
14249SOL    HW143325   2.042   1.299   6.283 -0.6221 -0.6120 -0.5932
14249SOL    HW243326   1.946   1.336   6.394  1.1120  0.8283  0.4813
14250SOL     OW43327   8.479   8.857   3.274  0.5455 -0.0865  0.3304
14250SOL    HW143328   8.434   8.846   3.358 -0.4081  1.1225 -0.0006
14250SOL    HW243329   8.521   8.942   3.280 -0.4757  0.5320 -0.8255
14251SOL     OW43330   7.019   0.657   4.807  0.3898  0.5180 -0.4372
14251SOL    HW143331   7.036   0.646   4.901  0.6010 -1.7670 -0.6827
14251SOL    HW243332   6.968   0.738   4.802  0.3606  0.7047  1.6431
14252SOL     OW43333   6.680   9.719   2.033 -0.4832 -0.6032  0.0771
14252SOL    HW143334   6.708   9.810   2.028 -2.3036  0.1634  2.1347
14252SOL    HW243335   6.744   9.677   2.092 -0.1545 -0.4502 -0.1664
14253SOL     OW43336   2.688   7.972   5.583 -0.7200  0.4166  0.5240
14253SOL    HW143337   2.719   8.059   5.558  3.5378 -0.8155  0.7852
14253SOL    HW243338   2.667   7.929   5.499 -2.2440  1.4050  0.3593
14254SOL     OW43339   9.670   8.498   5.617 -0.1982  0.1200 -0.2533
14254SOL    HW143340   9.582   8.483   5.653 -0.1276  0.0457 -0.1097
14254SOL    HW243341   9.725   8.513   5.694  0.2552 -1.5560 -0.2080
14255SOL     OW43342   2.715   2.723   6.772  0.4310 -0.2076 -0.2784
14255SOL    HW143343   2.738   2.816   6.770  1.5770 -0.3569  2.0300
14255SOL    HW243344   2.650   2.716   6.842  1.5402 -1.2919  0.7177
14256SOL     OW43345   3.484   4.893   5.078 -0.6236  0.1515  0.3362
14256SOL    HW143346   3.433   4.886   4.997 -0.4671  1.2024  0.1255
14256SOL    HW243347   3.418   4.893   5.148 -0.6351 -3.9269  0.5118
14257SOL     OW43348   5.664   5.733   7.475  0.2105  0.2602 -0.4026
14257SOL    HW143349   5.600   5.671   7.439  1.0962 -1.2284  0.5000
14257SOL    HW243350   5.649   5.814   7.426 -1.7694 -0.3039 -0.8040
14258SOL     OW43351   8.220   9.078   6.237 -0.2414 -0.1627  0.1726
14258SOL    HW143352   8.283   9.035   6.295  1.8793  3.3883  0.8529
14258SOL    HW243353   8.170   9.136   6.296 -2.9401 -1.5076 -0.6595
14259SOL     OW43354   9.716   3.215   1.203  1.1417 -0.1926  0.7485
14259SOL    HW143355   9.768   3.135   1.211 -0.4186 -1.4277 -0.6872
14259SOL    HW243356   9.683   3.213   1.113 -1.6638  0.2851  1.6513
14260SOL     OW43357   1.859   4.671   7.745  0.7942  0.2531 -0.4975
14260SOL    HW143358   1.798   4.734   7.783  1.4530 -1.0015  2.9987
14260SOL    HW243359   1.804   4.607   7.701 -0.2341  0.4693  0.4428
14261SOL     OW43360   4.659   8.468   3.257  0.2436  0.3469  0.0863
14261SOL    HW143361   4.723   8.444   3.190  1.7693  1.6393  1.0091
14261SOL    HW243362   4.647   8.389   3.309  0.4721 -0.1343 -0.5851
14262SOL     OW43363   9.585   8.511   9.730  0.8145 -0.4852  0.3120
14262SOL    HW143364   9.573   8.437   9.790  0.7890 -0.3664  0.4532
14262SOL    HW243365   9.496   8.540   9.711  0.8297 -0.4054  0.3630
14263SOL     OW43366   5.976   9.259   0.279 -0.4655  0.5021  0.5571
14263SOL    HW143367   6.007   9.344   0.310 -2.0004  0.8745  1.1823
14263SOL    HW243368   5.920   9.226   0.350  1.2159 -1.7247  0.9525
14264SOL     OW43369   5.965   9.556   6.980 -0.2590 -0.0815 -0.4462
14264SOL    HW143370   6.001   9.576   6.893  0.0399  0.3979 -0.2158
14264SOL    HW243371   5.949   9.641   7.020 -0.4324 -0.3011 -0.0427
14265SOL     OW43372   8.767   5.450   3.266  0.0420 -0.2957  0.0630
14265SOL    HW143373   8.675   5.472   3.256  0.0105 -0.9786 -1.3324
14265SOL    HW243374   8.805   5.526   3.311 -1.1448  0.0674  0.4827
14266SOL     OW43375   1.023   0.693   8.748  0.2221 -0.4673  0.1153
14266SOL    HW143376   0.940   0.680   8.703 -0.1365  2.5012 -0.2981
14266SOL    HW243377   1.017   0.782   8.783  2.7125 -0.6636  1.2221
14267SOL     OW43378   2.649   6.629   8.330  0.1857  0.3944  0.5249
14267SOL    HW143379   2.639   6.627   8.234 -0.0858  0.0021  0.5564
14267SOL    HW243380   2.591   6.699   8.358  1.6951  1.8071  0.2532
14268SOL     OW43381   9.161   1.255   8.569 -0.3585 -0.2789  0.3763
14268SOL    HW143382   9.248   1.269   8.605 -0.4149  0.6595  0.1763
14268SOL    HW243383   9.176   1.225   8.479 -0.2322  0.2310  0.2212
14269SOL     OW43384   2.684   8.057   1.531 -0.4822 -0.1629 -0.3833
14269SOL    HW143385   2.681   7.970   1.570  0.4365 -0.0912 -0.1456
14269SOL    HW243386   2.613   8.056   1.466 -1.7333 -0.4384  0.9294
14270SOL     OW43387   5.702   7.543   2.053 -0.1926  0.3248 -0.1445
14270SOL    HW143388   5.743   7.466   2.013 -0.0227 -0.7431  1.9691
14270SOL    HW243389   5.692   7.605   1.980  0.2037 -1.4467 -1.7943
14271SOL     OW43390   6.244   5.638   2.032  0.1821  0.1860 -0.3187
14271SOL    HW143391   6.164   5.632   1.981 -0.1878  0.2401  0.2474
14271SOL    HW243392   6.303   5.693   1.979 -0.5101  0.9819 -0.2897
14272SOL     OW43393   5.857   6.525   3.429 -0.4004 -0.0772 -0.1221
14272SOL    HW143394   5.834   6.475   3.350 -1.2611 -2.3766  1.4803
14272SOL    HW243395   5.810   6.481   3.500  0.2342  1.9908  1.7047
14273SOL     OW43396   4.032   2.472   5.586 -0.9008 -0.0252 -0.4161
14273SOL    HW143397   4.050   2.449   5.495 -0.4452  1.1124 -0.6269
14273SOL    HW243398   3.980   2.552   5.580  0.2128  0.7782  0.3436
14274SOL     OW43399   7.493   2.304   7.841 -0.3463 -0.0285  0.4540
14274SOL    HW143400   7.538   2.381   7.875  0.1905  0.4336 -1.2252
14274SOL    HW243401   7.404   2.334   7.823 -0.2062  0.1413  0.0348
14275SOL     OW43402   1.718   4.221   6.595 -0.6031 -0.0938 -0.6953
14275SOL    HW143403   1.752   4.141   6.635 -0.8770  1.2050  2.3450
14275SOL    HW243404   1.626   4.200   6.576 -0.4594 -0.7538 -0.6839
14276SOL     OW43405   6.527   6.343   3.332 -0.0681  0.0947 -0.3887
14276SOL    HW143406   6.448   6.373   3.289 -0.5112 -0.3106  0.1250
14276SOL    HW243407   6.585   6.315   3.261 -0.2740  0.6532 -0.7781
14277SOL     OW43408   9.889   9.939   0.925 -0.2245  0.4623  0.2373
14277SOL    HW143409   9.862  10.028   0.899  1.0337  0.8735  0.2404
14277SOL    HW243410   9.946   9.910   0.853  2.4390  1.1896  1.9150
14278SOL     OW43411   2.703   9.727   3.015  0.2481 -0.2879 -0.2672
14278SOL    HW143412   2.652   9.751   3.093  2.4726 -1.3525  1.6319
14278SOL    HW243413   2.656   9.652   2.978 -0.3269 -0.3904  0.6272
14279SOL     OW43414   2.971   5.708   2.635  0.1080  0.1578 -1.0471
14279SOL    HW143415   2.956   5.782   2.694 -0.0426  0.9530 -2.0566
14279SOL    HW243416   2.901   5.646   2.656  1.6703 -0.9163  1.5807
14280SOL     OW43417   0.902   7.812   9.580 -0.2366 -0.0101 -0.4432
14280SOL    HW143418   0.994   7.788   9.592 -0.6452 -0.6292  2.0718
14280SOL    HW243419   0.903   7.908   9.575  0.4267  0.1493  1.6804
14281SOL     OW43420   2.152   0.172   6.620 -0.0026 -0.4062  0.4877
14281SOL    HW143421   2.197   0.255   6.637 -2.5611  1.0999  0.4296
14281SOL    HW243422   2.197   0.109   6.676  1.5204  1.1655  1.1487
14282SOL     OW43423   4.804   4.714   4.897 -0.2968  0.4841 -0.3286
14282SOL    HW143424   4.749   4.656   4.844  0.6102  1.2887 -2.2402
14282SOL    HW243425   4.811   4.669   4.981 -0.3584 -1.7825 -1.4363
14283SOL     OW43426   0.159   4.254   5.931  0.5242  0.4222 -0.3000
14283SOL    HW143427   0.078   4.289   5.894 -0.1885 -1.5618 -0.7296
14283SOL    HW243428   0.191   4.324   5.988 -1.1178  1.5233 -0.6548
14284SOL     OW43429   8.007   2.951   4.157 -0.0457  0.3337  0.2077
14284SOL    HW143430   7.922   2.935   4.197 -0.4461  1.7609 -0.0075
14284SOL    HW243431   8.004   2.902   4.075 -0.0819 -0.8112  0.8877
14285SOL     OW43432   8.514   1.948   2.880  0.1032 -0.3588 -0.0743
14285SOL    HW143433   8.449   1.997   2.930  1.4722  0.5829  0.8219
14285SOL    HW243434   8.508   1.984   2.791  0.0901  0.4041  0.2367
14286SOL     OW43435   9.180   4.766   4.988  0.5438  0.2311 -0.5902
14286SOL    HW143436   9.159   4.764   4.894  0.8152  2.6301 -0.7527
14286SOL    HW243437   9.096   4.787   5.030  0.5785 -0.0966 -0.3587
14287SOL     OW43438   1.111   2.364   9.904  0.0633  0.5750  0.4939
14287SOL    HW143439   1.198   2.329   9.886  0.3762  0.9976  1.1565
14287SOL    HW243440   1.067   2.296   9.955 -0.2957  0.0142 -0.5312
14288SOL     OW43441   7.350   0.014   9.577  0.4244  0.2368  0.1081
14288SOL    HW143442   7.299   0.084   9.619 -0.0930 -1.7306  2.9968
14288SOL    HW243443   7.306   0.000   9.493 -1.2825  1.3779  0.7532
14289SOL     OW43444   7.187   9.052   9.700  0.1081  0.0834  0.2507
14289SOL    HW143445   7.192   8.961   9.669  0.5574  0.4368 -0.7695
14289SOL    HW243446   7.101   9.059   9.740 -0.5522 -0.3875 -1.0172
14290SOL     OW43447   7.066   9.191   9.090 -0.0193 -0.0408  0.5888
14290SOL    HW143448   7.077   9.262   9.026 -2.0279  0.1859  0.4184
14290SOL    HW243449   7.155   9.173   9.121  0.6278  2.2343  0.3026
14291SOL     OW43450   5.353   0.345   5.474  0.4782 -0.3044  0.2526
14291SOL    HW143451   5.372   0.320   5.564  0.9002 -0.3048  0.1665
14291SOL    HW243452   5.294   0.420   5.481 -1.5486 -1.8443  0.5185
14292SOL     OW43453   5.699   8.054   8.161 -0.0718  0.1145 -0.2037
14292SOL    HW143454   5.617   8.076   8.206 -0.1524 -2.4292  1.0199
14292SOL    HW243455   5.722   7.967   8.193  1.8777 -0.2414 -2.3129
14293SOL     OW43456   0.166   2.382   6.679  0.0841 -0.1576  0.5659
14293SOL    HW143457   0.157   2.477   6.687  1.2830 -0.0506  0.8588
14293SOL    HW243458   0.100   2.346   6.738  0.1892  0.5029  1.0977
14294SOL     OW43459   7.307   4.479   4.540  0.0190  0.1573  0.3892
14294SOL    HW143460   7.230   4.431   4.569  0.6221 -0.5657  0.8177
14294SOL    HW243461   7.332   4.532   4.616  0.9416 -0.9024  0.8583
14295SOL     OW43462   2.711   0.527   8.054 -0.6752 -0.0854 -0.7116
14295SOL    HW143463   2.643   0.498   7.994 -0.6359 -1.9158  0.0785
14295SOL    HW243464   2.788   0.540   7.998 -1.0676 -0.1775 -1.2814
14296SOL     OW43465   8.843   4.664   2.100 -0.1276 -0.2370  0.6275
14296SOL    HW143466   8.888   4.695   2.021  0.7260  1.0517  1.5767
14296SOL    HW243467   8.889   4.584   2.125 -1.7691 -1.9090 -1.3414
14297SOL     OW43468   8.757   5.737   0.621  0.4585  0.0202  0.5741
14297SOL    HW143469   8.820   5.689   0.676  1.5097  0.5127 -0.1662
14297SOL    HW243470   8.781   5.715   0.532  0.4127  1.2275  0.2431
14298SOL     OW43471   5.698   4.840   8.975  0.3145 -0.0491 -0.4608
14298SOL    HW143472   5.790   4.853   8.997  0.5690 -1.6655 -0.4645
14298SOL    HW243473   5.682   4.900   8.903  1.2730  0.4766 -0.2526
14299SOL     OW43474   4.360   8.150   4.945  0.4106  0.3134  0.5232
14299SOL    HW143475   4.392   8.240   4.951  0.9580  0.2163 -0.7058
14299SOL    HW243476   4.394   8.117   4.862 -0.3244 -0.8237  0.6420
14300SOL     OW43477   8.027   0.613   6.694 -0.6822 -0.2337  0.1558
14300SOL    HW143478   8.092   0.612   6.764 -0.3323  0.6823 -0.1443
14300SOL    HW243479   8.071   0.656   6.621 -0.9901 -1.3075 -0.6963
14301SOL     OW43480   3.692   1.198   1.589 -0.1316  0.6744 -0.7261
14301SOL    HW143481   3.631   1.199   1.663  0.9971 -0.3685  0.2663
14301SOL    HW243482   3.756   1.131   1.613  1.4578  1.8130 -1.6866
14302SOL     OW43483   3.526   6.653   5.389 -0.0531  0.7454 -0.0053
14302SOL    HW143484   3.492   6.682   5.474 -2.2144 -0.0544 -0.5238
14302SOL    HW243485   3.564   6.731   5.350 -0.2570  1.4385  1.1493
14303SOL     OW43486   6.132   2.381   8.972  0.2175  0.5625 -0.1360
14303SOL    HW143487   6.048   2.338   8.955 -0.3670  1.1512  1.0427
14303SOL    HW243488   6.126   2.464   8.924 -0.1900  0.9196  0.5149
14304SOL     OW43489   9.198   9.781   9.957 -0.4287 -0.1114  0.5026
14304SOL    HW143490   9.111   9.751   9.932 -0.0486  0.0073 -1.0846
14304SOL    HW243491   9.190   9.876   9.965 -0.2233  0.0351 -0.7702
14305SOL     OW43492   6.161   4.830   5.551 -0.5101  0.1541 -0.5656
14305SOL    HW143493   6.097   4.834   5.480 -1.1343  0.8555  0.0155
14305SOL    HW243494   6.242   4.802   5.510 -1.3659 -1.4927 -1.2092
14306SOL     OW43495   8.457   2.402   4.979  0.3310 -0.3288 -0.2907
14306SOL    HW143496   8.552   2.396   4.966  0.4819  1.5597 -0.4149
14306SOL    HW243497   8.435   2.492   4.953 -1.4892 -0.7092 -0.2060
14307SOL     OW43498   4.824   5.722   8.356 -0.6087  0.1695 -0.2287
14307SOL    HW143499   4.810   5.782   8.283  1.3354  0.9869  0.0051
14307SOL    HW243500   4.803   5.774   8.434 -1.9592 -0.4675 -0.1480
14308SOL     OW43501   1.102   4.950   9.066  0.5647  0.2120  0.1901
14308SOL    HW143502   1.140   4.889   9.003  1.9230  0.1541  1.0224
14308SOL    HW243503   1.176   5.004   9.095 -0.0429  0.3350  1.6100
14309SOL     OW43504   5.523   6.914   5.140  0.2130  0.4038 -0.4141
14309SOL    HW143505   5.600   6.858   5.130  1.5240  2.2945 -1.8164
14309SOL    HW243506   5.536   6.955   5.226  1.1900  1.2269 -0.9288
14310SOL     OW43507   9.715   8.197   9.534 -0.1010 -0.1636 -0.0926
14310SOL    HW143508   9.665   8.122   9.563  1.2172 -1.9766 -2.2227
14310SOL    HW243509   9.650   8.263   9.511 -1.2871 -0.7068  1.5842
14311SOL     OW43510   9.801   9.548   2.991  0.9583  0.3795  0.0818
14311SOL    HW143511   9.803   9.588   2.904 -0.1390  0.6152  0.1575
14311SOL    HW243512   9.844   9.463   2.979 -1.3467 -0.6746 -1.2776
14312SOL     OW43513   1.017   2.890   2.414  0.3266  0.7303 -0.2059
14312SOL    HW143514   1.108   2.917   2.414 -0.0077  2.8875 -5.0852
14312SOL    HW243515   1.012   2.821   2.347 -1.3276 -1.3383  1.8425
14313SOL     OW43516   8.997   2.959   4.482  0.5682 -0.0697 -0.3744
14313SOL    HW143517   9.061   2.941   4.551 -0.6237 -1.5365  0.4149
14313SOL    HW243518   8.947   3.034   4.514 -0.7622 -1.4779  0.9879
14314SOL     OW43519   9.946   2.941   8.857  0.1141  0.2484  0.3864
14314SOL    HW143520   9.856   2.970   8.840 -0.0434 -0.2004  0.4285
14314SOL    HW243521   9.959   2.956   8.950  0.6880  1.9255  0.0674
14315SOL     OW43522   3.583   6.900   4.391  0.1125  0.0717 -0.2875
14315SOL    HW143523   3.677   6.884   4.375  0.2513  1.2918 -0.8311
14315SOL    HW243524   3.577   6.912   4.485  0.3928 -0.6676 -0.1676
14316SOL     OW43525   5.252   7.648   5.714 -0.2682 -0.3809 -0.2035
14316SOL    HW143526   5.184   7.599   5.760 -0.3340 -2.0252 -1.9498
14316SOL    HW243527   5.261   7.605   5.629  3.0076 -0.3137 -0.0354
14317SOL     OW43528   4.393   8.119   8.111 -0.1586  0.0443  0.0998
14317SOL    HW143529   4.467   8.179   8.111 -0.4132  0.3643 -0.2840
14317SOL    HW243530   4.402   8.070   8.193 -0.7150  1.5762  1.1384
14318SOL     OW43531   1.966   4.331   6.623  0.6273 -0.2949  0.0651
14318SOL    HW143532   1.871   4.330   6.609  0.5266  1.4614  0.3958
14318SOL    HW243533   2.001   4.282   6.549 -0.5622 -1.6980  0.3689
14319SOL     OW43534   8.528   3.202   3.908  1.4957  0.1199 -0.3514
14319SOL    HW143535   8.497   3.262   3.841  2.4115 -0.9820 -1.8092
14319SOL    HW243536   8.503   3.115   3.877  0.4650 -0.3345  1.5654
14320SOL     OW43537   9.325   4.595   7.494  0.8542  0.3589  0.2272
14320SOL    HW143538   9.296   4.516   7.450  1.3864  1.0455 -1.4210
14320SOL    HW243539   9.289   4.587   7.583 -0.4389 -0.9622 -0.3638
14321SOL     OW43540   3.493   2.980   9.759 -0.1038  0.2078  0.0023
14321SOL    HW143541   3.588   2.980   9.743  0.1350 -3.1315  0.7189
14321SOL    HW243542   3.482   3.033   9.838  1.5557 -1.2206  1.2814
14322SOL     OW43543   3.047   6.805   3.005  0.5990 -0.0509  0.5446
14322SOL    HW143544   3.033   6.836   2.915 -1.3101 -1.2019  0.3926
14322SOL    HW243545   2.995   6.865   3.059 -1.1819 -1.4241  0.4725
14323SOL     OW43546   0.965   0.663   3.245 -0.0831 -0.2641 -0.1990
14323SOL    HW143547   0.898   0.730   3.257 -0.3897 -0.8449  1.5810
14323SOL    HW243548   0.977   0.625   3.332  3.0297  0.2578 -0.2692
14324SOL     OW43549   7.214   3.565   9.368  0.0186  0.2031 -0.6020
14324SOL    HW143550   7.155   3.490   9.359  0.1797  0.1828 -1.6583
14324SOL    HW243551   7.167   3.626   9.424  0.0510 -0.8414  0.5881
14325SOL     OW43552   9.304   1.036   4.884  0.3560 -0.3146  0.1193
14325SOL    HW143553   9.378   1.075   4.838  0.6851  0.0139  0.8995
14325SOL    HW243554   9.227   1.068   4.838  0.6778 -0.0697 -0.2556
14326SOL     OW43555   9.344   2.676   0.533 -0.0418  0.5063 -0.6838
14326SOL    HW143556   9.292   2.610   0.486  1.1962 -1.6940  0.8732
14326SOL    HW243557   9.435   2.649   0.520  0.4435  1.1907  1.0159
14327SOL     OW43558   6.378   7.687   5.719  0.0020  0.4311  0.2866
14327SOL    HW143559   6.341   7.666   5.632 -0.9105 -0.4178  0.8483
14327SOL    HW243560   6.463   7.644   5.719 -0.5989 -0.8158  0.3127
14328SOL     OW43561   9.769   1.704   7.014  0.0858 -0.3325 -0.0660
14328SOL    HW143562   9.802   1.693   7.104  0.1211 -0.2289 -0.0656
14328SOL    HW243563   9.735   1.618   6.990  2.0766 -1.0028 -0.7577
14329SOL     OW43564   5.293   5.771   2.394  0.1410 -0.2759  0.4320
14329SOL    HW143565   5.370   5.727   2.430 -0.8559 -0.3860  2.5972
14329SOL    HW243566   5.223   5.707   2.404 -0.5756  0.4522  0.1180
14330SOL     OW43567   4.073   6.649   5.243  0.1001 -0.2178  0.1111
14330SOL    HW143568   4.025   6.668   5.323 -0.3845 -2.2921  0.3863
14330SOL    HW243569   4.140   6.585   5.270 -0.0581 -0.9461 -1.1088
14331SOL     OW43570   6.557   4.712   7.653  0.2263  0.3983  0.1175
14331SOL    HW143571   6.500   4.757   7.591  0.8956 -0.7517 -1.3983
14331SOL    HW243572   6.619   4.779   7.681  0.2588  0.8188 -0.9004
14332SOL     OW43573   2.473   8.714   7.990  0.3336  0.5473  0.1547
14332SOL    HW143574   2.568   8.716   7.976  0.3218 -0.5016 -0.1523
14332SOL    HW243575   2.452   8.802   8.021  1.2279  1.1725 -0.9069
14333SOL     OW43576   2.827   2.157   9.102  0.3840 -0.0597 -0.2617
14333SOL    HW143577   2.820   2.245   9.066  1.0327  0.2998  0.4650
14333SOL    HW243578   2.849   2.170   9.194  0.4157 -0.9775 -0.1289
14334SOL     OW43579   6.497   3.467   5.247 -0.8563  0.4709  0.0379
14334SOL    HW143580   6.457   3.385   5.216  1.1140 -0.4119 -0.3774
14334SOL    HW243581   6.582   3.439   5.282 -0.8884  2.1395  1.5556
14335SOL     OW43582   9.939  -0.016   4.506  0.5629  0.4055 -0.0171
14335SOL    HW143583   9.876  -0.023   4.434 -1.5378  1.7286  1.6019
14335SOL    HW243584  10.001   0.051   4.477 -0.6121  1.3673 -0.3520
14336SOL     OW43585   6.201   7.044   2.677  0.2120 -0.4917  0.0770
14336SOL    HW143586   6.216   7.097   2.598 -1.9856 -0.0371 -0.1005
14336SOL    HW243587   6.124   7.083   2.718  0.1420 -1.9307  1.4066
14337SOL     OW43588   2.162   8.998   4.014  0.4782 -0.0515  0.4689
14337SOL    HW143589   2.073   9.015   4.045  0.1919  1.5896 -1.1058
14337SOL    HW243590   2.214   9.070   4.050  0.8205 -0.0088 -0.1040
14338SOL     OW43591   7.038   7.454   9.104 -0.7628  0.0235  0.2089
14338SOL    HW143592   7.112   7.448   9.044 -1.8765  0.4938 -1.2765
14338SOL    HW243593   7.076   7.488   9.185  0.6321  0.3023 -0.5270
14339SOL     OW43594   7.161   9.703   0.533 -0.7861 -0.0666 -0.1143
14339SOL    HW143595   7.140   9.723   0.441  0.0849 -0.0250 -0.3135
14339SOL    HW243596   7.155   9.607   0.538  0.2934 -0.1728 -0.5207
14340SOL     OW43597   0.628   9.228   7.069 -0.1397 -0.7098  0.0120
14340SOL    HW143598   0.614   9.134   7.055  0.3369 -0.7836  0.0066
14340SOL    HW243599   0.685   9.255   6.996  0.8413 -0.7073  0.7512
14341SOL     OW43600   4.699   1.904   0.551 -0.4691  0.2125 -0.1525
14341SOL    HW143601   4.771   1.889   0.490  0.0305  0.5195  0.3474
14341SOL    HW243602   4.626   1.855   0.515 -0.1399  0.2831 -0.9225
14342SOL     OW43603   7.197   7.710   0.561  0.3849 -0.7500 -0.4908
14342SOL    HW143604   7.188   7.625   0.603 -1.0697 -0.6622 -0.5854
14342SOL    HW243605   7.143   7.769   0.614  3.0416  0.6404  0.8727
14343SOL     OW43606   7.719   1.411   3.465  0.1318  0.0720 -0.0443
14343SOL    HW143607   7.807   1.388   3.495  0.5166 -0.2031 -1.3430
14343SOL    HW243608   7.716   1.507   3.473  0.7999  0.1515 -0.6161
14344SOL     OW43609   9.681   3.515   3.837 -0.0023 -0.2554 -0.0828
14344SOL    HW143610   9.728   3.480   3.761  0.5496  0.7101 -0.2008
14344SOL    HW243611   9.649   3.438   3.883  0.6962 -0.8945 -0.6448
14345SOL     OW43612   5.556   4.274   2.310 -0.3379 -0.2980 -0.7703
14345SOL    HW143613   5.561   4.187   2.350  0.0335 -0.2820 -0.7767
14345SOL    HW243614   5.500   4.262   2.234  1.5742 -1.0859 -2.1428
14346SOL     OW43615   3.178   6.013   9.094  0.5696 -0.0172  0.6855
14346SOL    HW143616   3.132   5.956   9.156 -0.4313  1.7825  1.6600
14346SOL    HW243617   3.115   6.082   9.074  1.3949  0.2515 -1.2431
14347SOL     OW43618   1.573   1.611   4.048  0.1283  0.1202  0.0182
14347SOL    HW143619   1.563   1.558   3.969  0.2576 -0.9612  0.7100
14347SOL    HW243620   1.585   1.548   4.118  0.5765  1.0844  0.8333
14348SOL     OW43621   2.388   4.192   5.559 -0.4918  0.1508 -0.6393
14348SOL    HW143622   2.338   4.117   5.525  1.1991 -1.6497  0.6224
14348SOL    HW243623   2.446   4.154   5.625  0.0121  2.7102  0.5008
14349SOL     OW43624   3.498   8.001   4.669  0.2261  0.2013 -0.4527
14349SOL    HW143625   3.579   8.053   4.668  1.0136 -0.8455  2.0176
14349SOL    HW243626   3.430   8.063   4.644  1.5241  1.6397 -0.6155
14350SOL     OW43627   7.779   9.159   8.090  0.1772  0.8308  0.2350
14350SOL    HW143628   7.727   9.166   8.010 -1.2300  1.0212  1.1282
14350SOL    HW243629   7.826   9.243   8.095 -0.0034  0.9651 -0.1962
14351SOL     OW43630   5.915   7.537   0.829 -0.4281 -0.0929  0.1823
14351SOL    HW143631   5.940   7.579   0.747  0.6451  1.6528  1.3438
14351SOL    HW243632   5.944   7.446   0.819  0.1628  0.2185 -1.1520
14352SOL     OW43633   1.738   0.969   0.674  1.0421  0.4072  0.4476
14352SOL    HW143634   1.680   0.957   0.599 -0.3694  1.5914  1.3002
14352SOL    HW243635   1.787   1.049   0.654  2.3770 -0.5543 -0.2409
14353SOL     OW43636   2.452   7.259   3.483  0.4478 -0.5886 -0.3771
14353SOL    HW143637   2.486   7.295   3.402  1.6204  1.0201  0.7824
14353SOL    HW243638   2.402   7.182   3.456  1.6522 -0.6801 -2.5094
14354SOL     OW43639   8.806   6.090   1.100 -0.2500 -0.9752  0.5484
14354SOL    HW143640   8.739   6.155   1.123 -2.0296 -2.7085  0.5861
14354SOL    HW243641   8.828   6.048   1.183  0.1136 -1.1003  0.3879
14355SOL     OW43642   3.763   0.971   1.752 -0.0224  0.4142 -0.2472
14355SOL    HW143643   3.689   0.919   1.781  0.1099 -0.2280 -1.0151
14355SOL    HW243644   3.789   1.022   1.829 -1.1131  0.4857  0.0840
14356SOL     OW43645   0.692   0.074   5.478 -0.5696  0.2428 -0.2364
14356SOL    HW143646   0.659  -0.015   5.469  0.2644 -0.2859  1.4786
14356SOL    HW243647   0.623   0.120   5.527  0.4981 -0.4893  2.1063
14357SOL     OW43648   7.933   2.586   6.479 -0.2072  0.6545  0.0973
14357SOL    HW143649   7.848   2.615   6.446  0.4732 -0.7711 -3.4098
14357SOL    HW243650   7.972   2.664   6.518 -1.3463  2.6176 -2.3557
14358SOL     OW43651   9.921   8.286   9.209  0.5072 -0.1194 -0.0956
14358SOL    HW143652   9.962   8.281   9.295 -0.3270  1.1156  0.4161
14358SOL    HW243653   9.828   8.267   9.226  0.0605  1.5732 -0.4348
14359SOL     OW43654   8.547   3.008   6.129 -0.3143 -0.0296  0.2981
14359SOL    HW143655   8.622   3.033   6.183 -0.6665  0.1583  0.7075
14359SOL    HW243656   8.476   3.067   6.157 -1.2358 -1.6018  1.4471
14360SOL     OW43657   5.831   8.961   3.676  0.5498 -0.4251  0.2995
14360SOL    HW143658   5.780   8.892   3.633 -0.3219  0.0589  0.5395
14360SOL    HW243659   5.824   8.941   3.770  0.0002  0.1829  0.3928
14361SOL     OW43660   5.086   6.223   7.835 -0.1925  0.1635  0.6281
14361SOL    HW143661   5.177   6.249   7.817 -0.3289  0.0947 -0.1577
14361SOL    HW243662   5.033   6.297   7.807 -0.4150  0.0103  0.6423
14362SOL     OW43663   5.379   9.393   8.190 -0.0123  0.4556  0.1023
14362SOL    HW143664   5.451   9.422   8.134  0.2149  0.2487  0.2789
14362SOL    HW243665   5.419   9.327   8.247 -0.4135  0.1321  0.0091
14363SOL     OW43666   4.117   6.010   2.932 -0.3362  0.0151 -0.1100
14363SOL    HW143667   4.187   6.018   2.867 -1.7661 -1.1014 -1.8953
14363SOL    HW243668   4.160   5.976   3.010  1.0742 -0.8829 -1.2352
14364SOL     OW43669   6.838   4.455   9.493 -0.1335  0.6291  0.0863
14364SOL    HW143670   6.899   4.504   9.549 -0.8992  1.2767  0.3805
14364SOL    HW243671   6.775   4.417   9.554  0.8534 -1.3882 -0.0656
14365SOL     OW43672   9.870   9.065   6.399  0.3350 -0.0298 -0.5185
14365SOL    HW143673   9.865   9.134   6.333 -1.0820  1.3522  0.9300
14365SOL    HW243674   9.920   9.104   6.471 -1.6956  0.1172  0.9238
14366SOL     OW43675   0.977   4.282   5.490 -0.6883 -0.1756  0.2028
14366SOL    HW143676   0.955   4.352   5.429  1.6688  0.0169 -0.5342
14366SOL    HW243677   0.905   4.219   5.481 -1.8694  1.2115 -0.5575
14367SOL     OW43678   6.384   3.607   9.742  0.3064 -0.0508 -0.0386
14367SOL    HW143679   6.382   3.679   9.679  0.5294 -0.7364 -0.8391
14367SOL    HW243680   6.414   3.532   9.692 -0.9074 -0.9552  0.5433
14368SOL     OW43681   4.173   3.733   9.881  0.2005  0.4724 -0.3805
14368SOL    HW143682   4.254   3.775   9.852  0.5474  0.0622 -0.0392
14368SOL    HW243683   4.166   3.757   9.974  0.7280 -0.6920 -0.0189
14369SOL     OW43684   8.179   5.166   6.181  0.2745 -0.0363  0.2151
14369SOL    HW143685   8.208   5.257   6.176  0.5836 -0.1255  0.4039
14369SOL    HW243686   8.096   5.165   6.133  0.0263  0.4470  0.6184
14370SOL     OW43687   9.872   2.011   4.808  0.0441  0.2600 -0.1801
14370SOL    HW143688   9.779   2.013   4.826  0.2261 -2.2663  1.4478
14370SOL    HW243689   9.902   2.100   4.825 -1.4712  0.2835  2.9212
14371SOL     OW43690   2.115   2.669   5.320 -0.4914 -0.1797  0.3847
14371SOL    HW143691   2.158   2.741   5.365 -0.8510 -0.9109  1.9802
14371SOL    HW243692   2.065   2.710   5.250  0.9913  0.8915 -0.0914
14372SOL     OW43693   8.318   6.928   1.184  0.5654  0.0618 -0.3965
14372SOL    HW143694   8.306   6.961   1.095  1.1798  0.1592 -0.4456
14372SOL    HW243695   8.348   6.838   1.172  0.9812  0.1883 -0.2910
14373SOL     OW43696   9.865   6.209   7.211  0.3733  0.3989 -0.3626
14373SOL    HW143697   9.865   6.276   7.279 -0.4728  0.7923 -0.7419
14373SOL    HW243698   9.937   6.151   7.235  2.3090  2.4119 -1.0243
14374SOL     OW43699   8.165   0.646   1.046  0.0216 -0.2174  0.0136
14374SOL    HW143700   8.204   0.711   1.105 -2.0313  0.5011  0.6693
14374SOL    HW243701   8.100   0.601   1.100  0.6001 -2.0867 -0.7535
14375SOL     OW43702   7.043   6.964   3.332 -0.2913 -0.7395 -0.2825
14375SOL    HW143703   6.951   6.941   3.346 -1.4346  3.1314 -0.2281
14375SOL    HW243704   7.049   6.980   3.238  0.5216 -1.5141 -0.3747
14376SOL     OW43705   6.047   2.899   2.307 -0.1557  0.1582  0.4792
14376SOL    HW143706   5.988   2.873   2.236 -0.7591  1.7000  0.3859
14376SOL    HW243707   6.029   2.992   2.321  0.9525  0.2191  1.7120
14377SOL     OW43708   5.671   8.723   1.038  0.2263 -0.2619 -0.0334
14377SOL    HW143709   5.601   8.671   1.080  0.3724 -2.4353 -2.2365
14377SOL    HW243710   5.752   8.681   1.068  0.5196  0.8033  0.7055
14378SOL     OW43711   6.821   6.550   1.460  0.1372  0.1958  0.3570
14378SOL    HW143712   6.805   6.637   1.423  0.3666  0.0307 -0.1473
14378SOL    HW243713   6.747   6.534   1.518 -1.3076 -0.3411 -1.5297
14379SOL     OW43714   3.906   6.463   8.495  0.2010  0.3983  0.4477
14379SOL    HW143715   3.996   6.481   8.468 -0.0602  1.1984  0.0824
14379SOL    HW243716   3.909   6.464   8.591  0.8355 -0.9584  0.4766
14380SOL     OW43717   2.282   4.228   0.521 -0.1180 -0.2126  0.1858
14380SOL    HW143718   2.244   4.150   0.479 -1.8760  0.1518  1.0062
14380SOL    HW243719   2.234   4.301   0.484 -0.7211  0.2224  1.7286
14381SOL     OW43720   5.616   9.086   6.558 -0.1531 -0.2098 -0.1746
14381SOL    HW143721   5.699   9.039   6.548 -0.3766 -0.3757 -1.4154
14381SOL    HW243722   5.639   9.163   6.612  0.6354 -0.6507  0.1464
14382SOL     OW43723   0.900   0.743   8.177 -0.3212 -0.1333 -0.0560
14382SOL    HW143724   0.900   0.664   8.123  1.0748 -0.3293  0.1966
14382SOL    HW243725   0.830   0.797   8.141  1.0975  0.1257 -2.6297
14383SOL     OW43726   3.330   7.206   8.547  0.0269  0.4036 -0.0085
14383SOL    HW143727   3.255   7.177   8.495  0.3398  3.1568 -2.2320
14383SOL    HW243728   3.309   7.179   8.636 -1.3309 -3.0941 -1.1879
14384SOL     OW43729   4.167   3.062   5.093 -0.4635 -0.1322  0.3211
14384SOL    HW143730   4.096   3.116   5.127 -0.1835  0.1007  0.5375
14384SOL    HW243731   4.171   2.986   5.151 -0.4434 -0.0783  0.3891
14385SOL     OW43732   7.975   8.846   7.157 -0.0124  0.0228 -0.8985
14385SOL    HW143733   8.000   8.776   7.217 -0.7383  0.2989 -0.2637
14385SOL    HW243734   7.941   8.802   7.080  0.6688 -0.3294 -1.0085
14386SOL     OW43735   1.981   5.942   5.146  0.3046  0.2044 -0.1970
14386SOL    HW143736   2.065   5.988   5.144  0.9200 -0.9264 -1.2346
14386SOL    HW243737   1.974   5.901   5.060  0.3755 -2.6510  1.0448
14387SOL     OW43738   9.937   5.210   4.258  0.1794  0.1039  0.2770
14387SOL    HW143739   9.908   5.141   4.199  1.6452 -0.0993 -0.2405
14387SOL    HW243740   9.859   5.263   4.274 -0.9793 -1.6342  0.6631
14388SOL     OW43741   4.776   4.973   1.467 -0.3814  0.5072 -0.1864
14388SOL    HW143742   4.773   5.063   1.501 -1.0689  1.1026 -1.7649
14388SOL    HW243743   4.867   4.961   1.440 -0.5791  1.2195 -1.2094
14389SOL     OW43744   5.347   2.355   1.791 -0.2912  0.1411 -0.1203
14389SOL    HW143745   5.436   2.346   1.758  0.6588  0.3499  2.1575
14389SOL    HW243746   5.307   2.270   1.775  0.6187 -0.2463 -0.4040
14390SOL     OW43747   2.097   3.626   9.483 -0.1754 -0.8968  0.1617
14390SOL    HW143748   2.112   3.696   9.419 -2.2182 -0.4378  0.1052
14390SOL    HW243749   2.169   3.565   9.470  1.0716  0.6737 -0.5250
14391SOL     OW43750   8.746   6.658   0.192 -0.9307  0.6783 -0.1321
14391SOL    HW143751   8.677   6.701   0.243 -0.3282  1.9886 -0.3959
14391SOL    HW243752   8.817   6.721   0.189  0.4309 -0.7646  0.3791
14392SOL     OW43753   7.723   7.856   4.458 -0.0555 -0.5618 -0.5796
14392SOL    HW143754   7.808   7.857   4.501 -0.1862  1.2482 -0.2860
14392SOL    HW243755   7.743   7.854   4.365  0.2895 -0.9884 -0.4969
14393SOL     OW43756   5.549   2.830   1.753 -0.6970 -0.1428 -0.3500
14393SOL    HW143757   5.499   2.753   1.727 -0.0279 -0.0009 -2.2672
14393SOL    HW243758   5.583   2.865   1.670  2.0425  0.1096  0.7708
14394SOL     OW43759   3.273   1.948   5.527 -0.0524  0.2563 -0.0835
14394SOL    HW143760   3.191   1.898   5.524  0.6763 -0.9396 -1.4956
14394SOL    HW243761   3.255   2.027   5.476 -0.5008  0.2785  0.1064
14395SOL     OW43762   2.985   1.026   0.718 -0.0008 -0.7872 -0.4378
14395SOL    HW143763   2.955   1.010   0.628 -1.1032  0.1114 -0.2662
14395SOL    HW243764   3.057   0.965   0.731 -0.9195 -2.1345 -1.3565
14396SOL     OW43765   5.492   6.736   3.674  0.0653  0.7810 -0.5769
14396SOL    HW143766   5.576   6.732   3.629 -0.4750  3.1120 -1.9763
14396SOL    HW243767   5.427   6.718   3.605 -0.6237 -1.4092  0.5638
14397SOL     OW43768   2.687   5.054   1.617  0.0001 -0.1243  0.3343
14397SOL    HW143769   2.761   5.073   1.674 -0.4775  0.6801  0.7071
14397SOL    HW243770   2.631   4.996   1.669 -1.2037  1.8321  1.3551
14398SOL     OW43771   7.114   6.079   5.167 -0.1250 -0.5670  0.4563
14398SOL    HW143772   7.134   6.060   5.259  1.0477  1.5544  0.7154
14398SOL    HW243773   7.100   6.174   5.165  2.9898  0.0316 -2.0122
14399SOL     OW43774   1.259   3.755   0.761 -0.1523  0.4420 -0.3821
14399SOL    HW143775   1.317   3.679   0.768  0.1105  0.8008  2.4086
14399SOL    HW243776   1.316   3.830   0.779 -0.6481  1.2276 -1.9264
14400SOL     OW43777   8.133   6.969   3.906  0.3128 -0.1233 -0.0348
14400SOL    HW143778   8.180   6.927   3.978  0.3853  0.8013  0.4718
14400SOL    HW243779   8.041   6.948   3.922  0.4262 -0.8285 -0.2872
14401SOL     OW43780   3.744   3.464   8.402  0.2610 -0.2592  0.0118
14401SOL    HW143781   3.745   3.510   8.318  1.6450  0.0084  0.1389
14401SOL    HW243782   3.666   3.497   8.447  0.0310  0.3183 -0.7818
14402SOL     OW43783   9.270   5.191   4.863  0.0735 -0.4358 -0.4106
14402SOL    HW143784   9.188   5.241   4.865  0.8172  0.8014  0.7072
14402SOL    HW243785   9.278   5.162   4.773 -1.2282  0.0433 -0.7043
14403SOL     OW43786   2.075   0.540   8.048 -0.3977 -0.4127  0.1749
14403SOL    HW143787   2.008   0.572   8.108  0.8893 -0.5983  1.7811
14403SOL    HW243788   2.120   0.619   8.019  1.0864 -0.4820  2.0886
14404SOL     OW43789   2.853   2.353   0.617 -0.3643 -0.8880 -0.1379
14404SOL    HW143790   2.796   2.399   0.678 -0.9351 -1.2461 -0.3943
14404SOL    HW243791   2.939   2.355   0.658 -0.9558 -2.1451  1.2664
14405SOL     OW43792   6.889   2.445   8.720 -0.6781  0.2568 -0.1446
14405SOL    HW143793   6.841   2.369   8.688 -0.6625 -0.6963  1.9244
14405SOL    HW243794   6.821   2.508   8.746 -0.6975  0.7647 -1.3719
14406SOL     OW43795   6.773   3.922   8.819 -0.0628  0.2888 -0.5676
14406SOL    HW143796   6.678   3.932   8.824 -0.1394 -0.9503  1.9670
14406SOL    HW243797   6.807   4.010   8.835 -0.7770  0.3812  0.4925
14407SOL     OW43798   9.540   1.308   2.936 -0.1706 -0.0696  0.4715
14407SOL    HW143799   9.540   1.401   2.912  0.5975  0.1069  1.1059
14407SOL    HW243800   9.603   1.302   3.008 -0.2390 -1.0792  0.4605
14408SOL     OW43801   9.143   3.013   3.087  0.3535  0.0616  0.0019
14408SOL    HW143802   9.127   2.972   3.172 -0.1221 -0.3233 -0.2641
14408SOL    HW243803   9.233   3.045   3.092  0.6518 -0.7804  0.3208
14409SOL     OW43804   8.948   4.327   5.093 -0.6561  0.2150 -0.1953
14409SOL    HW143805   9.021   4.315   5.032 -0.4518 -0.1961  0.1290
14409SOL    HW243806   8.957   4.418   5.122  0.7556 -0.3191  1.1422
14410SOL     OW43807   8.033   7.840   4.943 -0.4191 -0.1137 -0.3087
14410SOL    HW143808   7.950   7.883   4.924 -1.9511 -1.1297  3.3249
14410SOL    HW243809   8.021   7.750   4.913 -0.6023 -0.2332  0.1188
14411SOL     OW43810   8.703   3.667   4.501  0.0689  0.1785  0.0321
14411SOL    HW143811   8.723   3.722   4.577  1.3763  0.9595 -0.8305
14411SOL    HW243812   8.673   3.584   4.538  0.0735  0.7535  1.3870
14412SOL     OW43813   2.574   5.326   5.764  0.1884  0.1717  0.0112
14412SOL    HW143814   2.640   5.305   5.698 -1.1565 -1.8087 -0.8105
14412SOL    HW243815   2.567   5.246   5.817  0.4208  1.3311  1.8617
14413SOL     OW43816   7.087   5.040   8.421  0.4276  0.1392 -0.4018
14413SOL    HW143817   7.116   4.999   8.502 -2.4818  1.3339  1.3984
14413SOL    HW243818   7.065   5.130   8.446 -2.8166 -0.1055 -1.8424
14414SOL     OW43819   1.563   3.148   1.465  0.4878 -0.3737 -0.2392
14414SOL    HW143820   1.500   3.221   1.472 -1.7471 -2.2040 -0.0485
14414SOL    HW243821   1.625   3.164   1.536  1.3390  2.3882 -1.4355
14415SOL     OW43822   4.633   7.900   2.698  0.0238  0.1428  0.4802
14415SOL    HW143823   4.718   7.870   2.666 -0.3136  0.8587 -1.2242
14415SOL    HW243824   4.581   7.821   2.708  0.1960 -0.1412 -0.6932
14416SOL     OW43825   6.757   1.038   6.024 -0.1306 -0.2157  0.6491
14416SOL    HW143826   6.765   0.950   6.061  0.3553 -0.1981  0.5932
14416SOL    HW243827   6.686   1.031   5.960  1.3786 -1.1553 -1.0235
14417SOL     OW43828   6.726   8.989   0.079 -0.0925  0.3803 -0.2466
14417SOL    HW143829   6.685   8.911   0.116  0.7807  0.5426  1.1545
14417SOL    HW243830   6.655   9.053   0.072 -1.4190 -1.2382 -3.8373
14418SOL     OW43831   8.977   0.491   7.348 -0.4544  0.5775  0.2498
14418SOL    HW143832   8.944   0.401   7.353 -0.0508  0.4294  0.3244
14418SOL    HW243833   9.052   0.485   7.289  0.1197  0.6951  0.9500
14419SOL     OW43834   3.516   6.461   4.149 -0.0848  0.1333  0.7567
14419SOL    HW143835   3.511   6.470   4.054  1.8525  1.0413  0.6966
14419SOL    HW243836   3.471   6.538   4.183 -0.6239 -0.1015  0.5892
14420SOL     OW43837   7.319   1.511   1.531  0.4306  0.3320 -0.5149
14420SOL    HW143838   7.224   1.504   1.520  0.2061  0.7917  0.9093
14420SOL    HW243839   7.353   1.430   1.492 -0.5219  0.2098 -1.1445
14421SOL     OW43840   9.580   6.815   7.634  0.4062  0.0111  0.2097
14421SOL    HW143841   9.548   6.890   7.585  0.8653  0.2170  0.2162
14421SOL    HW243842   9.522   6.743   7.609  0.5845  0.1277 -0.5660
14422SOL     OW43843   8.529   6.279   2.986 -0.5613  0.4919  0.0711
14422SOL    HW143844   8.586   6.242   2.918 -1.1022  0.0076 -0.1280
14422SOL    HW243845   8.460   6.324   2.938  0.1413  1.8648  0.3141
14423SOL     OW43846   3.539   5.329   9.039  0.5455  0.4278  0.1798
14423SOL    HW143847   3.622   5.354   9.081  1.2922 -0.2990 -0.8357
14423SOL    HW243848   3.549   5.237   9.018 -0.9098  0.0708  0.8898
14424SOL     OW43849   5.161   4.200   3.371 -0.0310 -0.1019 -0.1812
14424SOL    HW143850   5.125   4.144   3.302 -0.3900 -0.6939  0.4703
14424SOL    HW243851   5.168   4.142   3.447  1.9460  0.0961 -0.1635
14425SOL     OW43852   6.325   1.866   7.306  0.2390  0.1580  0.3480
14425SOL    HW143853   6.252   1.909   7.260 -0.0141 -0.5126  0.1060
14425SOL    HW243854   6.368   1.936   7.354 -0.1362  0.6898 -0.0811
14426SOL     OW43855   0.372   1.007   2.307 -0.1672 -0.4412 -0.4390
14426SOL    HW143856   0.434   0.967   2.368  0.3832  0.6029 -0.2876
14426SOL    HW243857   0.292   0.956   2.318  0.1424 -0.7338  0.6319
14427SOL     OW43858   7.757   2.499   7.551 -0.0095  0.5390 -0.4428
14427SOL    HW143859   7.839   2.472   7.591  0.9373  2.0767 -1.2362
14427SOL    HW243860   7.745   2.439   7.477  0.3776  0.2663 -0.2847
14428SOL     OW43861   4.770   4.816   5.693  0.1920 -0.0327  0.3279
14428SOL    HW143862   4.832   4.805   5.621  2.8744  0.7635  2.3618
14428SOL    HW243863   4.778   4.908   5.717 -0.6919 -0.2640  1.5857
14429SOL     OW43864   0.383   5.623   9.757 -0.1390  0.1390  0.6390
14429SOL    HW143865   0.466   5.646   9.717  0.5579 -1.6664  0.9607
14429SOL    HW243866   0.394   5.642   9.850 -0.3867  0.6717  0.5628
14430SOL     OW43867   2.147   5.420   3.941  0.6185  0.4569  0.3861
14430SOL    HW143868   2.094   5.407   3.862 -1.1885  2.3017  1.2142
14430SOL    HW243869   2.165   5.332   3.972  1.5191 -0.3488 -2.1086
14431SOL     OW43870   2.368   0.475   1.201  0.7206  0.0768  0.3087
14431SOL    HW143871   2.279   0.484   1.235  0.8772 -1.6860  1.2997
14431SOL    HW243872   2.390   0.383   1.216  2.4495  0.3110 -0.5856
14432SOL     OW43873   1.006   2.155   0.108 -0.4537  0.1696  0.2740
14432SOL    HW143874   1.036   2.067   0.089  0.5971  0.1820  1.7159
14432SOL    HW243875   1.042   2.175   0.195 -1.1697  1.7818  0.2434
14433SOL     OW43876   2.986   8.033   1.167 -0.1889  0.2272  0.8863
14433SOL    HW143877   3.052   8.094   1.200  0.2015 -0.3840  1.2562
14433SOL    HW243878   2.907   8.053   1.217 -0.0550  0.4171  1.0231
14434SOL     OW43879   9.167   0.497   8.895  0.3545  0.0002 -0.2056
14434SOL    HW143880   9.086   0.548   8.892  0.8950  1.0870  2.0072
14434SOL    HW243881   9.171   0.463   8.984  1.6922 -1.1560 -0.6680
14435SOL     OW43882   4.052   5.215   6.410 -0.0643 -0.0956  0.0946
14435SOL    HW143883   3.961   5.237   6.390  0.5608  1.1514 -1.5451
14435SOL    HW243884   4.084   5.170   6.332  1.3463  1.4659 -0.2819
14436SOL     OW43885   6.653   4.119   6.392  0.0916 -0.4549 -0.2517
14436SOL    HW143886   6.685   4.172   6.319 -0.2209 -1.5569 -1.2298
14436SOL    HW243887   6.565   4.093   6.366 -0.0607 -0.7787  0.5685
14437SOL     OW43888   5.468   5.164   2.149 -0.3110  0.1739  0.1758
14437SOL    HW143889   5.460   5.106   2.224  0.9155 -1.7793 -1.1166
14437SOL    HW243890   5.425   5.118   2.077  0.7106  0.8188 -0.9037
14438SOL     OW43891   3.682   3.429   3.981 -0.0123 -0.3301 -0.3690
14438SOL    HW143892   3.770   3.393   3.967  0.2072  0.4919 -1.2469
14438SOL    HW243893   3.628   3.353   4.001  0.5622 -1.0904 -1.5448
14439SOL     OW43894   5.744   4.774   1.499  0.1108  0.3447 -0.0070
14439SOL    HW143895   5.829   4.762   1.542  0.7114  1.7087 -0.7540
14439SOL    HW243896   5.758   4.745   1.409 -0.3647  0.0625  0.0110
14440SOL     OW43897   9.627   0.208   5.155  0.6732  0.0107 -0.0404
14440SOL    HW143898   9.571   0.250   5.221 -0.2257 -3.2027  1.4532
14440SOL    HW243899   9.696   0.272   5.138 -1.0611  2.4199  1.2821
14441SOL     OW43900   5.124   0.385   0.031  0.4501 -0.4540  0.4500
14441SOL    HW143901   5.031   0.369   0.045  0.3329  1.5451  2.4080
14441SOL    HW243902   5.127   0.447  -0.041  0.2926 -0.6990  0.2308
14442SOL     OW43903   5.530   4.224   5.693  0.0973  0.3413  0.2929
14442SOL    HW143904   5.455   4.255   5.744 -0.0100 -0.6549  0.7666
14442SOL    HW243905   5.496   4.151   5.642  0.7987 -0.3406  0.7608
14443SOL     OW43906   5.580   4.268   9.027  0.4057  0.0294 -0.4511
14443SOL    HW143907   5.519   4.263   8.954 -0.3953  0.4731  0.1758
14443SOL    HW243908   5.657   4.313   8.991 -0.7683  2.0770 -0.5270
14444SOL     OW43909   4.235   0.054   9.892  0.1762  0.1383 -0.3863
14444SOL    HW143910   4.191   0.137   9.912  0.0645  0.0666 -0.3299
14444SOL    HW243911   4.177   0.011   9.829  1.8578  1.5785 -3.0681
14445SOL     OW43912   3.539   2.918   0.225  0.5955  0.2345 -0.0092
14445SOL    HW143913   3.514   2.989   0.167  1.2676  1.1612  0.7861
14445SOL    HW243914   3.635   2.923   0.229  0.6192 -0.4050  0.4433
14446SOL     OW43915   9.250   0.702   9.875 -0.0406  0.1839  0.1118
14446SOL    HW143916   9.326   0.645   9.865 -0.9780 -0.9201 -1.0341
14446SOL    HW243917   9.237   0.709   9.970  1.9012  1.0016  0.3557
14447SOL     OW43918   7.673   6.132   7.476  0.1155  0.0827 -0.6109
14447SOL    HW143919   7.590   6.145   7.430  0.6302 -0.0347 -1.6056
14447SOL    HW243920   7.692   6.216   7.517 -0.3569  0.1952 -0.6258
14448SOL     OW43921   1.122   8.767   2.391  0.4497  0.4954 -0.1047
14448SOL    HW143922   1.213   8.781   2.361  0.0354  1.0071 -1.2081
14448SOL    HW243923   1.099   8.849   2.434  1.1059 -0.3092  1.8716
14449SOL     OW43924   3.238   9.305   8.283 -0.1801  0.7359 -0.4805
14449SOL    HW143925   3.297   9.242   8.240 -0.5067  0.2190 -0.1849
14449SOL    HW243926   3.160   9.307   8.227 -0.4051  0.4372 -0.1792
14450SOL     OW43927   3.031   0.768   5.458 -0.4038 -0.1307 -0.1068
14450SOL    HW143928   2.992   0.773   5.371  0.7879  0.0435 -0.6525
14450SOL    HW243929   3.124   0.750   5.442  0.1386  1.3777  1.0563
14451SOL     OW43930   2.997   8.870   1.856 -0.2087  0.0486 -0.2954
14451SOL    HW143931   3.089   8.879   1.831 -0.3136  1.3509 -0.2649
14451SOL    HW243932   2.957   8.953   1.831 -0.9928  0.1915  1.3214
14452SOL     OW43933   1.419   2.014   2.354  0.5833 -0.6912 -0.1358
14452SOL    HW143934   1.434   2.086   2.293  0.1627 -0.8919 -0.4770
14452SOL    HW243935   1.414   1.936   2.299 -0.6975 -0.7646  0.0662
14453SOL     OW43936   5.880   8.981   7.257  0.4099 -0.1298 -0.1926
14453SOL    HW143937   5.801   8.929   7.243  0.2372 -0.1001  0.5871
14453SOL    HW243938   5.952   8.920   7.240  0.2094 -0.5527  0.4277
14454SOL     OW43939   5.676   6.909   7.228  0.6629 -0.2995 -0.5092
14454SOL    HW143940   5.664   6.876   7.318  0.6422 -1.0624 -0.7883
14454SOL    HW243941   5.657   6.834   7.172 -0.2436  0.4100 -1.1929
14455SOL     OW43942   3.531   4.949   7.614 -0.0330 -0.6309  0.6808
14455SOL    HW143943   3.479   4.869   7.615  1.6816 -1.8485 -0.6708
14455SOL    HW243944   3.561   4.959   7.705 -1.8162 -0.3803  1.2860
14456SOL     OW43945   0.714   4.396   2.605 -0.0530 -0.3893 -0.6364
14456SOL    HW143946   0.801   4.364   2.581  0.7429 -0.0744  1.5848
14456SOL    HW243947   0.664   4.317   2.626  0.4414 -0.4680  0.2945
14457SOL     OW43948   2.368   9.890   8.070 -0.9948 -0.0802 -0.1283
14457SOL    HW143949   2.283   9.845   8.065 -0.9314 -0.1051 -1.1334
14457SOL    HW243950   2.430   9.827   8.033 -0.4326 -0.2807  1.1167
14458SOL     OW43951   6.163   3.625   6.903  0.2965  0.1716  0.3713
14458SOL    HW143952   6.207   3.705   6.872 -1.5092  0.3244 -2.0883
14458SOL    HW243953   6.150   3.573   6.824  1.7686 -2.8563  1.9587
14459SOL     OW43954   0.599   7.331   1.547 -0.5126  0.1830  0.1427
14459SOL    HW143955   0.522   7.275   1.547 -0.7529  0.4735 -1.3211
14459SOL    HW243956   0.673   7.270   1.556 -0.8404 -0.2020  0.2705
14460SOL     OW43957   2.774   8.945   9.912  0.8023  0.3400  0.1677
14460SOL    HW143958   2.774   9.011   9.843  0.7319  0.2097  0.0424
14460SOL    HW243959   2.862   8.950   9.949  1.6507 -1.1654 -1.4743
14461SOL     OW43960   0.574   9.893   3.631  0.3493 -0.4382 -0.2336
14461SOL    HW143961   0.544   9.859   3.547 -0.2482 -0.2097 -0.1139
14461SOL    HW243962   0.613   9.817   3.674  1.7078 -0.3138 -1.1725
14462SOL     OW43963   9.175   6.154   2.247  0.6032  0.6344 -0.2316
14462SOL    HW143964   9.249   6.098   2.227 -0.2314 -0.7515  0.3983
14462SOL    HW243965   9.214   6.234   2.284  1.7478 -0.7522  1.7450
14463SOL     OW43966   7.090   9.268   2.824  0.3411  0.1730  0.2943
14463SOL    HW143967   7.170   9.261   2.772 -1.0464  0.0550 -1.9875
14463SOL    HW243968   7.023   9.295   2.761 -1.4097  0.4048  2.1415
14464SOL     OW43969   7.950   2.941   0.114  0.3239 -0.1134  0.0072
14464SOL    HW143970   7.881   2.926   0.049 -0.3270  0.5951  0.5141
14464SOL    HW243971   7.996   2.857   0.120 -1.1005 -0.8976  0.3586
14465SOL     OW43972   2.727   9.100   2.527  0.4859 -0.5406  0.0356
14465SOL    HW143973   2.789   9.110   2.598  1.9877  1.1593 -1.4201
14465SOL    HW243974   2.779   9.069   2.453 -0.7293 -0.7745 -0.7618
14466SOL     OW43975   6.256   9.382   7.067  0.3071  0.2465 -0.4312
14466SOL    HW143976   6.253   9.438   6.990 -0.3185  1.1936  0.2720
14466SOL    HW243977   6.267   9.294   7.032 -0.2897  0.6269 -1.6151
14467SOL     OW43978   8.079   2.642   8.919 -0.1388  0.6640 -0.4703
14467SOL    HW143979   8.092   2.561   8.869 -2.4781 -0.1396  0.0839
14467SOL    HW243980   8.017   2.693   8.866  0.8757  1.8731 -0.5417
14468SOL     OW43981   4.011   3.312   4.871 -0.1062 -0.6399  0.0169
14468SOL    HW143982   4.068   3.376   4.914  0.9586 -0.8709 -1.0062
14468SOL    HW243983   3.976   3.259   4.943  0.4212 -0.0490  0.7179
14469SOL     OW43984   8.087   1.484   6.081 -0.3709 -0.1281 -0.0011
14469SOL    HW143985   8.030   1.555   6.052 -1.0056  0.2416  1.9421
14469SOL    HW243986   8.168   1.527   6.106 -0.7963 -0.0067  1.2916
14470SOL     OW43987   4.998   0.997   6.398 -0.2392  0.0022 -0.3556
14470SOL    HW143988   4.905   0.980   6.380 -0.6432  0.6376  1.0009
14470SOL    HW243989   5.028   1.047   6.322 -1.0194 -0.1382 -0.7749
14471SOL     OW43990   9.053   5.466   5.301 -0.4543 -0.1892  0.2536
14471SOL    HW143991   9.042   5.534   5.367  0.0759 -0.9294  1.1307
14471SOL    HW243992   9.019   5.387   5.342 -0.9008 -0.4970 -0.6851
14472SOL     OW43993   7.063   3.072   9.364 -0.0352  0.6265 -0.0307
14472SOL    HW143994   7.048   3.033   9.450 -0.4500 -1.3027 -0.9230
14472SOL    HW243995   7.152   3.045   9.340  0.4699  2.0204  0.1998
14473SOL     OW43996   0.980   0.280   8.445  0.8393 -0.3240  0.3544
14473SOL    HW143997   1.059   0.285   8.390  1.4835 -0.0706  1.2913
14473SOL    HW243998   0.917   0.337   8.401  1.5526  0.3645  0.2046
14474SOL     OW43999   0.440   8.720   2.874 -0.1816 -0.1768 -0.2477
14474SOL    HW144000   0.491   8.766   2.807  0.2152  0.1200  0.2547
14474SOL    HW244001   0.448   8.627   2.850  1.4684 -0.2424  0.3908
14475SOL     OW44002   5.922   2.134   1.667 -0.2488  0.4530  0.1089
14475SOL    HW144003   5.936   2.152   1.574 -0.6689 -0.0055 -0.0446
14475SOL    HW244004   6.003   2.163   1.709  0.4777 -0.5426 -0.5591
14476SOL     OW44005   6.666   7.062   1.136 -0.1396 -0.1327  0.2013
14476SOL    HW144006   6.689   7.104   1.053 -0.3424 -0.5747 -0.0836
14476SOL    HW244007   6.693   6.971   1.126 -0.5473 -0.2879  0.4588
14477SOL     OW44008   6.659   8.025   3.224  0.3232  0.9901 -0.3608
14477SOL    HW144009   6.642   8.021   3.130 -0.3230  0.5918 -0.2350
14477SOL    HW244010   6.688   7.937   3.247  0.3203  1.0403 -0.1593
14478SOL     OW44011   1.096   9.991   3.757 -0.0245  1.1730  0.2922
14478SOL    HW144012   1.064   9.941   3.681  0.9345  3.4579 -1.7580
14478SOL    HW244013   1.164   9.935   3.794 -1.0662 -0.3637  0.0168
14479SOL     OW44014   7.971   6.300   9.348 -0.4515 -0.0503 -0.0242
14479SOL    HW144015   7.960   6.333   9.259  0.0511  0.8651  0.2438
14479SOL    HW244016   8.017   6.217   9.337 -0.5083 -0.0068 -0.6245
14480SOL     OW44017   2.518   5.273   7.866 -0.7267 -0.0762 -0.3576
14480SOL    HW144018   2.429   5.268   7.831 -0.8324  0.1556 -0.1291
14480SOL    HW244019   2.561   5.339   7.813 -0.3212 -1.0330 -1.2509
14481SOL     OW44020   6.276   9.421   0.142 -0.0114 -0.3100 -0.4465
14481SOL    HW144021   6.351   9.439   0.086 -0.5887  0.6171 -0.9347
14481SOL    HW244022   6.215   9.493   0.126 -2.0726 -2.2210 -1.8367
14482SOL     OW44023   7.220   2.518   6.267 -0.0418  0.2084 -0.6190
14482SOL    HW144024   7.146   2.492   6.323 -1.4876 -2.3282 -3.4402
14482SOL    HW244025   7.297   2.484   6.312 -1.0391 -0.8903  0.3204
14483SOL     OW44026   2.617   9.248   0.911  0.1232  0.3542  0.2678
14483SOL    HW144027   2.594   9.155   0.905 -0.2375  0.3830  1.1060
14483SOL    HW244028   2.591   9.284   0.826  0.8489 -0.4281 -0.2986
14484SOL     OW44029   6.112   6.044   1.689 -0.3319 -0.4103  0.0704
14484SOL    HW144030   6.101   6.128   1.734 -1.2565 -0.2006 -0.5203
14484SOL    HW244031   6.146   6.067   1.603  0.1806 -0.7043  0.1963
14485SOL     OW44032   6.367   0.381   3.479  0.2101 -0.5224  0.0294
14485SOL    HW144033   6.290   0.431   3.452  0.8484 -0.3861 -1.6629
14485SOL    HW244034   6.358   0.297   3.435  0.6204 -0.8091  0.4857
14486SOL     OW44035   7.712   4.561   8.926  0.2385  0.1318  0.3949
14486SOL    HW144036   7.802   4.553   8.895 -0.2436  0.3903 -1.1433
14486SOL    HW244037   7.717   4.537   9.019  1.7249 -0.7408  0.1266
14487SOL     OW44038   6.646   9.181   5.461  0.1595  0.1049  0.1761
14487SOL    HW144039   6.682   9.102   5.422 -1.3480  0.2657 -1.6806
14487SOL    HW244040   6.713   9.248   5.446 -0.2692  0.1151 -2.0500
14488SOL     OW44041   1.317   3.527   8.673  0.0078 -0.0824 -0.5701
14488SOL    HW144042   1.225   3.544   8.652  0.3247  1.4210 -0.8884
14488SOL    HW244043   1.338   3.445   8.628 -0.9248  0.0443 -1.2568
14489SOL     OW44044   1.034   7.722   2.559  0.2117  0.0702  0.0555
14489SOL    HW144045   1.075   7.639   2.583 -0.0209 -0.0030  0.2034
14489SOL    HW244046   1.075   7.787   2.617 -0.7947 -0.1996  1.1232
14490SOL     OW44047   5.312   4.231   8.256  0.0196 -0.2889 -0.3489
14490SOL    HW144048   5.400   4.239   8.220  0.6914 -2.4065  0.6599
14490SOL    HW244049   5.281   4.145   8.227 -0.7025 -0.6528  1.3250
14491SOL     OW44050   2.955   0.153   3.036  0.4561  0.0720 -0.2464
14491SOL    HW144051   2.954   0.073   2.983  2.0814  0.5145 -1.0217
14491SOL    HW244052   2.864   0.164   3.065 -0.0461 -1.3641 -1.1588
14492SOL     OW44053   9.635   1.454   5.311 -0.3521  0.1405 -0.1636
14492SOL    HW144054   9.612   1.547   5.314  0.4425  0.3202  1.6542
14492SOL    HW244055   9.566   1.411   5.363 -1.7963 -0.5957 -2.5394
14493SOL     OW44056   7.058   0.615   0.056  0.2086  0.1944  0.1796
14493SOL    HW144057   7.146   0.613   0.018  0.5918  1.1295  0.9749
14493SOL    HW244058   7.004   0.657  -0.011  0.7153  1.1182  0.3310
14494SOL     OW44059   3.434   8.366   6.679  0.1288  0.0542  0.3583
14494SOL    HW144060   3.356   8.330   6.720  0.1689  1.1131  1.4281
14494SOL    HW244061   3.402   8.442   6.631  0.6924  1.6895  2.4058
14495SOL     OW44062   3.763   3.227   2.786  0.1416  0.5092  0.2070
14495SOL    HW144063   3.671   3.205   2.792  0.0187  1.2648  1.8872
14495SOL    HW244064   3.766   3.322   2.797  0.9011  1.0457 -3.2768
14496SOL     OW44065   4.556   0.337   2.757  0.5539 -0.1848  0.2754
14496SOL    HW144066   4.495   0.327   2.830 -0.5629 -0.3693 -0.6541
14496SOL    HW244067   4.613   0.410   2.783 -1.3095  1.3176  0.3576
14497SOL     OW44068   3.671   6.810   1.928 -0.1443 -0.5344  0.7082
14497SOL    HW144069   3.709   6.732   1.887 -0.1177  0.0683 -0.4454
14497SOL    HW244070   3.620   6.775   2.001 -0.5607 -1.6830 -0.0962
14498SOL     OW44071   1.438   0.733   5.815 -0.5338  0.2367 -0.2883
14498SOL    HW144072   1.415   0.781   5.735 -2.5735  0.2068  0.2274
14498SOL    HW244073   1.534   0.726   5.812 -0.2348  3.1203 -1.0747
14499SOL     OW44074   1.203   3.011   3.125  0.0842  0.3023 -0.8758
14499SOL    HW144075   1.216   3.037   3.216  0.8519 -1.4331 -0.4419
14499SOL    HW244076   1.108   3.001   3.116  0.0257  0.1599 -0.1622
14500SOL     OW44077   8.394   5.058   4.821 -0.1719 -0.6383  0.2581
14500SOL    HW144078   8.315   5.014   4.790  0.2678  0.0600 -2.0400
14500SOL    HW244079   8.364   5.146   4.845 -0.2640 -0.6825  0.3070
14501SOL     OW44080   9.198   0.540   8.263  0.4153 -0.2062  0.0761
14501SOL    HW144081   9.132   0.589   8.214  1.2512 -0.7948 -1.7358
14501SOL    HW244082   9.150   0.467   8.301 -0.1693 -0.0499 -0.3414
14502SOL     OW44083   5.551   9.219   4.916  0.2368  0.2880  0.1961
14502SOL    HW144084   5.505   9.283   4.969  0.1783  1.0960 -0.8082
14502SOL    HW244085   5.520   9.233   4.826  2.1435  0.6422 -0.4681
14503SOL     OW44086   3.153   4.461   2.058 -0.4050  0.7942  0.6325
14503SOL    HW144087   3.091   4.531   2.039  1.9228  2.5087 -1.2800
14503SOL    HW244088   3.099   4.382   2.059 -2.6162  2.1451 -0.9288
14504SOL     OW44089   2.024   4.207   3.978  0.0203  0.4411  0.4966
14504SOL    HW144090   1.934   4.227   4.005 -0.2662 -0.3561  0.1333
14504SOL    HW244091   2.054   4.141   4.040  0.3571  0.6827  0.5998
14505SOL     OW44092   3.249   7.340   6.534  0.1805  0.0332  0.1388
14505SOL    HW144093   3.186   7.269   6.549 -0.9415  0.4670 -2.0752
14505SOL    HW244094   3.331   7.295   6.516 -0.6286 -0.8170 -1.7449
14506SOL     OW44095   8.897   7.358   2.490 -0.4736 -0.7147 -0.7177
14506SOL    HW144096   8.913   7.448   2.460  1.8060 -0.9295 -0.2922
14506SOL    HW244097   8.811   7.362   2.532 -0.6163  1.1600 -1.0938
14507SOL     OW44098   3.877   8.187   2.125 -0.1124  0.1126 -0.4622
14507SOL    HW144099   3.822   8.115   2.154 -1.1551  1.2020  0.3520
14507SOL    HW244100   3.959   8.174   2.173 -0.5998 -0.0494  0.3523
14508SOL     OW44101   4.404   4.375   4.079  0.5163  0.0818  0.0594
14508SOL    HW144102   4.449   4.291   4.076 -0.2408 -0.3696  1.0692
14508SOL    HW244103   4.447   4.423   4.149 -0.1948 -0.1446  0.6629
14509SOL     OW44104   7.370   6.659   2.762  0.2904  0.2810 -0.4859
14509SOL    HW144105   7.365   6.731   2.825  1.4171  0.2283 -0.3172
14509SOL    HW244106   7.294   6.671   2.705 -0.5462  0.5522  0.6427
14510SOL     OW44107   1.781   7.533   7.136 -0.1378 -0.6746  0.1187
14510SOL    HW144108   1.798   7.555   7.227 -0.0242  1.6541 -0.3949
14510SOL    HW244109   1.714   7.596   7.108  0.0891 -1.1013 -1.5001
14511SOL     OW44110   7.542   3.585   4.376 -0.4998 -0.2342 -0.2413
14511SOL    HW144111   7.511   3.641   4.448  0.1316 -0.1828  0.0012
14511SOL    HW244112   7.538   3.641   4.299 -1.1235 -0.2686 -0.2367
14512SOL     OW44113   5.779   4.200   2.160  0.1876  0.0663 -0.0230
14512SOL    HW144114   5.755   4.127   2.104 -0.1910 -0.2249  0.5143
14512SOL    HW244115   5.696   4.234   2.194 -0.1454  3.4143 -3.4592
14513SOL     OW44116   6.562   7.724   2.960  0.1141  0.3725 -0.2810
14513SOL    HW144117   6.553   7.648   2.902  0.5640  0.0017  0.1315
14513SOL    HW244118   6.605   7.690   3.038 -2.5404  0.3838  1.2673
14514SOL     OW44119   5.531   3.075   6.044  0.1265 -0.5795  0.2989
14514SOL    HW144120   5.453   3.053   6.095 -0.3233 -1.3600 -0.6761
14514SOL    HW244121   5.581   2.993   6.040  0.1863 -0.5214 -0.4310
14515SOL     OW44122   1.534   2.590   7.110  0.0129 -0.1852  0.5783
14515SOL    HW144123   1.496   2.675   7.089  2.3816  1.0546  0.9910
14515SOL    HW244124   1.501   2.532   7.041 -1.6187  1.0476  0.2606
14516SOL     OW44125   5.633   4.457   7.320 -0.2124  0.7419  0.2802
14516SOL    HW144126   5.612   4.549   7.308 -1.1348  0.6090  0.8554
14516SOL    HW244127   5.567   4.410   7.269  1.3419  0.4085 -1.5768
14517SOL     OW44128   2.451   8.763   9.663  0.4424 -0.2038 -0.5036
14517SOL    HW144129   2.519   8.769   9.596 -1.8698  0.6532 -2.9668
14517SOL    HW244130   2.392   8.696   9.632 -1.2606  0.9339  0.1211
14518SOL     OW44131   8.209   5.350   9.922  0.7905  0.2783  0.0901
14518SOL    HW144132   8.234   5.373  10.012  0.2598 -2.0686  0.9234
14518SOL    HW244133   8.291   5.327   9.879  0.8290 -0.9786  0.7801
14519SOL     OW44134   6.181   6.078   9.370  0.3440  0.1175 -0.3731
14519SOL    HW144135   6.269   6.067   9.406 -0.0089 -0.5865  0.2967
14519SOL    HW244136   6.154   6.165   9.397  0.1591 -0.3241  0.9263
14520SOL     OW44137   4.263   5.288   5.170  0.0529  0.3677  0.0374
14520SOL    HW144138   4.285   5.205   5.212  0.2089 -0.2032 -1.1645
14520SOL    HW244139   4.198   5.328   5.230 -1.1118 -1.2548 -0.0735
14521SOL     OW44140   2.436   5.641   4.027 -0.2069 -0.5641  0.8217
14521SOL    HW144141   2.455   5.547   4.026  0.4884 -0.4317  1.2285
14521SOL    HW244142   2.431   5.664   4.120 -0.6483 -0.2530  0.7222
14522SOL     OW44143   1.261   5.206   8.239  0.6151 -0.4143 -0.6052
14522SOL    HW144144   1.299   5.290   8.213 -0.6289  0.0133 -1.1262
14522SOL    HW244145   1.167   5.218   8.226  0.1352 -1.0013  1.7986
14523SOL     OW44146   6.730   8.120   7.681 -0.3449 -0.5369  0.1254
14523SOL    HW144147   6.670   8.164   7.742 -0.3103 -1.0910  0.5724
14523SOL    HW244148   6.725   8.028   7.706 -0.7276 -0.8580 -1.0684
14524SOL     OW44149   0.850   7.788   2.342 -0.2167 -0.4492 -0.2854
14524SOL    HW144150   0.919   7.773   2.406  2.2475  1.8936 -2.1378
14524SOL    HW244151   0.839   7.704   2.298  1.4828 -0.9012  0.0985
14525SOL     OW44152   9.173   7.158   2.849 -0.2545 -0.7446 -0.4566
14525SOL    HW144153   9.080   7.182   2.837  0.0639  0.6654 -0.3245
14525SOL    HW244154   9.179   7.131   2.941 -0.1473  1.3082  0.1985
14526SOL     OW44155   7.529   1.177   5.892  0.0549  0.4321  0.5605
14526SOL    HW144156   7.556   1.173   5.801 -2.1761  0.0134 -0.1462
14526SOL    HW244157   7.472   1.101   5.904  0.7750  0.1249  2.4986
14527SOL     OW44158   0.330   9.617   6.541 -0.0448  0.2451 -0.1911
14527SOL    HW144159   0.315   9.701   6.497 -2.7272 -0.3797 -0.6517
14527SOL    HW244160   0.370   9.562   6.473  1.6636  1.0672  0.0934
14528SOL     OW44161   2.191   3.258   7.986 -0.2686  0.6947  0.4881
14528SOL    HW144162   2.247   3.228   8.058 -0.2252 -0.6960 -0.0829
14528SOL    HW244163   2.102   3.255   8.022 -0.3514 -0.9406  0.2407
14529SOL     OW44164   4.646   0.336   5.662 -0.0685  0.1415  0.2025
14529SOL    HW144165   4.584   0.325   5.734  0.2683 -0.0038  0.4736
14529SOL    HW244166   4.598   0.385   5.596 -1.3943 -2.2853 -0.7404
14530SOL     OW44167   4.887   0.290   0.860  0.2142  0.0531  0.6160
14530SOL    HW144168   4.948   0.357   0.891  0.2101 -0.6045  2.1721
14530SOL    HW244169   4.929   0.254   0.782  0.4611  1.4942  0.0574
14531SOL     OW44170   5.612   1.938   5.262 -0.5651 -0.2243 -0.1856
14531SOL    HW144171   5.547   1.980   5.318 -0.3851  0.0822 -0.2061
14531SOL    HW244172   5.571   1.856   5.235 -0.2157 -0.9233  1.3132
14532SOL     OW44173   5.584   1.704   5.532 -0.2329  0.2279  0.0929
14532SOL    HW144174   5.582   1.648   5.454 -1.8539  1.2156 -0.6199
14532SOL    HW244175   5.677   1.725   5.543  0.1329 -0.6462 -1.0389
14533SOL     OW44176   1.310   3.023   0.608  0.0328 -0.3615 -0.1706
14533SOL    HW144177   1.325   2.943   0.659 -0.7628 -0.2667  0.2386
14533SOL    HW244178   1.235   3.065   0.651 -0.4850 -0.1326 -1.2564
14534SOL     OW44179   4.881   9.006   5.439 -0.3013  0.2173  0.2327
14534SOL    HW144180   4.935   8.932   5.412  0.3155  0.5113  0.6469
14534SOL    HW244181   4.794   8.968   5.453 -0.3752 -0.1310 -1.1043
14535SOL     OW44182   0.576   1.889   1.290  0.5099  0.2447  0.2343
14535SOL    HW144183   0.545   1.824   1.352  0.0956  1.3808  1.2578
14535SOL    HW244184   0.511   1.888   1.220 -0.0110  0.2333  0.7122
14536SOL     OW44185   9.620   6.352   5.891 -0.1468  0.5969 -0.0747
14536SOL    HW144186   9.572   6.273   5.916  1.8381 -0.3815  0.9012
14536SOL    HW244187   9.579   6.381   5.809 -0.4580 -1.8709 -0.8507
14537SOL     OW44188   6.239   3.692   5.725 -0.0176  0.1958  0.2075
14537SOL    HW144189   6.271   3.782   5.722  0.6470 -0.0528 -1.9754
14537SOL    HW244190   6.185   3.683   5.646 -1.2183 -0.9346  1.1230
14538SOL     OW44191   5.461   8.524   0.227 -0.4127  0.2272 -0.7920
14538SOL    HW144192   5.508   8.580   0.165 -0.4528  0.9690 -0.1597
14538SOL    HW244193   5.522   8.514   0.300 -1.1375  1.0150 -0.0602
14539SOL     OW44194   5.243   0.472   6.033 -0.4545 -0.1998 -0.0997
14539SOL    HW144195   5.171   0.411   6.014  0.5904 -0.8651 -2.1571
14539SOL    HW244196   5.247   0.529   5.957  2.3532 -1.3755 -0.9369
14540SOL     OW44197   4.013   0.339   4.957 -0.4932  0.0309 -0.1701
14540SOL    HW144198   3.918   0.338   4.970 -0.5811  1.8004 -0.4679
14540SOL    HW244199   4.040   0.249   4.977 -1.9913 -0.1052  1.5627
14541SOL     OW44200   7.075   6.139   4.246  0.3167  0.0189 -0.2142
14541SOL    HW144201   6.996   6.112   4.292  0.6115  0.8001  0.7848
14541SOL    HW244202   7.123   6.057   4.230  0.1659 -0.2788  0.8008
14542SOL     OW44203   5.009   2.933   3.339 -0.0259 -0.4804  0.1989
14542SOL    HW144204   4.950   2.951   3.267  0.1642 -0.2038  0.1106
14542SOL    HW244205   4.993   3.003   3.403  0.9941  0.2608 -0.3227
14543SOL     OW44206   3.313   6.807   9.008 -0.7076  0.4523 -0.1387
14543SOL    HW144207   3.350   6.729   9.049  0.4512  1.1023  0.0924
14543SOL    HW244208   3.267   6.774   8.930 -0.8636 -0.5257  0.3470
14544SOL     OW44209   6.574   1.205   1.275  0.0020  0.6236  0.6143
14544SOL    HW144210   6.632   1.192   1.200 -1.0420  0.8171 -0.2478
14544SOL    HW244211   6.602   1.138   1.338  1.8342  1.3799  0.6658
14545SOL     OW44212   7.242   2.928   3.468  0.2030  0.2046  0.2807
14545SOL    HW144213   7.185   3.002   3.446 -1.9844 -1.9123 -1.9155
14545SOL    HW244214   7.297   2.917   3.390 -1.0623 -1.7176 -0.4254
14546SOL     OW44215   6.722   9.116   6.794 -0.2768  0.2449  0.0552
14546SOL    HW144216   6.693   9.207   6.786  1.7475  0.8405 -1.0035
14546SOL    HW244217   6.803   9.121   6.845  0.0861 -0.9048 -0.3797
14547SOL     OW44218   4.201   2.832   0.288 -0.2558 -0.4891  0.1842
14547SOL    HW144219   4.212   2.782   0.207  0.7974 -1.8675  1.1199
14547SOL    HW244220   4.110   2.861   0.286 -0.7223 -1.8954 -0.7509
14548SOL     OW44221   6.276   6.950   0.939 -0.2876  0.0915  0.0316
14548SOL    HW144222   6.294   7.007   1.014  1.1490  0.4770 -0.5855
14548SOL    HW244223   6.339   6.878   0.947 -0.0770  0.1678 -0.8367
14549SOL     OW44224   3.149   8.717   4.509  0.0003 -0.5372  0.3948
14549SOL    HW144225   3.075   8.673   4.551 -2.0971  1.9191 -0.4444
14549SOL    HW244226   3.111   8.756   4.430  1.9550  1.7013  0.4655
14550SOL     OW44227   5.014   2.822   0.551  0.2823 -0.5210  0.0710
14550SOL    HW144228   5.031   2.727   0.546 -0.6869 -0.7758  1.1391
14550SOL    HW244229   5.086   2.862   0.502  1.5524 -1.7372  0.8703
14551SOL     OW44230   4.273   1.966   8.176 -0.1806 -0.2914  0.3846
14551SOL    HW144231   4.348   1.991   8.122  0.1347 -2.5779 -0.3459
14551SOL    HW244232   4.203   1.950   8.113  0.4649 -3.9805  0.4089
14552SOL     OW44233   7.465   0.326   1.852  0.0790  0.3800 -0.5733
14552SOL    HW144234   7.541   0.341   1.795  1.9649  0.5883  1.8220
14552SOL    HW244235   7.411   0.404   1.841  1.3088  1.2337 -0.7875
14553SOL     OW44236   6.190   4.307   8.505  0.4928 -0.2990 -0.9558
14553SOL    HW144237   6.117   4.363   8.480 -0.1004 -0.0518  1.1782
14553SOL    HW244238   6.251   4.366   8.549  0.9182 -0.9185 -0.7079
14554SOL     OW44239   4.267   7.905   1.312  0.4251 -0.1818  0.5825
14554SOL    HW144240   4.257   7.812   1.293  3.4108 -1.0008  2.3847
14554SOL    HW244241   4.241   7.914   1.404  0.6280  0.6606  0.5707
14555SOL     OW44242   2.090   7.576   2.091  0.0171  0.0542  0.2163
14555SOL    HW144243   1.997   7.564   2.106 -0.4086  1.2255 -1.2621
14555SOL    HW244244   2.100   7.668   2.068  0.8979 -0.7746 -3.4393
14556SOL     OW44245   8.331   3.176   0.299 -0.1891 -0.1472 -0.0113
14556SOL    HW144246   8.288   3.163   0.383 -0.7503 -1.0868 -0.4264
14556SOL    HW244247   8.261   3.204   0.240  0.1861  0.4479 -0.1892
14557SOL     OW44248   9.314   7.994   6.311 -0.4623  0.4938  0.3212
14557SOL    HW144249   9.245   8.036   6.364 -0.5567  0.5891  0.1257
14557SOL    HW244250   9.352   8.066   6.261 -0.3669  0.4047  0.2653
14558SOL     OW44251   0.045   8.948   3.849  0.3154  0.0055  0.1262
14558SOL    HW144252   0.112   9.011   3.823 -1.7019  1.6808 -1.3167
14558SOL    HW244253   0.024   8.900   3.768 -2.1048  1.4207 -0.1740
14559SOL     OW44254   0.991   6.362   7.643  0.3224  0.6934 -0.3317
14559SOL    HW144255   0.936   6.292   7.678 -0.2282  1.6179  0.7000
14559SOL    HW244256   0.931   6.421   7.598  0.9724 -0.2446 -2.5377
14560SOL     OW44257   6.488   4.909   0.934 -0.0680  0.8716 -0.0748
14560SOL    HW144258   6.454   4.992   0.900 -2.0123  1.1328  2.2921
14560SOL    HW244259   6.558   4.934   0.994  0.7800  0.6106 -0.9110
14561SOL     OW44260   4.652   0.098   3.815 -0.4772 -0.8821  0.5309
14561SOL    HW144261   4.710   0.165   3.852  0.0121 -0.5266 -0.8427
14561SOL    HW244262   4.568   0.142   3.805 -0.6789 -1.0460  1.3905
14562SOL     OW44263   2.741   4.926   8.114  0.2298 -0.2907 -0.0656
14562SOL    HW144264   2.718   4.893   8.200  0.7501 -1.4812 -0.3657
14562SOL    HW244265   2.700   4.865   8.053 -0.1760  0.5645 -0.6705
14563SOL     OW44266   5.845   0.288   8.760  0.4122  0.5108  0.4300
14563SOL    HW144267   5.769   0.267   8.815  0.9593  1.8418  1.7838
14563SOL    HW244268   5.821   0.371   8.718  0.3638 -0.0457 -0.6633
14564SOL     OW44269   0.213   6.076   3.889  0.3208 -0.1661 -0.6816
14564SOL    HW144270   0.213   5.988   3.926  0.5664  0.2078  0.2389
14564SOL    HW244271   0.255   6.067   3.804 -0.6287 -1.1191 -1.0690
14565SOL     OW44272   3.167   8.141   6.474 -0.4486  0.4661 -0.4268
14565SOL    HW144273   3.196   8.228   6.444 -0.7481  0.4874 -0.6599
14565SOL    HW244274   3.075   8.136   6.446 -0.7125  0.4517  0.4074
14566SOL     OW44275   1.540   4.086   0.494 -0.2123 -0.3317 -0.5608
14566SOL    HW144276   1.516   4.077   0.402 -1.0638 -1.2039 -0.2635
14566SOL    HW244277   1.617   4.143   0.493 -0.6340  0.2511 -1.7515
14567SOL     OW44278   8.847   7.013   5.639 -0.3392 -0.7610 -0.1333
14567SOL    HW144279   8.941   7.012   5.618 -0.5085 -0.2532 -0.9410
14567SOL    HW244280   8.844   7.004   5.734  0.5838  0.3779  0.0205
14568SOL     OW44281   3.043   8.314   5.733 -0.1279  0.1782 -0.9715
14568SOL    HW144282   3.000   8.397   5.756  0.6315  0.8778 -1.9590
14568SOL    HW244283   3.027   8.257   5.807 -0.0067  1.4716  0.0866
14569SOL     OW44284   1.724   9.751   6.652  0.3543  0.2189 -0.1740
14569SOL    HW144285   1.684   9.832   6.683 -0.8422 -0.7382  0.8644
14569SOL    HW244286   1.812   9.777   6.624  0.5678  1.6047  1.6213
14570SOL     OW44287   9.599   1.188   1.116  0.3080 -0.0977 -0.0771
14570SOL    HW144288   9.688   1.205   1.146  0.1870  1.0852 -0.3667
14570SOL    HW244289   9.605   1.105   1.069  0.8287 -1.1369  1.7290
14571SOL     OW44290   5.985   9.020   2.115  0.1958 -0.1875 -0.8064
14571SOL    HW144291   5.983   8.978   2.201  0.3788  0.3467 -0.5365
14571SOL    HW244292   5.893   9.035   2.093  0.1706  1.1653  0.0517
14572SOL     OW44293   9.246   3.462   0.188 -0.0754  0.0073  0.0919
14572SOL    HW144294   9.217   3.524   0.255  0.1330  1.3479 -1.0199
14572SOL    HW244295   9.338   3.446   0.208 -0.9501 -2.7696  2.4871
14573SOL     OW44296   5.481   0.663   5.795  0.6596  0.3347 -0.1750
14573SOL    HW144297   5.526   0.583   5.821  1.7481  1.1837  0.6460
14573SOL    HW244298   5.502   0.674   5.702 -0.1595 -0.7224 -0.5125
14574SOL     OW44299   7.230   8.866   5.591 -0.1700 -0.2242 -0.2365
14574SOL    HW144300   7.244   8.932   5.658 -0.3475 -0.8557  0.4269
14574SOL    HW244301   7.298   8.885   5.525  0.7863 -0.3471  0.6911
14575SOL     OW44302   4.808   5.792   2.675  0.0304 -0.5149 -0.0341
14575SOL    HW144303   4.798   5.746   2.592  1.7172 -0.6659 -0.1770
14575SOL    HW244304   4.752   5.870   2.666 -0.9586 -1.2790 -0.7057
14576SOL     OW44305   4.053   4.498   5.130  0.2330 -0.7216 -0.1931
14576SOL    HW144306   4.024   4.441   5.201 -3.1456  1.8652  0.7580
14576SOL    HW244307   4.025   4.452   5.050 -0.7766 -1.2652  0.4478
14577SOL     OW44308  -0.011   9.664   1.148  0.1202  0.6688  0.6921
14577SOL    HW144309  -0.035   9.722   1.220  1.1411  0.3781  1.2887
14577SOL    HW244310   0.070   9.700   1.114 -0.0868  0.5069  0.0191
14578SOL     OW44311   2.002   7.740   0.253  0.0840 -0.2226  0.3647
14578SOL    HW144312   1.986   7.646   0.266 -0.7723  0.0811  1.5304
14578SOL    HW244313   1.932   7.784   0.300 -0.3214  1.0176 -1.2867
14579SOL     OW44314   2.985   1.276   5.243  0.1349  0.7244  0.9192
14579SOL    HW144315   2.949   1.323   5.317 -2.4887  0.8557 -0.3331
14579SOL    HW244316   2.961   1.185   5.258 -2.8803  1.0786 -0.9429
14580SOL     OW44317   2.529   4.869   1.753  0.0378  0.3416  0.2226
14580SOL    HW144318   2.518   4.863   1.848  3.5185  0.1846  0.7343
14580SOL    HW244319   2.539   4.778   1.724 -1.1900  0.3770 -0.3543
14581SOL     OW44320   5.627   7.756   1.825  0.1315  0.1350  0.0738
14581SOL    HW144321   5.634   7.804   1.907  0.3343 -0.2256  0.2725
14581SOL    HW244322   5.674   7.810   1.761 -1.0607  1.0190 -0.0898
14582SOL     OW44323   4.765   5.670   0.643  0.1780 -0.1094 -0.2550
14582SOL    HW144324   4.689   5.727   0.651  1.2583  1.1961  1.1979
14582SOL    HW244325   4.762   5.615   0.722 -0.1132 -1.1922 -0.9869
14583SOL     OW44326   1.570   1.206   0.383  0.3226 -0.2614 -0.1196
14583SOL    HW144327   1.556   1.113   0.399 -0.8318  0.0280  0.7019
14583SOL    HW244328   1.504   1.230   0.318 -0.6528  0.3532  1.0556
14584SOL     OW44329   4.131   2.945   0.626 -0.1537 -0.3463 -0.9647
14584SOL    HW144330   4.186   2.917   0.699 -0.4081 -0.0002 -0.6350
14584SOL    HW244331   4.126   2.868   0.569 -1.3610 -1.1940  0.2353
14585SOL     OW44332   6.068   2.288   7.122  0.1254 -0.0755 -0.1486
14585SOL    HW144333   6.144   2.257   7.172 -0.0701  0.1730  0.3081
14585SOL    HW244334   6.006   2.215   7.124  0.0421 -0.0002  0.1375
14586SOL     OW44335   0.311   5.473   2.458  0.4822  0.4476  0.2776
14586SOL    HW144336   0.355   5.532   2.396  1.7978  1.8759  2.4273
14586SOL    HW244337   0.246   5.528   2.501 -0.4388 -0.5312  0.1625
14587SOL     OW44338   2.471   6.928   8.738  0.1197  0.4976 -0.6797
14587SOL    HW144339   2.383   6.901   8.766 -0.4170  0.6796 -2.1499
14587SOL    HW244340   2.522   6.929   8.819 -1.5466  1.6676  0.4144
14588SOL     OW44341   1.169   4.127   1.205 -0.3731  0.3391  0.4502
14588SOL    HW144342   1.134   4.146   1.292 -1.6647 -0.1293  0.0555
14588SOL    HW244343   1.129   4.043   1.181 -1.1698  1.1298 -1.1577
14589SOL     OW44344   7.458   6.080   8.614 -0.0548 -0.7516  0.6822
14589SOL    HW144345   7.419   6.145   8.673 -0.8932 -0.6907  0.0797
14589SOL    HW244346   7.550   6.106   8.607 -0.3643  0.3469  0.4957
14590SOL     OW44347   8.869   3.100   3.037  0.6654  1.1005  0.1595
14590SOL    HW144348   8.878   3.185   3.081  2.3378  0.9689  0.1286
14590SOL    HW244349   8.948   3.051   3.062 -1.2043 -1.2966  1.8913
14591SOL     OW44350   6.484   4.486   2.187  0.9561 -0.5734  0.2716
14591SOL    HW144351   6.459   4.396   2.166  0.7426 -0.4850  0.1557
14591SOL    HW244352   6.456   4.538   2.112  0.4899 -0.3105  0.6208
14592SOL     OW44353   2.775   5.063   3.359 -0.2256 -0.1970 -0.4969
14592SOL    HW144354   2.852   5.010   3.379  1.4017  1.9408 -0.7351
14592SOL    HW244355   2.748   5.099   3.444  0.3233  0.6464 -0.6608
14593SOL     OW44356   0.169   4.331   2.663  1.0946  0.3622 -0.7164
14593SOL    HW144357   0.216   4.336   2.746 -0.4381  1.8852  0.1183
14593SOL    HW244358   0.122   4.247   2.666 -0.1236  1.0528  0.6610
14594SOL     OW44359   9.857   2.758   5.789  0.0596  0.6178  0.4618
14594SOL    HW144360   9.827   2.823   5.726  0.0418 -1.1424 -1.4551
14594SOL    HW244361   9.932   2.799   5.832 -0.2562  2.0672 -0.2988
14595SOL     OW44362   2.601   9.606   8.971 -0.6555 -0.0533  0.3104
14595SOL    HW144363   2.579   9.606   8.878  0.0703 -2.8414  0.0530
14595SOL    HW244364   2.518   9.587   9.015 -0.7024 -0.3097  0.1128
14596SOL     OW44365   7.430   3.197   7.027  0.1011  0.4070  0.4957
14596SOL    HW144366   7.449   3.243   6.946  0.9731 -0.1629  0.3575
14596SOL    HW244367   7.495   3.229   7.089  1.1261 -1.0515  0.2221
14597SOL     OW44368   9.438   6.073   4.628  0.2638  0.4222 -0.0655
14597SOL    HW144369   9.354   6.105   4.597  0.3860 -0.2557 -1.1762
14597SOL    HW244370   9.436   6.087   4.723  0.0583  3.0196 -0.3804
14598SOL     OW44371   9.232   5.454   6.312  0.0780 -0.2045  0.9221
14598SOL    HW144372   9.207   5.363   6.299  0.4889 -0.2714  0.5513
14598SOL    HW244373   9.265   5.458   6.402 -1.0477 -0.1607  1.3386
14599SOL     OW44374   3.209   4.157   1.369  0.2012  0.3225  0.3320
14599SOL    HW144375   3.281   4.143   1.431  0.9072  1.7353 -0.1156
14599SOL    HW244376   3.140   4.097   1.398  2.0016 -2.0709 -0.0170
14600SOL     OW44377   7.390   2.712   2.793  0.1722 -0.3694  0.3908
14600SOL    HW144378   7.457   2.676   2.851  1.1836  0.6036 -0.1382
14600SOL    HW244379   7.308   2.691   2.836  0.8829 -0.0040  1.9839
14601SOL     OW44380   2.584   2.247   0.913 -0.0953  0.1231  0.4277
14601SOL    HW144381   2.609   2.322   0.859 -1.2708 -0.6361 -1.2663
14601SOL    HW244382   2.497   2.223   0.881 -1.0365 -0.1674  2.9436
14602SOL     OW44383   6.898   0.920   9.909 -0.2376  0.0124  0.2227
14602SOL    HW144384   6.826   0.860   9.929 -0.3618 -0.4393 -1.3973
14602SOL    HW244385   6.865   0.973   9.836  0.0412  1.7760  1.3257
14603SOL     OW44386   2.830   3.146   4.388 -0.2284 -0.1991  0.0630
14603SOL    HW144387   2.883   3.068   4.404 -1.3499 -0.9341  0.2735
14603SOL    HW244388   2.760   3.116   4.330 -0.1669  0.8641 -0.5948
14604SOL     OW44389   5.704   5.165   2.377  0.5282  0.5263  0.2903
14604SOL    HW144390   5.616   5.196   2.397  0.0572 -0.0554 -0.8021
14604SOL    HW244391   5.711   5.081   2.423  0.0580 -0.0100 -0.6000
14605SOL     OW44392   6.485   8.403   7.056 -0.0665 -0.1910 -0.0494
14605SOL    HW144393   6.561   8.348   7.037  0.0094 -0.1185  0.0373
14605SOL    HW244394   6.475   8.396   7.151  0.2191  0.2980  0.0207
14606SOL     OW44395   4.775   3.443   5.002  0.2220  0.1027  0.1968
14606SOL    HW144396   4.830   3.365   5.014 -2.3009 -1.5818  1.8548
14606SOL    HW244397   4.706   3.414   4.941 -1.0430  0.8076  1.2361
14607SOL     OW44398   1.798   3.058   7.153 -0.2760  0.2138  0.0126
14607SOL    HW144399   1.869   3.121   7.144 -0.6329  0.4605 -1.2363
14607SOL    HW244400   1.746   3.090   7.227 -0.4236  1.3536 -0.5737
14608SOL     OW44401   2.243   9.742   5.863  0.2801 -0.0820  0.2518
14608SOL    HW144402   2.157   9.719   5.897 -0.0163 -1.2311 -1.1741
14608SOL    HW244403   2.231   9.831   5.828 -0.3985 -0.3315 -0.1662
14609SOL     OW44404   0.834   8.100   5.635 -0.0570 -0.1266 -0.0231
14609SOL    HW144405   0.775   8.175   5.635  1.0433  0.9934  3.8284
14609SOL    HW244406   0.881   8.107   5.552 -0.8952  2.7198 -0.3915
14610SOL     OW44407   4.294   1.983   3.894 -0.5981  0.1399 -0.4499
14610SOL    HW144408   4.348   1.905   3.892  1.0535  1.1255  1.6082
14610SOL    HW244409   4.342   2.048   3.844 -1.0446  0.3679 -0.5927
14611SOL     OW44410   4.069   0.252   5.616  0.4790  0.1428  0.0618
14611SOL    HW144411   4.158   0.249   5.652 -0.2679 -0.6263  1.9730
14611SOL    HW244412   4.018   0.300   5.682 -0.7466 -0.3600 -0.4922
14612SOL     OW44413   9.692   2.463   5.101  0.4521 -0.1389 -0.6524
14612SOL    HW144414   9.600   2.453   5.077 -0.2512  0.7225  1.4495
14612SOL    HW244415   9.740   2.457   5.019 -1.4529 -0.9338 -1.7510
14613SOL     OW44416   7.477   7.489   5.753  0.3051 -0.4772 -0.3031
14613SOL    HW144417   7.412   7.421   5.771  1.2898 -1.2109  0.6268
14613SOL    HW244418   7.528   7.495   5.834  1.9286 -0.5239 -1.2812
14614SOL     OW44419   1.806   9.552   9.655  0.7702 -0.5547 -0.1966
14614SOL    HW144420   1.870   9.536   9.585  1.9965  2.2541  0.1179
14614SOL    HW244421   1.743   9.613   9.616 -0.6718 -1.7965  0.1049
14615SOL     OW44422   0.384   7.776   1.893  0.2837  0.0717 -0.5867
14615SOL    HW144423   0.350   7.687   1.897  1.5940 -0.4402 -0.4831
14615SOL    HW244424   0.316   7.829   1.935  0.0480 -1.0513  0.5088
14616SOL     OW44425   8.144   9.200   2.856 -0.4135  0.2035 -0.0746
14616SOL    HW144426   8.160   9.107   2.867  1.3154  0.4098 -0.5434
14616SOL    HW244427   8.172   9.219   2.766  0.5947  1.3974  0.4507
14617SOL     OW44428   4.112   8.310   5.932 -0.8804  0.0879  0.2486
14617SOL    HW144429   4.054   8.373   5.890 -1.2348 -0.8684 -0.7535
14617SOL    HW244430   4.105   8.328   6.026 -0.1691  2.2049 -0.0654
14618SOL     OW44431   4.860   5.530   8.122  0.0477  0.4360 -0.6183
14618SOL    HW144432   4.918   5.590   8.170  0.2882  0.2098 -0.6240
14618SOL    HW244433   4.812   5.586   8.061 -0.0735  0.6903 -0.2916
14619SOL     OW44434   0.489   6.374   1.767  0.5368 -0.1096  0.1524
14619SOL    HW144435   0.417   6.436   1.753  0.3691 -0.7819 -2.4818
14619SOL    HW244436   0.565   6.430   1.781 -0.0369  0.6570  0.2952
14620SOL     OW44437   2.974   8.343   7.216 -0.0843  0.0075 -0.2837
14620SOL    HW144438   2.928   8.318   7.297 -0.7371  0.3426 -0.5453
14620SOL    HW244439   3.023   8.265   7.192 -0.6680 -0.4297 -0.0971
14621SOL     OW44440   0.394   5.093   1.446  0.0243  0.4706 -0.0669
14621SOL    HW144441   0.387   5.037   1.368  1.6787 -0.2726  0.2540
14621SOL    HW244442   0.380   5.033   1.519  2.2055  0.3081  0.2976
14622SOL     OW44443   0.217   1.752   4.751 -0.2201  0.4559 -0.6045
14622SOL    HW144444   0.228   1.752   4.656  1.2693  1.9474 -0.4643
14622SOL    HW244445   0.122   1.744   4.763 -0.3223 -1.5008 -2.1407
14623SOL     OW44446   0.814   4.549   2.961  0.0487 -0.1778 -0.3172
14623SOL    HW144447   0.795   4.456   2.972  0.8358 -0.4641 -1.2525
14623SOL    HW244448   0.788   4.569   2.871  0.7151  0.2846 -0.4154
14624SOL     OW44449   5.676   0.289   4.411  0.9849  0.1679 -0.9115
14624SOL    HW144450   5.761   0.325   4.440  0.8001  0.4275 -0.6839
14624SOL    HW244451   5.630   0.364   4.374  0.2929  0.3514  0.2498
14625SOL     OW44452   1.830   2.676   3.749  0.1573 -0.0975  0.4904
14625SOL    HW144453   1.843   2.760   3.792 -1.1421  1.0936 -1.3297
14625SOL    HW244454   1.793   2.620   3.817 -0.1165  1.1595  1.4107
14626SOL     OW44455   8.992   7.668   1.454  0.2375 -0.0195 -0.2776
14626SOL    HW144456   9.004   7.759   1.427 -0.4271  0.6156  1.4290
14626SOL    HW244457   8.967   7.674   1.547 -2.3376 -1.7634 -0.7487
14627SOL     OW44458   6.398   1.263   8.820  0.1575 -0.1263 -0.1499
14627SOL    HW144459   6.452   1.335   8.789  1.9828 -1.5368 -0.4117
14627SOL    HW244460   6.330   1.253   8.754 -0.1241  1.3208 -0.1071
14628SOL     OW44461   3.426   6.727   4.234  0.7458 -0.0728 -0.2020
14628SOL    HW144462   3.490   6.788   4.270  0.6046 -0.5564  0.9079
14628SOL    HW244463   3.345   6.747   4.282  0.5321 -0.6763 -0.3098
14629SOL     OW44464   8.330   4.774   6.774 -0.5831  0.0522  0.2386
14629SOL    HW144465   8.237   4.793   6.786 -1.3005 -3.1087  0.4119
14629SOL    HW244466   8.337   4.750   6.681  0.0013 -0.0154  0.2993
14630SOL     OW44467   3.470   6.810   6.783  0.0273  0.3591 -0.1526
14630SOL    HW144468   3.420   6.891   6.786  0.8058  0.8750  2.6837
14630SOL    HW244469   3.559   6.836   6.810 -0.3066 -1.6434  3.6438
14631SOL     OW44470   1.293   2.708   7.604  0.3449 -0.2066  0.0465
14631SOL    HW144471   1.254   2.794   7.613  1.4505  0.4066 -0.7763
14631SOL    HW244472   1.335   2.692   7.689  2.5569  1.3436 -0.6657
14632SOL     OW44473   5.234   5.518   3.483 -0.1480 -0.1499  0.0232
14632SOL    HW144474   5.160   5.510   3.543  0.8640 -0.3391  1.2822
14632SOL    HW244475   5.232   5.608   3.453 -0.3744  0.1001  0.7657
14633SOL     OW44476   1.513   4.376   8.171 -0.3415  0.2903  0.1453
14633SOL    HW144477   1.576   4.385   8.100  0.0247  0.1001  0.4444
14633SOL    HW244478   1.566   4.357   8.248 -0.6460  1.4096  0.6596
14634SOL     OW44479   8.350   9.777   2.182  0.2061  0.2903 -0.5890
14634SOL    HW144480   8.414   9.811   2.244 -1.4703  1.7764  0.4161
14634SOL    HW244481   8.306   9.855   2.148  0.7328 -0.4813 -3.3598
14635SOL     OW44482   4.496   3.766   1.136 -0.0683 -0.0609 -0.3215
14635SOL    HW144483   4.475   3.755   1.043  1.1202 -0.5992 -0.5426
14635SOL    HW244484   4.457   3.850   1.160 -2.2211 -0.8672 -0.7470
14636SOL     OW44485   2.179   2.777   2.386 -0.3149 -0.0923 -0.1921
14636SOL    HW144486   2.151   2.866   2.369  0.4991  0.4498  1.1461
14636SOL    HW244487   2.103   2.735   2.427 -0.8522 -0.1774 -1.2353
14637SOL     OW44488   5.255   3.106   4.840  0.4344 -0.3396 -0.1621
14637SOL    HW144489   5.219   3.172   4.899  3.4674  1.4068 -0.0940
14637SOL    HW244490   5.199   3.112   4.762 -0.3757  1.1255  0.4761
14638SOL     OW44491   6.182   0.514   4.940  0.6442  0.3675 -0.3769
14638SOL    HW144492   6.128   0.587   4.969  3.4855  2.3882  0.2220
14638SOL    HW244493   6.258   0.515   4.998  1.8887 -1.6217 -1.8357
14639SOL     OW44494   1.660   5.711   4.402  0.4124  0.8073 -0.6487
14639SOL    HW144495   1.571   5.722   4.436  0.0405  1.1805 -1.6827
14639SOL    HW244496   1.662   5.622   4.368  1.1976 -0.0286  1.4516
14640SOL     OW44497   9.854   2.368   9.303 -0.4585 -0.0658  0.6871
14640SOL    HW144498   9.793   2.294   9.298 -0.7193  0.1829  0.1057
14640SOL    HW244499   9.882   2.383   9.213 -2.0988  1.9365  0.4346
14641SOL     OW44500   3.021   2.576   7.825 -0.1567  0.8475  0.0308
14641SOL    HW144501   2.966   2.601   7.750  0.5879 -1.2353 -1.2871
14641SOL    HW244502   3.105   2.619   7.809 -0.0902  0.6400 -0.1845
14642SOL     OW44503   6.522   1.151   4.990 -1.0096  0.7940  0.5144
14642SOL    HW144504   6.516   1.060   4.962 -0.2556  0.7299  0.5231
14642SOL    HW244505   6.478   1.154   5.075  0.7093 -0.0276  1.5012
14643SOL     OW44506   6.070   6.105   9.127 -0.0627  0.6760  0.3553
14643SOL    HW144507   6.115   6.103   9.211  1.8249 -0.5194 -0.6281
14643SOL    HW244508   6.088   6.193   9.093 -1.0690  1.2644  1.2848
14644SOL     OW44509   2.233   5.858   6.283 -0.1494 -0.6427 -0.0634
14644SOL    HW144510   2.142   5.845   6.308  0.0501  2.5215  3.1662
14644SOL    HW244511   2.229   5.900   6.197 -2.3269  4.0708  1.9844
14645SOL     OW44512   2.442   6.929   6.326 -0.3826  0.4849 -0.3435
14645SOL    HW144513   2.352   6.932   6.295 -0.7529 -0.6007  0.5592
14645SOL    HW244514   2.445   6.854   6.386  1.3512 -0.1021 -1.0760
14646SOL     OW44515   7.343   3.142   4.547 -0.7228  0.5297 -0.0679
14646SOL    HW144516   7.359   3.190   4.465  0.9968  0.0432 -0.0594
14646SOL    HW244517   7.429   3.111   4.573 -0.8702  2.2648  2.9480
14647SOL     OW44518   6.469   8.482   2.097 -0.2516 -0.6977  0.3067
14647SOL    HW144519   6.386   8.448   2.062  0.4837 -0.1169 -2.1696
14647SOL    HW244520   6.529   8.407   2.094 -0.0837 -0.5500 -0.0469
14648SOL     OW44521   2.502   6.328   2.629  0.5471  0.1720 -0.0378
14648SOL    HW144522   2.551   6.401   2.589  0.2445 -1.0402 -2.8749
14648SOL    HW244523   2.410   6.353   2.618  0.4619 -0.0239  0.2267
14649SOL     OW44524   2.888   3.494   5.201 -0.0846 -0.2060 -0.9373
14649SOL    HW144525   2.915   3.431   5.135  1.4934 -1.0925  0.4950
14649SOL    HW244526   2.802   3.463   5.229  0.4660 -1.4823 -0.5850
14650SOL     OW44527   2.796   4.835   6.321  0.2004  0.1576  0.4219
14650SOL    HW144528   2.851   4.767   6.361 -0.2247  0.0405  0.8135
14650SOL    HW244529   2.834   4.918   6.350 -0.6900  0.0790  1.9158
14651SOL     OW44530   3.587   6.986   0.900  0.1238  0.8031  0.3143
14651SOL    HW144531   3.653   7.036   0.949 -1.0394  2.7874  0.0051
14651SOL    HW244532   3.532   6.947   0.968  0.1941  1.1837  0.5992
14652SOL     OW44533   2.401   4.537   6.788  0.7149 -1.4548  0.0827
14652SOL    HW144534   2.312   4.504   6.776 -0.5537  0.7273  2.4522
14652SOL    HW244535   2.433   4.553   6.698 -2.1186 -0.3482 -0.8521
14653SOL     OW44536   6.481   3.267   0.511 -0.3712 -0.2267 -0.2036
14653SOL    HW144537   6.467   3.218   0.430  0.0548 -2.3193  0.9229
14653SOL    HW244538   6.463   3.204   0.581 -1.4198  1.6985  1.3739
14654SOL     OW44539   2.947   9.438   0.998  0.2171  0.6603 -0.0116
14654SOL    HW144540   2.962   9.474   1.086  0.6299  0.7139 -0.0993
14654SOL    HW244541   2.852   9.431   0.991  0.2196 -1.2155  1.1969
14655SOL     OW44542   1.227   3.122   5.971 -0.0087 -0.2816  0.1496
14655SOL    HW144543   1.229   3.178   5.894  2.0564 -1.0055 -0.3901
14655SOL    HW244544   1.236   3.033   5.937 -0.0271 -0.6952  1.1619
14656SOL     OW44545   9.535   7.460   6.024 -0.3011  0.5304  0.1552
14656SOL    HW144546   9.523   7.408   5.945  1.4079 -0.6503  0.6247
14656SOL    HW244547   9.611   7.515   6.007 -0.2252  0.6373  0.7857
14657SOL     OW44548   1.967   8.292   8.394  0.1123 -0.5361  0.5412
14657SOL    HW144549   1.924   8.264   8.314 -0.0468 -1.2501  0.8743
14657SOL    HW244550   1.905   8.352   8.435  0.5476  0.5183 -0.2823
14658SOL     OW44551   8.366   2.855   8.461  0.6501 -0.2074 -0.6779
14658SOL    HW144552   8.424   2.924   8.494  0.3104  0.9308 -2.3364
14658SOL    HW244553   8.402   2.833   8.375 -0.8991 -0.0377 -1.4034
14659SOL     OW44554   9.267   6.625   2.340  0.7350  0.0346  0.0862
14659SOL    HW144555   9.295   6.677   2.265  0.2254  0.9387  0.5056
14659SOL    HW244556   9.321   6.656   2.413  1.4747 -1.0813  0.0445
14660SOL     OW44557   5.428   8.825   9.025 -0.3077  0.8223 -0.0801
14660SOL    HW144558   5.520   8.827   9.048 -1.1222  1.9245  3.6954
14660SOL    HW244559   5.404   8.917   9.011 -1.0187  0.6201 -0.2546
14661SOL     OW44560   5.500   8.481   2.434  0.2651 -0.2445  0.0720
14661SOL    HW144561   5.413   8.457   2.466  1.1555 -3.4186  0.4899
14661SOL    HW244562   5.489   8.493   2.340 -0.5581 -1.2824  0.0164
14662SOL     OW44563   1.912   0.618   1.022  0.0188 -0.3361  0.1102
14662SOL    HW144564   1.944   0.694   0.974  0.1187 -1.1551 -1.1430
14662SOL    HW244565   1.885   0.653   1.107 -1.9986  1.4999 -1.1796
14663SOL     OW44566   8.867   3.163   2.245  0.2032 -0.4712 -0.0870
14663SOL    HW144567   8.928   3.232   2.218  0.6518 -1.0529 -0.5845
14663SOL    HW244568   8.881   3.154   2.339 -0.1514  0.3919  0.0613
14664SOL     OW44569   0.479   6.173   7.195 -0.0957  0.0486 -0.0232
14664SOL    HW144570   0.550   6.224   7.155  0.1463 -1.0542 -1.0582
14664SOL    HW244571   0.408   6.237   7.206  0.4537  0.7827 -0.5895
14665SOL     OW44572   0.714   1.513   0.306  0.2349 -0.1526 -0.1678
14665SOL    HW144573   0.679   1.503   0.395 -1.5875  0.2212 -0.7858
14665SOL    HW244574   0.693   1.603   0.283  2.4748  0.3915 -0.3030
14666SOL     OW44575   3.722   7.566   7.454 -0.3290 -0.4870 -0.1136
14666SOL    HW144576   3.791   7.633   7.464 -0.4525 -0.1846 -1.1974
14666SOL    HW244577   3.696   7.572   7.362  1.1618 -3.4879 -0.8428
14667SOL     OW44578   0.569   7.038   7.131 -0.5999 -0.3370 -0.2668
14667SOL    HW144579   0.533   6.962   7.086 -0.1023 -0.3064 -0.7314
14667SOL    HW244580   0.568   7.108   7.066  0.6110 -0.4305 -0.4245
14668SOL     OW44581   0.279   1.771   7.638  0.0350  0.6537  0.0921
14668SOL    HW144582   0.241   1.841   7.584  0.0865  0.8048  0.2494
14668SOL    HW244583   0.349   1.734   7.585  0.1603  0.8792  0.1016
14669SOL     OW44584   6.113   5.389   6.856 -0.0576 -0.0033  0.4624
14669SOL    HW144585   6.109   5.323   6.925  0.1769 -0.4659  0.0402
14669SOL    HW244586   6.136   5.340   6.777  4.3104  1.0336  0.8385
14670SOL     OW44587   4.556   1.960   7.140  0.0176  0.2158 -0.5570
14670SOL    HW144588   4.569   2.046   7.100 -0.2067 -0.2214 -1.6247
14670SOL    HW244589   4.499   1.976   7.215 -0.2700  0.9560 -0.9280
14671SOL     OW44590   9.705   7.178   3.985 -0.4708 -0.1682  0.0537
14671SOL    HW144591   9.761   7.106   4.013 -0.8222 -0.5925 -0.3256
14671SOL    HW244592   9.651   7.198   4.061  0.5499  0.6136  0.6127
14672SOL     OW44593   0.345   3.575   1.599 -0.4682 -0.0277 -0.3192
14672SOL    HW144594   0.384   3.627   1.670 -1.0117 -1.0589  0.7673
14672SOL    HW244595   0.253   3.599   1.600 -1.1751 -2.4557  1.5983
14673SOL     OW44596   5.900   4.940   3.138 -0.6813 -0.0821 -0.5475
14673SOL    HW144597   5.963   4.876   3.105 -0.3919 -0.0130 -0.1338
14673SOL    HW244598   5.833   4.888   3.183  1.2038  0.0081  2.6587
14674SOL     OW44599   7.165   1.296   8.164 -0.3390  0.5297 -0.5411
14674SOL    HW144600   7.141   1.371   8.218  0.0876  0.9420 -0.9215
14674SOL    HW244601   7.259   1.304   8.150 -0.1037 -0.6145  0.2223
14675SOL     OW44602   8.259   1.239   8.041  0.2129 -0.3306 -0.2375
14675SOL    HW144603   8.189   1.227   8.105 -1.3888 -3.0455 -2.2846
14675SOL    HW244604   8.252   1.331   8.016 -0.0723  0.4170  2.2812
14676SOL     OW44605   6.249   2.331   7.784  0.3949  0.0922  0.5289
14676SOL    HW144606   6.336   2.355   7.815 -0.0421  2.4250  0.1510
14676SOL    HW244607   6.231   2.392   7.712 -0.7137 -1.7385 -0.8338
14677SOL     OW44608   0.196   9.702   5.341 -0.0834 -0.2226 -0.1600
14677SOL    HW144609   0.210   9.631   5.279 -1.1259  1.2997 -2.2849
14677SOL    HW244610   0.250   9.774   5.307  1.5809 -0.1488  2.3612
14678SOL     OW44611   7.670   0.271   5.701  0.4823  0.3443 -0.2378
14678SOL    HW144612   7.643   0.347   5.648 -1.7766  0.7127  1.2878
14678SOL    HW244613   7.763   0.285   5.718  0.7256  1.3873 -2.1547
14679SOL     OW44614   7.116   0.981   4.304 -0.2703 -0.5038 -0.1104
14679SOL    HW144615   7.134   0.893   4.273  0.4975 -0.7906  1.0957
14679SOL    HW244616   7.028   0.976   4.341  0.4316 -1.2433  1.5499
14680SOL     OW44617   0.092   8.295   4.904  0.0102  0.0135  0.7579
14680SOL    HW144618   0.184   8.298   4.878  0.1831  1.1004  1.4179
14680SOL    HW244619   0.058   8.216   4.862  0.8074  0.4986 -0.9115
14681SOL     OW44620   7.850   4.673   9.246  0.2551 -0.4256  0.3691
14681SOL    HW144621   7.864   4.688   9.340 -2.7746 -0.2619  0.9030
14681SOL    HW244622   7.811   4.586   9.242 -2.2814  0.6486 -0.3388
14682SOL     OW44623   8.715   7.821   8.085  0.4365  0.3728  0.3489
14682SOL    HW144624   8.701   7.889   8.151  1.2902 -0.9552  2.0179
14682SOL    HW244625   8.811   7.813   8.079  0.3970  0.8398 -1.5164
14683SOL     OW44626   7.057   2.182   0.302 -0.2443 -0.3845  0.0892
14683SOL    HW144627   7.112   2.134   0.364 -0.8768 -0.5364  0.5316
14683SOL    HW244628   7.056   2.272   0.335 -0.3684 -0.4086  0.1496
14684SOL     OW44629   5.249   8.196   1.275 -0.6733  0.0048  0.4959
14684SOL    HW144630   5.277   8.161   1.191  0.5639 -1.1815  1.3539
14684SOL    HW244631   5.198   8.125   1.315 -0.3087  0.1356  1.2078
14685SOL     OW44632   0.959   1.619   7.204  0.6732  0.5227 -0.2876
14685SOL    HW144633   1.039   1.623   7.151  1.7284  1.5648  1.2925
14685SOL    HW244634   0.986   1.575   7.284 -1.1826 -2.1201 -1.0053
14686SOL     OW44635   3.576   7.606   0.884 -0.3350  0.3312  0.2326
14686SOL    HW144636   3.542   7.516   0.882 -2.4387  1.0472 -1.4848
14686SOL    HW244637   3.539   7.644   0.964 -0.6160  0.0481  0.2413
14687SOL     OW44638   6.251   0.143   9.381  0.0239  0.3294 -0.0891
14687SOL    HW144639   6.232   0.204   9.310 -2.0627 -0.1545 -0.0136
14687SOL    HW244640   6.202   0.177   9.456 -1.6932 -1.6462 -0.1962
14688SOL     OW44641   2.053   0.941   4.252  0.2429 -0.7667 -0.6384
14688SOL    HW144642   1.978   0.882   4.259 -1.0734  0.4095 -3.1910
14688SOL    HW244643   2.014   1.028   4.246  1.7238 -0.1612 -2.5264
14689SOL     OW44644   6.657   5.482   4.519 -0.4384 -0.5493  0.5227
14689SOL    HW144645   6.752   5.482   4.514 -0.4540 -1.2965  0.0357
14689SOL    HW244646   6.631   5.394   4.492 -1.3707  0.3242 -1.7300
14690SOL     OW44647   1.119   5.272   0.612 -0.0047  0.0588  0.0692
14690SOL    HW144648   1.052   5.340   0.612  1.3427  1.4395  0.1380
14690SOL    HW244649   1.145   5.265   0.521 -0.6028 -0.8777 -0.0436
14691SOL     OW44650   6.415   8.378   4.310  0.2785  0.3914  0.2245
14691SOL    HW144651   6.390   8.387   4.402  2.4916  1.4084  0.8116
14691SOL    HW244652   6.447   8.288   4.303 -0.1135  0.2370  0.3904
14692SOL     OW44653   6.279   1.399   2.997 -0.7847 -0.0090 -0.0317
14692SOL    HW144654   6.225   1.382   3.074 -2.3514  0.8086 -0.9030
14692SOL    HW244655   6.336   1.322   2.990 -3.0029 -1.7484 -0.0508
14693SOL     OW44656   4.181   6.861   9.370  0.3052 -0.2470 -0.1129
14693SOL    HW144657   4.267   6.840   9.333  0.1251 -0.3974 -0.4507
14693SOL    HW244658   4.124   6.870   9.294  0.1057  0.2376  0.0918
14694SOL     OW44659   1.150   4.045   0.854  0.2880 -0.3054 -0.2293
14694SOL    HW144660   1.246   4.048   0.858  0.2359 -0.1308  1.2822
14694SOL    HW244661   1.123   4.013   0.940 -1.0521  0.4200 -0.3596
14695SOL     OW44662   9.900   3.633   5.609  0.6427  0.2916  0.8006
14695SOL    HW144663   9.824   3.663   5.559  0.9272  0.2534  0.3433
14695SOL    HW244664   9.926   3.709   5.661  1.8056  1.1074 -0.8898
14696SOL     OW44665   5.752   3.148   0.442  0.0151 -0.3114  0.1520
14696SOL    HW144666   5.714   3.231   0.472  0.4080 -0.2607  0.5308
14696SOL    HW244667   5.846   3.165   0.441  0.1178 -0.8383  0.5039
14697SOL     OW44668   1.347   1.324   5.058  0.0669 -0.0116  0.2262
14697SOL    HW144669   1.377   1.403   5.104  0.1880  0.2176 -0.2362
14697SOL    HW244670   1.254   1.340   5.042 -0.1188 -0.3639  0.9375
14698SOL     OW44671   1.250   8.108   6.883 -0.5701 -0.4086  0.2774
14698SOL    HW144672   1.343   8.128   6.870 -1.0415  0.8136 -1.6233
14698SOL    HW244673   1.233   8.033   6.825 -0.4117 -1.8488  2.0064
14699SOL     OW44674   3.593   5.313   1.815 -0.2399 -0.1319  0.1122
14699SOL    HW144675   3.638   5.356   1.742  1.1445 -0.0982  0.9512
14699SOL    HW244676   3.601   5.219   1.796  0.6509 -0.1445  0.5015
14700SOL     OW44677   4.801   6.681   5.836 -0.4508 -0.2169  0.1439
14700SOL    HW144678   4.768   6.638   5.915 -0.4473 -0.8135 -0.1707
14700SOL    HW244679   4.723   6.709   5.789 -0.4455  0.4135  0.5050
14701SOL     OW44680   2.283   5.702   1.654  0.2061 -0.5882  0.0514
14701SOL    HW144681   2.285   5.791   1.691 -0.7008 -0.8066  0.6748
14701SOL    HW244682   2.259   5.647   1.729 -3.2859 -0.8771 -1.1095
14702SOL     OW44683   8.920   0.560   8.025  0.2297  0.2012  0.3058
14702SOL    HW144684   8.886   0.484   7.977  2.6892  0.1074 -1.5072
14702SOL    HW244685   8.941   0.525   8.112 -3.3361  0.1167  1.2666
14703SOL     OW44686   6.333   5.007   6.986 -0.3294 -0.1150 -0.1550
14703SOL    HW144687   6.294   5.093   6.996 -0.8135 -0.3404 -0.0732
14703SOL    HW244688   6.355   5.001   6.893  0.1794  0.2930 -0.0639
14704SOL     OW44689   4.932   3.026   4.896 -0.2058  0.1613 -0.1120
14704SOL    HW144690   4.963   2.940   4.925  1.1934  0.6776 -0.0217
14704SOL    HW244691   4.883   3.008   4.816 -0.1309 -0.7378  0.0305
14705SOL     OW44692   5.939   5.963   5.834 -0.0348  0.0756  0.0918
14705SOL    HW144693   5.984   5.997   5.757  0.8659  1.5059  1.2043
14705SOL    HW244694   5.969   6.018   5.907 -0.0568 -1.8597  1.6679
14706SOL     OW44695   3.934   2.703   1.141  0.2614  0.5420 -0.0515
14706SOL    HW144696   4.013   2.756   1.153  0.9988 -0.6308  0.4627
14706SOL    HW244697   3.882   2.752   1.078  0.2484  2.5856  1.4573
14707SOL     OW44698   3.892   5.599   0.415 -0.2870 -0.3825  0.0962
14707SOL    HW144699   3.946   5.663   0.461 -1.3811  0.2023  0.6161
14707SOL    HW244700   3.803   5.634   0.423 -1.0297 -2.3462  1.0554
14708SOL     OW44701   1.757   8.386   4.205 -0.2307 -0.0889  0.7303
14708SOL    HW144702   1.789   8.296   4.194 -0.5700 -0.4528  2.4638
14708SOL    HW244703   1.823   8.429   4.259 -2.2110 -0.6866  3.8639
14709SOL     OW44704   1.824   8.235   2.849  0.0090  0.2245  0.2633
14709SOL    HW144705   1.891   8.168   2.862  0.3130 -0.4438 -3.5030
14709SOL    HW244706   1.871   8.318   2.853  0.7589 -0.1448 -0.5730
14710SOL     OW44707   1.477   0.783   7.812  0.1402 -0.3676 -0.2928
14710SOL    HW144708   1.451   0.749   7.898 -0.2933 -0.9394 -0.6428
14710SOL    HW244709   1.447   0.717   7.750 -1.0428  0.8156 -1.0300
14711SOL     OW44710   5.620   6.648   8.745 -0.1958  0.1039 -0.5123
14711SOL    HW144711   5.712   6.634   8.720 -0.0521  0.1698 -0.0159
14711SOL    HW244712   5.583   6.560   8.748 -0.1854  0.0844 -0.8318
14712SOL     OW44713   1.718   1.618   3.446 -0.0198 -0.3210 -0.1807
14712SOL    HW144714   1.635   1.606   3.401 -0.3906  0.1862  0.3592
14712SOL    HW244715   1.701   1.685   3.512  0.8884  0.0029 -0.2542
14713SOL     OW44716   8.730   0.007   2.551 -0.0818  0.8185  0.0696
14713SOL    HW144717   8.665   0.010   2.621 -1.3798 -1.1828 -0.9693
14713SOL    HW244718   8.748   0.099   2.531 -2.7497  1.4631  0.2506
14714SOL     OW44719   3.648   1.587   7.519 -0.7640  0.5083 -0.2812
14714SOL    HW144720   3.743   1.594   7.507 -0.8268  0.0106 -1.0778
14714SOL    HW244721   3.622   1.673   7.552  0.2435  0.0367  1.9068
14715SOL     OW44722   2.074   6.195   1.330 -0.1338  0.0493 -0.4940
14715SOL    HW144723   2.168   6.214   1.331 -0.4840  1.9704 -0.5691
14715SOL    HW244724   2.040   6.246   1.257 -1.1326 -1.2668 -0.9761
14716SOL     OW44725   5.084   1.466   7.800 -0.2500 -0.0610 -0.2915
14716SOL    HW144726   5.038   1.490   7.719 -0.4195  0.9005  0.0864
14716SOL    HW244727   5.058   1.532   7.864  2.8113  1.4814 -0.4416
14717SOL     OW44728   8.645   6.551   4.422 -0.2669 -0.5084 -0.1045
14717SOL    HW144729   8.559   6.517   4.397 -0.2151 -0.7537  0.0481
14717SOL    HW244730   8.649   6.541   4.517 -0.2853  0.0071 -0.0416
14718SOL     OW44731   3.923   4.768   0.987  0.1913 -0.0014 -0.1568
14718SOL    HW144732   3.917   4.724   1.072 -1.4744  0.8448  0.2045
14718SOL    HW244733   3.854   4.835   0.990  0.8104  0.7568 -1.7672
14719SOL     OW44734   8.686   0.613   8.627 -0.0594  0.1687  0.1029
14719SOL    HW144735   8.706   0.678   8.559  1.5868  0.0297  0.4078
14719SOL    HW244736   8.683   0.530   8.581  0.4641  0.1500  0.0932
14720SOL     OW44737   2.541   9.100   5.348  0.1319 -0.0440 -0.1051
14720SOL    HW144738   2.483   9.089   5.423 -0.5212  1.4119 -0.3750
14720SOL    HW244739   2.615   9.150   5.382  0.7289 -0.9751 -0.0134
14721SOL     OW44740   6.331   3.706   0.412  0.7040 -0.0939 -0.7335
14721SOL    HW144741   6.375   3.665   0.337  0.3229  1.5046 -1.8971
14721SOL    HW244742   6.381   3.787   0.427 -0.5777  0.7249 -0.7420
14722SOL     OW44743   2.303   2.776   6.170 -0.5003 -0.1694  0.2142
14722SOL    HW144744   2.268   2.864   6.159  1.0534  0.7330  2.0408
14722SOL    HW244745   2.381   2.774   6.114 -0.7130 -0.5136 -0.0755
14723SOL     OW44746   0.550   4.534   4.804  0.2693 -0.1140  0.1820
14723SOL    HW144747   0.572   4.491   4.722 -1.9094  0.2414 -0.6536
14723SOL    HW244748   0.590   4.620   4.798  1.1187 -0.5075  0.0373
14724SOL     OW44749   5.648   0.964   5.622 -0.1192 -0.0662  0.4218
14724SOL    HW144750   5.720   0.992   5.566 -0.7584  0.0269 -0.3810
14724SOL    HW244751   5.660   0.870   5.632 -1.0555 -0.4433 -1.5056
14725SOL     OW44752   0.609   7.833   0.478 -0.6094 -0.3123 -0.2824
14725SOL    HW144753   0.521   7.814   0.444 -0.0934  0.5601 -2.2931
14725SOL    HW244754   0.604   7.924   0.507 -0.5494 -0.4831  0.2719
14726SOL     OW44755   7.424   4.423   1.001 -0.3406 -0.1953  1.1034
14726SOL    HW144756   7.450   4.390   0.916 -1.1141 -1.8595  1.4734
14726SOL    HW244757   7.361   4.493   0.982  0.8503  0.6815  0.3093
14727SOL     OW44758   3.521   5.075   4.758  0.7144  0.2465  0.1724
14727SOL    HW144759   3.499   5.105   4.671 -1.3290  0.9488  0.8773
14727SOL    HW244760   3.453   5.011   4.780  1.5630 -0.4061  1.0177
14728SOL     OW44761   4.151   4.200   3.803 -0.1178 -0.2691  0.5943
14728SOL    HW144762   4.139   4.294   3.787  1.5979 -0.2041 -0.4661
14728SOL    HW244763   4.160   4.161   3.716  0.6162 -1.2114  1.0791
14729SOL     OW44764   1.971   8.550   8.168 -0.4096  0.6180 -0.1268
14729SOL    HW144765   2.021   8.470   8.183 -0.8465  0.5761  1.2111
14729SOL    HW244766   2.022   8.598   8.102  1.2355  0.4148  0.9356
14730SOL     OW44767   0.822   7.444   7.840 -0.6618 -1.2202  0.1022
14730SOL    HW144768   0.801   7.534   7.814 -1.2398 -1.3517  0.1111
14730SOL    HW244769   0.865   7.454   7.925  1.3543 -0.7790 -0.9046
14731SOL     OW44770   0.921   5.653   2.778 -0.2423 -0.3668 -0.5990
14731SOL    HW144771   0.950   5.719   2.841  2.2401 -1.2124 -0.7141
14731SOL    HW244772   0.826   5.662   2.775 -0.0178  3.5181 -1.0068
14732SOL     OW44773   0.825   6.015   6.443 -0.2693 -0.0856  0.2023
14732SOL    HW144774   0.915   6.019   6.413 -0.4597  2.6387 -0.2957
14732SOL    HW244775   0.817   6.087   6.506 -1.7731 -1.1013  1.2660
14733SOL     OW44776   1.911   9.896   5.787 -0.1903  0.2803 -0.3810
14733SOL    HW144777   1.993   9.928   5.750  0.8916 -2.4258 -0.5771
14733SOL    HW244778   1.930   9.885   5.880 -0.6012  0.3885 -0.2825
14734SOL     OW44779   5.836   9.569   4.846  0.3502 -0.0904 -0.5356
14734SOL    HW144780   5.855   9.565   4.752 -0.1951  1.2195 -0.7320
14734SOL    HW244781   5.787   9.651   4.857 -0.5306 -0.7474  0.7326
14735SOL     OW44782   9.396   6.071   7.663  0.0803 -0.2686  0.1101
14735SOL    HW144783   9.326   6.013   7.694  0.3605  0.1497  1.5728
14735SOL    HW244784   9.432   6.025   7.587  0.0788 -1.8853  1.0268
14736SOL     OW44785   9.483   3.399   4.187  0.2990 -0.2344  0.0712
14736SOL    HW144786   9.562   3.345   4.185  0.4234 -0.0362 -0.3099
14736SOL    HW244787   9.503   3.474   4.132 -0.6423 -0.8501 -1.1787
14737SOL     OW44788   6.903   1.897   2.735  0.0107  0.0144  0.3890
14737SOL    HW144789   6.871   1.841   2.805  3.0240 -3.3011 -0.5851
14737SOL    HW244790   6.909   1.839   2.659  2.4840  1.8659 -0.9840
14738SOL     OW44791   1.657   3.306   0.164  0.9373 -0.3656 -0.4026
14738SOL    HW144792   1.661   3.326   0.257  4.0630  2.5448 -0.9487
14738SOL    HW244793   1.716   3.231   0.153  0.1009 -1.0905  0.0101
14739SOL     OW44794   6.904   9.517   1.826  0.1584 -0.8350 -0.1792
14739SOL    HW144795   6.959   9.455   1.778  0.0047 -0.4447 -0.8739
14739SOL    HW244796   6.923   9.500   1.918  1.5492 -0.6147 -0.4044
14740SOL     OW44797   0.924   3.591   3.365 -0.3054  0.0670  0.2428
14740SOL    HW144798   0.992   3.648   3.399 -1.7702  1.1922  1.4517
14740SOL    HW244799   0.905   3.530   3.437 -1.2901  0.4553  0.3330
14741SOL     OW44800   1.719   8.379   7.562  0.6716 -0.0961 -0.6314
14741SOL    HW144801   1.804   8.410   7.533  0.6535 -1.0577 -1.7682
14741SOL    HW244802   1.690   8.318   7.494 -0.0956 -1.2213  0.6442
14742SOL     OW44803   3.279   6.879   4.736  0.3038  0.2251  0.3447
14742SOL    HW144804   3.196   6.864   4.782  0.8550  1.2835  1.7635
14742SOL    HW244805   3.265   6.959   4.686  0.6665  0.7816  1.1195
14743SOL     OW44806   2.508   8.056   1.335  0.0786  0.1117 -0.6605
14743SOL    HW144807   2.451   8.005   1.278 -1.8864  1.4584 -0.0116
14743SOL    HW244808   2.577   8.087   1.278  0.0247 -1.3095 -1.5526
14744SOL     OW44809   1.294   7.954   0.407  0.5101  0.2974 -0.0969
14744SOL    HW144810   1.244   7.883   0.448 -0.1364 -0.0433 -1.4201
14744SOL    HW244811   1.297   8.022   0.474 -0.2488 -0.3556  0.6277
14745SOL     OW44812   8.934   0.458   1.712 -0.0436  0.5978 -0.2444
14745SOL    HW144813   8.940   0.554   1.711 -0.0021  0.5915 -1.1811
14745SOL    HW244814   8.840   0.440   1.704 -0.1133  0.5553  0.5525
14746SOL     OW44815   1.003   8.235   9.167 -0.5356 -0.3244 -0.1952
14746SOL    HW144816   1.089   8.195   9.181 -0.3484  0.0723 -0.2031
14746SOL    HW244817   0.942   8.162   9.168 -0.2123 -0.5917 -0.0439
14747SOL     OW44818   3.866   3.572   6.056 -0.1719 -0.0587 -0.0973
14747SOL    HW144819   3.916   3.495   6.080 -0.5698 -0.6515 -1.0912
14747SOL    HW244820   3.862   3.625   6.136  2.1387  0.0889 -0.0030
14748SOL     OW44821   0.769   5.957   2.626  0.6596 -0.7136  0.0052
14748SOL    HW144822   0.744   5.948   2.718 -1.7750  1.8860 -0.2579
14748SOL    HW244823   0.731   6.041   2.599  1.0026 -1.5246 -3.4770
14749SOL     OW44824   6.503   0.225   4.797 -0.4250  0.3797  0.1446
14749SOL    HW144825   6.579   0.168   4.789 -1.2721 -0.6226 -1.3366
14749SOL    HW244826   6.434   0.170   4.833 -0.0909  1.7019  3.0688
14750SOL     OW44827   8.802   1.069   9.890  0.0206 -0.0154  0.1850
14750SOL    HW144828   8.820   1.026   9.974  0.7245  0.4065  0.2607
14750SOL    HW244829   8.735   1.134   9.911  0.9892  0.8531  0.6711
14751SOL     OW44830   1.753   6.987   3.247  0.1376  0.2707  0.5992
14751SOL    HW144831   1.808   7.057   3.283  1.7953  0.4616 -1.9841
14751SOL    HW244832   1.668   7.027   3.233  0.7144  1.4302  0.3008
14752SOL     OW44833   0.995   6.608   4.889 -0.0462 -0.0605  0.0470
14752SOL    HW144834   0.994   6.621   4.984 -1.5775 -2.0649  0.3717
14752SOL    HW244835   1.038   6.524   4.877 -0.4121 -0.1160 -0.9814
14753SOL     OW44836   6.144   9.543   9.410  0.2808  0.4863  0.4934
14753SOL    HW144837   6.117   9.524   9.499  0.4348 -1.5162  0.1514
14753SOL    HW244838   6.231   9.582   9.419  0.4332 -0.0133  1.2029
14754SOL     OW44839   9.712   5.113   6.217  0.3048 -0.4974 -0.1879
14754SOL    HW144840   9.807   5.129   6.221  0.5662 -2.1108  0.5933
14754SOL    HW244841   9.695   5.051   6.288 -1.0871 -1.4566 -1.3229
14755SOL     OW44842   3.969   7.645   4.986 -0.0808  0.0663 -0.2999
14755SOL    HW144843   3.969   7.726   5.036  2.4688  0.2180 -0.3920
14755SOL    HW244844   4.039   7.592   5.025 -0.8427 -1.5764 -1.0393
14756SOL     OW44845   1.890   9.752   9.353  0.0926  0.1921 -0.3000
14756SOL    HW144846   1.921   9.664   9.373 -0.7384 -0.0278  0.0190
14756SOL    HW244847   1.910   9.803   9.432  0.2150  0.1996 -0.3348
14757SOL     OW44848   0.908   8.777   4.031  0.2748 -0.7630  0.6195
14757SOL    HW144849   0.845   8.738   4.092 -0.7335 -0.1877 -0.0221
14757SOL    HW244850   0.980   8.805   4.086 -0.0784 -1.3366  1.3951
14758SOL     OW44851   3.479   2.769   2.421  0.0751  0.2012 -0.4309
14758SOL    HW144852   3.527   2.837   2.372 -1.2163  1.9516  0.6399
14758SOL    HW244853   3.538   2.746   2.493  0.1627  0.8524 -0.2875
14759SOL     OW44854   5.748   2.895   6.416 -0.0804 -0.5478 -0.2773
14759SOL    HW144855   5.654   2.884   6.402  0.1093  0.2296 -2.6560
14759SOL    HW244856   5.756   2.976   6.465 -0.6822 -1.5940  1.6518
14760SOL     OW44857   2.627   8.969   2.746  0.1285 -0.6977  0.3386
14760SOL    HW144858   2.665   9.056   2.757 -2.0768  0.5226 -0.9258
14760SOL    HW244859   2.607   8.962   2.653  0.8853 -2.8918  0.2707
14761SOL     OW44860   6.681   6.695   3.668  0.0905  0.1547 -0.0139
14761SOL    HW144861   6.645   6.667   3.584  1.5716 -0.7676 -0.3678
14761SOL    HW244862   6.716   6.783   3.652 -0.9536  0.6007  0.0525
14762SOL     OW44863   9.240   8.846   3.154  0.7292  0.3980 -0.3052
14762SOL    HW144864   9.264   8.769   3.206  1.8090  0.0622 -1.2445
14762SOL    HW244865   9.148   8.832   3.132  0.4735  0.1688  0.8492
14763SOL     OW44866   2.452   3.257   7.480 -0.3797 -0.3125  0.5674
14763SOL    HW144867   2.442   3.316   7.404 -0.1246  0.8651  1.4270
14763SOL    HW244868   2.410   3.175   7.452  1.7810 -0.7555 -1.7324
14764SOL     OW44869   3.655   5.987   8.106  0.7812 -0.4638  0.5388
14764SOL    HW144870   3.626   5.949   8.023  1.4619 -0.5823  0.3523
14764SOL    HW244871   3.587   6.051   8.128  0.1714 -1.0315  0.3196
14765SOL     OW44872   3.338   1.099   9.392  0.2322 -0.7109 -0.2875
14765SOL    HW144873   3.375   1.156   9.325  0.7556 -1.2895 -0.5044
14765SOL    HW244874   3.276   1.154   9.439  1.2746  0.2551  0.0043
14766SOL     OW44875   1.854   4.678   5.374 -0.2780  0.1657 -0.5800
14766SOL    HW144876   1.857   4.585   5.352  1.5729 -0.3424  1.3740
14766SOL    HW244877   1.782   4.686   5.436  0.6898 -0.4126  0.6844
14767SOL     OW44878   0.606   7.504   0.669  0.1496 -0.3374  0.4571
14767SOL    HW144879   0.596   7.453   0.589  0.3276 -0.6123  0.6104
14767SOL    HW244880   0.577   7.446   0.739 -0.1149 -0.0587  0.5834
14768SOL     OW44881   3.327   3.353   0.143  0.2445  0.0089 -0.3101
14768SOL    HW144882   3.265   3.329   0.213  1.1781  0.1593  0.6019
14768SOL    HW244883   3.391   3.410   0.187  2.2339 -1.8115 -0.6966
14769SOL     OW44884   0.810   5.496   4.914 -0.0544 -0.1297 -0.1580
14769SOL    HW144885   0.904   5.499   4.934 -0.5193  0.2448  2.2692
14769SOL    HW244886   0.807   5.490   4.818  2.4326 -0.5222 -0.2976
14770SOL     OW44887   2.032   8.983   5.124 -0.0229  0.3854  0.2064
14770SOL    HW144888   1.971   8.990   5.198 -0.9134 -1.2037 -0.3382
14770SOL    HW244889   2.083   8.904   5.143  0.7662  0.8044 -0.1507
14771SOL     OW44890   9.495   4.944   0.877 -0.7155 -0.3332  0.3538
14771SOL    HW144891   9.522   4.995   0.954 -1.6432 -0.4935  0.8086
14771SOL    HW244892   9.561   4.963   0.811 -0.9764  1.4000  0.5431
14772SOL     OW44893   1.368   9.486   4.990 -0.3606  0.7890 -0.1635
14772SOL    HW144894   1.292   9.429   5.004 -1.5528  2.0652 -1.1130
14772SOL    HW244895   1.424   9.470   5.066 -1.5916 -0.1671  0.5948
14773SOL     OW44896   2.708   4.634   8.817  0.1333  0.3584 -0.2540
14773SOL    HW144897   2.694   4.539   8.819  1.4127  0.1346 -0.6325
14773SOL    HW244898   2.759   4.649   8.737  0.3324  1.2984  0.0379
14774SOL     OW44899   6.162   8.151   6.509 -0.5689  0.1442 -0.4467
14774SOL    HW144900   6.236   8.138   6.449  1.1573  0.1625  1.5448
14774SOL    HW244901   6.137   8.062   6.535 -0.0142  0.1750  0.2399
14775SOL     OW44902   8.695   9.677   0.410 -0.3747 -0.2199 -0.4838
14775SOL    HW144903   8.670   9.706   0.322  0.5272 -2.1939 -1.4339
14775SOL    HW244904   8.789   9.697   0.416 -0.1386 -1.2965 -0.4867
14776SOL     OW44905   2.603   9.877   2.826  0.4500  0.1382  0.1191
14776SOL    HW144906   2.634   9.851   2.738 -0.6194  1.2450 -0.6070
14776SOL    HW244907   2.646   9.815   2.885  0.0909 -1.5620 -1.3063
14777SOL     OW44908   7.087   9.426   7.009  0.7817 -0.2573  0.6593
14777SOL    HW144909   7.132   9.510   7.007  0.5043 -0.0884  1.2611
14777SOL    HW244910   7.067   9.412   7.102  2.0909 -1.6660  0.7713
14778SOL     OW44911   9.991   0.742   3.639 -0.1488 -0.6300 -0.1039
14778SOL    HW144912   9.909   0.790   3.623 -0.4205 -0.8088  0.6814
14778SOL    HW244913  10.024   0.722   3.552 -1.1454 -0.8916 -0.4393
14779SOL     OW44914   4.901   9.242   5.270  0.1529  0.1403 -0.2915
14779SOL    HW144915   4.991   9.270   5.284  1.1433 -2.4120 -1.0534
14779SOL    HW244916   4.890   9.166   5.326 -1.5331  0.3739 -0.2504
14780SOL     OW44917   4.442   3.139   8.709  0.1602  0.2409 -1.1027
14780SOL    HW144918   4.469   3.231   8.699 -1.3618  0.7491 -0.7627
14780SOL    HW244919   4.348   3.140   8.695 -0.1080 -1.0403  0.3403
14781SOL     OW44920   0.048   2.650   3.226  0.3447 -0.1433 -0.3275
14781SOL    HW144921   0.009   2.724   3.272 -2.7536 -0.1153 -2.6483
14781SOL    HW244922   0.096   2.690   3.153 -0.4648 -0.3240 -0.9798
14782SOL     OW44923   8.868   6.097   3.427 -0.3406  0.3101  0.4937
14782SOL    HW144924   8.948   6.123   3.472 -0.7067 -1.0494  2.0884
14782SOL    HW244925   8.891   6.016   3.382 -1.2125 -1.2025  2.5920
14783SOL     OW44926   9.884   9.604   9.728  0.0499  0.0427 -0.6534
14783SOL    HW144927   9.809   9.608   9.787  1.5014 -2.3138  1.5295
14783SOL    HW244928   9.862   9.534   9.666 -0.6528  1.2355 -1.8184
14784SOL     OW44929   5.278   6.892   7.538 -0.6126 -0.0769 -0.0899
14784SOL    HW144930   5.218   6.934   7.600 -1.1038  1.3280 -1.4572
14784SOL    HW244931   5.345   6.958   7.520 -0.3099 -0.5716 -0.8266
14785SOL     OW44932   3.118   6.715   2.573 -0.3179  0.2573  0.1345
14785SOL    HW144933   3.208   6.742   2.589  0.6621 -1.7899 -1.3903
14785SOL    HW244934   3.090   6.672   2.653  0.6859 -0.5885  0.0401
14786SOL     OW44935   3.435   4.693   7.617  0.1952  0.2239 -0.0014
14786SOL    HW144936   3.476   4.616   7.576  0.3758  0.5708 -0.4869
14786SOL    HW244937   3.351   4.661   7.650  0.8248 -0.4838  0.9590
14787SOL     OW44938   0.255   5.790   6.275  0.1033  0.1687  0.1935
14787SOL    HW144939   0.284   5.726   6.209 -2.8487 -1.3585  0.2068
14787SOL    HW244940   0.239   5.738   6.354  0.0286  1.3599  0.9927
14788SOL     OW44941   9.372   4.100   6.729  0.0923  0.2080  0.0707
14788SOL    HW144942   9.410   4.012   6.725  0.8819  0.4654  1.2488
14788SOL    HW244943   9.348   4.121   6.639  2.0641 -0.2766 -0.5990
14789SOL     OW44944   8.363   3.610   9.325  0.3512 -0.1685  0.4700
14789SOL    HW144945   8.453   3.639   9.313  0.5664 -1.2979 -0.8607
14789SOL    HW244946   8.357   3.527   9.277 -1.3317 -0.2393  0.7253
14790SOL     OW44947   9.702   9.691   3.364 -0.0593  0.3360  0.1537
14790SOL    HW144948   9.607   9.694   3.356 -0.0686 -1.6105 -1.2836
14790SOL    HW244949   9.725   9.601   3.340  2.1597  0.8298  0.2287
14791SOL     OW44950   4.437   2.855   7.762 -0.2819  0.7313 -0.3487
14791SOL    HW144951   4.501   2.924   7.781 -0.0513  0.7345 -1.0955
14791SOL    HW244952   4.490   2.778   7.743 -0.5355  0.3873  0.2874
14792SOL     OW44953   0.672   5.777   6.459  0.5081 -0.6543  0.4315
14792SOL    HW144954   0.722   5.859   6.455  0.3068 -0.4282  2.0412
14792SOL    HW244955   0.623   5.775   6.377  2.2967 -0.3438 -0.7077
14793SOL     OW44956   0.419   3.532   1.138 -0.4254  0.7346 -0.3133
14793SOL    HW144957   0.346   3.504   1.192 -1.0786 -0.2146 -1.6195
14793SOL    HW244958   0.389   3.612   1.095 -1.1424 -0.2018 -1.6336
14794SOL     OW44959   8.836   1.087   1.064  0.0067  0.4321 -0.1940
14794SOL    HW144960   8.840   1.032   0.986 -0.0236  0.5495 -0.2779
14794SOL    HW244961   8.890   1.163   1.043 -0.0570  0.4960 -0.1259
14795SOL     OW44962   9.891   8.482   2.072 -0.4240 -0.3772 -0.4330
14795SOL    HW144963   9.858   8.447   1.989 -1.2846  0.5656 -0.5076
14795SOL    HW244964   9.828   8.453   2.137  0.3410 -1.2556 -0.0637
14796SOL     OW44965   5.575   2.350   5.932 -0.1356 -0.2994  0.4212
14796SOL    HW144966   5.492   2.383   5.966  0.2009  2.6957 -1.2060
14796SOL    HW244967   5.555   2.327   5.841  0.2639 -2.2907  0.7999
14797SOL     OW44968   3.403   7.587   2.900  0.0425  0.4814  0.4203
14797SOL    HW144969   3.326   7.638   2.873  0.5585  1.0589  0.0075
14797SOL    HW244970   3.390   7.573   2.994 -0.2567  1.1336  0.4853
14798SOL     OW44971   6.213   5.012   9.596  0.8667  0.0667  0.1872
14798SOL    HW144972   6.219   5.103   9.623  1.1074 -0.6753  2.9144
14798SOL    HW244973   6.120   4.990   9.607  0.7678  0.0131 -0.6687
14799SOL     OW44974   1.462   9.812   4.101 -0.5198  0.5258 -0.1513
14799SOL    HW144975   1.412   9.891   4.120  0.2076  0.8918  0.2995
14799SOL    HW244976   1.528   9.809   4.170 -0.6709 -0.5933 -0.0408
14800SOL     OW44977   8.672   0.120   0.568 -0.8457  0.7364 -0.6205
14800SOL    HW144978   8.759   0.139   0.533 -0.0399 -1.5825 -0.0743
14800SOL    HW244979   8.673   0.157   0.656  0.5004 -1.1801  0.2458
14801SOL     OW44980   2.941   3.437   0.032 -0.4685 -0.3125 -0.2240
14801SOL    HW144981   2.945   3.460   0.125 -0.1523 -3.2452  0.5997
14801SOL    HW244982   3.032   3.435   0.004 -0.3856 -1.5941  0.0635
14802SOL     OW44983   9.210   3.060   2.101  0.2392  0.9013  0.2354
14802SOL    HW144984   9.132   3.007   2.083  0.9365  0.2990 -1.1892
14802SOL    HW244985   9.282   3.010   2.061  1.1740  2.0592  0.4286
14803SOL     OW44986   7.938   5.910   3.077  0.2744  0.0378 -0.0574
14803SOL    HW144987   7.953   5.938   3.167  0.8764 -0.5834  0.0394
14803SOL    HW244988   7.851   5.870   3.078  0.5274 -0.5120  0.3841
14804SOL     OW44989   9.817   2.250   6.505  0.2035  0.3874 -0.0100
14804SOL    HW144990   9.753   2.320   6.496 -1.1511 -0.9541 -1.4904
14804SOL    HW244991   9.875   2.261   6.430 -0.0493 -0.0954 -0.2793
14805SOL     OW44992   3.837   4.123   3.435 -0.1930  0.8164 -0.7197
14805SOL    HW144993   3.794   4.163   3.359 -2.1292 -0.3262 -0.2762
14805SOL    HW244994   3.886   4.050   3.398  1.0634  1.8309 -1.1620
14806SOL     OW44995   8.860   2.712   4.135 -0.4885 -0.2963  0.5054
14806SOL    HW144996   8.931   2.743   4.079  1.0288 -1.4719  1.6723
14806SOL    HW244997   8.804   2.661   4.077  1.6458 -2.4309  0.1570
14807SOL     OW44998   9.648   3.659   4.288  0.3339  0.2458 -0.3159
14807SOL    HW144999   9.650   3.751   4.314 -0.5863  0.2449 -0.2095
14807SOL    HW245000   9.733   3.644   4.246  0.9038  0.8671  0.5784
14808SOL     OW45001   4.686   4.220   2.901  0.3934  0.2551  0.4847
14808SOL    HW145002   4.776   4.194   2.884 -0.3714 -1.3028 -1.5845
14808SOL    HW245003   4.687   4.316   2.893  1.4093  0.1127 -2.4233
14809SOL     OW45004   1.337   1.333   9.882 -0.2872 -0.1411 -0.3254
14809SOL    HW145005   1.389   1.410   9.902  1.7514 -1.2786 -0.9134
14809SOL    HW245006   1.246   1.363   9.885  0.4035  2.0413  0.3090
14810SOL     OW45007   2.457   4.887   3.497 -0.3597  0.3777  0.0377
14810SOL    HW145008   2.541   4.927   3.477 -0.3386 -0.3501 -1.4420
14810SOL    HW245009   2.434   4.838   3.418 -1.7744 -0.1190  0.7226
14811SOL     OW45010   4.022   9.062   3.210  0.1230 -0.0789 -0.5886
14811SOL    HW145011   3.932   9.036   3.229 -0.0899  0.0177 -1.4034
14811SOL    HW245012   4.071   9.041   3.289 -0.2054 -2.1278 -0.8750
14812SOL     OW45013   3.872   2.154   5.324 -0.1817  0.7752 -0.2716
14812SOL    HW145014   3.962   2.148   5.293 -0.7772 -2.2866 -1.8429
14812SOL    HW245015   3.826   2.201   5.254 -0.2431 -0.1174 -0.8642
14813SOL     OW45016   2.572   5.073   1.166  0.7786  0.3487 -0.4325
14813SOL    HW145017   2.523   5.099   1.087 -1.2902  1.0445  0.9880
14813SOL    HW245018   2.569   4.978   1.166  0.0247  0.3632 -0.7694
14814SOL     OW45019   0.232   5.192   3.992  0.6081  0.0364 -0.0988
14814SOL    HW145020   0.187   5.143   3.923  0.4282 -0.0522  0.0822
14814SOL    HW245021   0.194   5.280   3.989  0.4155 -0.0422  0.0629
14815SOL     OW45022   1.646   5.971   4.006  0.7414 -0.7022  0.6537
14815SOL    HW145023   1.663   6.030   3.932 -0.8478  1.8468  2.1950
14815SOL    HW245024   1.568   5.923   3.980 -0.4022  0.8954  0.9936
14816SOL     OW45025   8.960   3.069   6.877  0.5241  0.1604 -0.1358
14816SOL    HW145026   8.865   3.060   6.890  0.6057  1.0774  1.2742
14816SOL    HW245027   8.969   3.111   6.791 -0.4415  1.6870  0.4664
14817SOL     OW45028   7.342   8.521   3.199 -0.1995  0.1489 -0.0524
14817SOL    HW145029   7.253   8.557   3.192 -0.9699 -1.7350 -0.7016
14817SOL    HW245030   7.369   8.541   3.289 -1.8311 -0.3660  0.5957
14818SOL     OW45031   9.358   6.347   2.414 -0.5953  0.3079 -0.0340
14818SOL    HW145032   9.337   6.439   2.401 -0.9619  0.4131  1.1820
14818SOL    HW245033   9.317   6.324   2.498  1.1043 -0.4350  0.6425
14819SOL     OW45034   7.926   8.776   3.904 -0.0620  0.2291 -0.3394
14819SOL    HW145035   7.835   8.778   3.934 -0.6830  2.2310 -2.0753
14819SOL    HW245036   7.920   8.754   3.811  1.3243 -0.5068 -0.2794
14820SOL     OW45037   2.659   2.875   2.542 -0.5432  0.3877 -0.2899
14820SOL    HW145038   2.569   2.876   2.510 -1.0807 -3.3675  0.6924
14820SOL    HW245039   2.651   2.877   2.638  0.4293  0.1408 -0.1881
14821SOL     OW45040   1.556   4.621   0.034 -0.0650 -0.2115 -0.0389
14821SOL    HW145041   1.479   4.584   0.077  0.7569  0.3837  2.0401
14821SOL    HW245042   1.520   4.687  -0.026 -1.3132 -1.9388 -1.2642
14822SOL     OW45043   9.695   5.358   5.084  0.5514  0.6684 -0.6384
14822SOL    HW145044   9.705   5.449   5.110 -0.4381  0.8629 -0.9187
14822SOL    HW245045   9.640   5.319   5.152 -0.0540  0.5886 -1.1693
14823SOL     OW45046   6.262   3.719   2.328  0.0453 -0.5358 -0.4981
14823SOL    HW145047   6.306   3.761   2.403 -1.4851  3.4595 -1.5925
14823SOL    HW245048   6.200   3.658   2.368  0.4807  0.1918  1.4059
14824SOL     OW45049   2.053   6.669   6.364  0.0586  0.0879 -0.0449
14824SOL    HW145050   1.982   6.721   6.404  0.2447  0.3161 -0.0074
14824SOL    HW245051   2.008   6.610   6.304 -0.1220  0.6395 -0.4655
14825SOL     OW45052   0.182   7.577   5.117  0.1956  0.0747  0.1342
14825SOL    HW145053   0.264   7.621   5.141 -1.2561  2.3542  1.1736
14825SOL    HW245054   0.183   7.497   5.169  1.4637  0.3594  0.6043
14826SOL     OW45055   6.974   3.996   0.119 -0.3635  0.1959  0.5645
14826SOL    HW145056   7.004   3.947   0.196  1.1009 -0.5507 -0.4315
14826SOL    HW245057   6.883   4.017   0.138  0.5101  1.8330  3.3951
14827SOL     OW45058   4.944   5.164   8.562  0.5842 -1.0084 -0.1182
14827SOL    HW145059   5.012   5.181   8.497  0.9305 -1.7582  0.0303
14827SOL    HW245060   4.988   5.175   8.647 -0.5343  2.7173  0.1086
14828SOL     OW45061   1.613   7.631   3.433  0.1555  0.1040  0.1637
14828SOL    HW145062   1.618   7.656   3.526  1.6165  2.0436 -0.3478
14828SOL    HW245063   1.695   7.584   3.417  0.6395  1.1056 -0.4381
14829SOL     OW45064   2.654   3.559   8.526 -0.2608 -0.0720  0.0552
14829SOL    HW145065   2.590   3.570   8.455 -0.0727  1.7172  0.1108
14829SOL    HW245066   2.733   3.603   8.494  0.1238 -0.0594  0.9927
14830SOL     OW45067   1.261   9.407   2.176 -0.5617 -0.4589 -0.3902
14830SOL    HW145068   1.271   9.317   2.145 -1.4166 -0.6586 -0.1204
14830SOL    HW245069   1.349   9.445   2.171 -0.5807 -0.5614 -2.8307
14831SOL     OW45070   3.964   9.037   0.407 -0.5446 -0.0744  0.2774
14831SOL    HW145071   4.045   9.038   0.356 -1.1890 -0.5431 -0.7692
14831SOL    HW245072   3.943   8.945   0.418  0.6884 -0.1275  3.2535
14832SOL     OW45073   0.848   8.323   9.522  0.0295  0.5300 -0.1747
14832SOL    HW145074   0.805   8.394   9.474 -0.0867  1.1515  0.8194
14832SOL    HW245075   0.908   8.367   9.582  0.3766 -0.2430  0.0590
14833SOL     OW45076   3.840   7.193   8.312  0.7922  0.1010 -0.0465
14833SOL    HW145077   3.828   7.260   8.245  0.6322  0.2396  0.1182
14833SOL    HW245078   3.762   7.200   8.367  0.4731 -0.6468 -0.3908
14834SOL     OW45079   6.168   4.493   5.851 -0.0135 -0.1799 -0.1333
14834SOL    HW145080   6.077   4.501   5.881 -0.3066 -0.4271 -0.9166
14834SOL    HW245081   6.204   4.581   5.861  0.1254 -0.4057  1.5758
14835SOL     OW45082   1.648   0.463   4.814  0.3536 -0.1558  0.0863
14835SOL    HW145083   1.639   0.456   4.909  0.9934 -0.8950  0.1091
14835SOL    HW245084   1.725   0.409   4.793  1.8659  2.1259 -0.5644
14836SOL     OW45085   7.743   3.877   5.851  0.0810 -0.5557 -0.2165
14836SOL    HW145086   7.732   3.972   5.857  0.9210 -0.4693  0.1183
14836SOL    HW245087   7.660   3.845   5.817 -0.9870  0.1016  1.6113
14837SOL     OW45088   7.091   5.823   2.181 -0.1715 -0.0848 -0.2665
14837SOL    HW145089   7.039   5.761   2.233  0.6892 -0.8970 -0.3320
14837SOL    HW245090   7.041   5.904   2.182 -0.0728  0.0093  2.0632
14838SOL     OW45091   6.609   4.019   4.889  0.1437  0.2911  0.0412
14838SOL    HW145092   6.689   4.058   4.854 -0.3461  0.6992 -0.6434
14838SOL    HW245093   6.549   4.017   4.814 -1.3450  2.2454  1.0988
14839SOL     OW45094   3.542   6.631   7.331  0.5052  0.1636  0.0023
14839SOL    HW145095   3.533   6.610   7.238  1.5392  0.9136 -0.2852
14839SOL    HW245096   3.458   6.669   7.355 -0.0134 -0.6704 -0.4448
14840SOL     OW45097   0.263   2.651   1.871  0.5563  0.1559  0.7159
14840SOL    HW145098   0.261   2.744   1.848  0.1028 -0.4601 -2.0559
14840SOL    HW245099   0.309   2.649   1.955  1.8093  2.7575  0.2058
14841SOL     OW45100   1.031   4.250   1.743  0.7480 -0.7851 -0.0017
14841SOL    HW145101   1.091   4.283   1.810  1.6415  1.0596 -1.6302
14841SOL    HW245102   0.959   4.312   1.742  0.3086 -1.2896 -0.1684
14842SOL     OW45103   5.096   4.107   2.217  0.0379 -0.0089 -0.2712
14842SOL    HW145104   5.165   4.173   2.212 -0.3769  0.4350 -0.1979
14842SOL    HW245105   5.138   4.031   2.257  0.7058 -0.0386 -1.0001
14843SOL     OW45106   4.432   7.239   8.524 -0.0661 -0.5937  0.0154
14843SOL    HW145107   4.483   7.268   8.600  1.7044 -2.0243 -0.5513
14843SOL    HW245108   4.357   7.297   8.522  0.4852  0.2881  2.1283
14844SOL     OW45109   9.722   2.952   7.650  0.3044 -0.4195  0.1200
14844SOL    HW145110   9.694   3.032   7.606  0.4426 -0.2264  0.3756
14844SOL    HW245111   9.703   2.968   7.743  4.3566  1.1909  0.9190
14845SOL     OW45112   9.232   5.666   2.818 -0.2615  0.1242 -0.1793
14845SOL    HW145113   9.305   5.720   2.788 -1.0434  0.8197 -0.8696
14845SOL    HW245114   9.156   5.700   2.771 -0.8586 -1.2763 -0.2752
14846SOL     OW45115   2.954   9.358   9.407  0.1061  0.6156 -0.8194
14846SOL    HW145116   2.988   9.409   9.481 -0.1641  3.0943 -2.2882
14846SOL    HW245117   2.860   9.374   9.407 -0.1455 -0.7188 -0.7619
14847SOL     OW45118   0.777   7.506   4.004 -0.1030  0.8022  0.0524
14847SOL    HW145119   0.856   7.559   4.013  1.0428 -0.8316  0.0763
14847SOL    HW245120   0.754   7.482   4.094 -0.6171  1.2478  0.0419
14848SOL     OW45121   0.329   6.154   0.186  0.5204  0.7156 -0.6053
14848SOL    HW145122   0.412   6.110   0.206 -1.3532 -2.4017  0.9951
14848SOL    HW245123   0.274   6.138   0.263 -1.7201  2.4060 -1.7386
14849SOL     OW45124   5.425   2.578   1.672  0.4324 -0.1017 -0.0383
14849SOL    HW145125   5.377   2.505   1.711  2.9937 -2.0223 -0.2000
14849SOL    HW245126   5.454   2.544   1.588  2.2492  0.8402  0.1756
14850SOL     OW45127   3.686   4.671   9.899  0.4890  0.0341  0.0138
14850SOL    HW145128   3.775   4.703   9.913  0.8212 -0.6231 -0.5591
14850SOL    HW245129   3.635   4.750   9.878  0.9244  0.4141  0.3890
14851SOL     OW45130   6.872   2.942   6.213  0.1639  0.0504  0.2643
14851SOL    HW145131   6.853   2.867   6.269  0.1882  0.7908  1.3109
14851SOL    HW245132   6.808   2.936   6.142  0.5353 -1.2529  0.0257
14852SOL     OW45133   9.304   6.552   4.908  0.2091  0.0199  0.4790
14852SOL    HW145134   9.281   6.481   4.968  0.3705  0.7720  1.4622
14852SOL    HW245135   9.397   6.539   4.891  0.1873 -0.1384  0.4806
14853SOL     OW45136   8.661   9.594   9.915  0.5789 -0.2423  0.6621
14853SOL    HW145137   8.708   9.515   9.943 -0.8016 -1.5495 -0.5457
14853SOL    HW245138   8.586   9.561   9.866 -0.2038  1.8400  0.3693
14854SOL     OW45139   1.116   2.296   5.577 -0.4305 -0.4970 -0.5827
14854SOL    HW145140   1.022   2.312   5.577 -0.0250  2.5487 -1.1887
14854SOL    HW245141   1.138   2.281   5.670 -1.7151 -3.4806 -0.6623
14855SOL     OW45142   9.026   8.651   4.365 -0.3644  0.2981  0.5444
14855SOL    HW145143   8.953   8.621   4.311 -0.4707  0.8981  0.3449
14855SOL    HW245144   9.076   8.572   4.385 -0.3485  0.0617 -0.4069
14856SOL     OW45145   3.878   1.435   2.201  0.3514  0.2932 -0.0826
14856SOL    HW145146   3.809   1.412   2.263  0.8964 -0.6106  0.2073
14856SOL    HW245147   3.908   1.521   2.229 -0.7739  0.7743 -0.3253
14857SOL     OW45148   4.671   7.779   8.260 -0.2204 -0.2128  0.2818
14857SOL    HW145149   4.668   7.866   8.300  0.4652 -0.7589  1.5811
14857SOL    HW245150   4.736   7.786   8.190 -1.6100  0.8212 -0.9659
14858SOL     OW45151   5.530   1.099   8.157  0.5837  0.2943 -0.6613
14858SOL    HW145152   5.583   1.064   8.085  0.1672  0.6571 -1.1588
14858SOL    HW245153   5.565   1.186   8.173  0.4968  0.3211 -0.6146
14859SOL     OW45154   3.317   4.205   2.421  0.4075 -0.2283 -1.2377
14859SOL    HW145155   3.257   4.273   2.389  0.7785 -0.0781 -1.6325
14859SOL    HW245156   3.400   4.224   2.377  1.3718  0.8479  0.8834
14860SOL     OW45157   3.548   3.732   9.803 -0.2277 -0.1421 -0.1017
14860SOL    HW145158   3.500   3.761   9.726  0.7275  1.3894 -0.1553
14860SOL    HW245159   3.571   3.641   9.784 -0.8948 -0.1080 -1.1590
14861SOL     OW45160   2.435   8.215   0.720  0.1119 -0.2733 -0.4703
14861SOL    HW145161   2.464   8.292   0.769  0.2939  0.1665 -1.2484
14861SOL    HW245162   2.472   8.227   0.633 -0.3621 -0.9480 -0.7725
14862SOL     OW45163   7.983   8.822   8.443 -0.0078  0.1445  0.3046
14862SOL    HW145164   8.025   8.853   8.363 -0.8548  0.7930  0.0981
14862SOL    HW245165   7.995   8.727   8.441  0.6419  0.2272 -0.2013
14863SOL     OW45166   6.688   8.686   0.116 -0.1230 -0.1366 -0.8584
14863SOL    HW145167   6.629   8.640   0.057 -2.3902  1.0966  0.3265
14863SOL    HW245168   6.676   8.643   0.201  0.6707  0.1706 -0.5765
14864SOL     OW45169   1.875   8.628   2.846  0.8578  0.0654 -0.1961
14864SOL    HW145170   1.932   8.575   2.790  1.0040  0.5633 -0.5273
14864SOL    HW245171   1.895   8.599   2.935  0.9243 -0.4422 -0.3714
14865SOL     OW45172   9.803   9.621   6.323 -0.3268  0.2639 -0.3971
14865SOL    HW145173   9.846   9.593   6.404  1.0395  0.3850 -1.0534
14865SOL    HW245174   9.722   9.571   6.320  0.4860 -1.1465  0.1347
14866SOL     OW45175   0.643   7.179   4.999  0.2149  0.3726  0.1380
14866SOL    HW145176   0.693   7.176   4.917  0.6165 -1.5158  0.4086
14866SOL    HW245177   0.583   7.253   4.988  0.3076  0.2012 -1.8321
14867SOL     OW45178   4.657   3.681   9.472  0.3264  0.2633 -0.1484
14867SOL    HW145179   4.664   3.618   9.544 -0.4520  0.3117 -0.0213
14867SOL    HW245180   4.566   3.711   9.475  0.1670 -0.0351 -1.4131
14868SOL     OW45181   1.566   0.290   0.681  0.4406  0.1971 -0.0473
14868SOL    HW145182   1.639   0.334   0.725  1.0542 -0.6425 -0.2073
14868SOL    HW245183   1.556   0.207   0.727 -0.6126  0.4243  0.1527
14869SOL     OW45184   2.056   8.950   9.965 -0.2278 -0.7179 -0.5209
14869SOL    HW145185   2.020   8.863   9.985  0.6762 -0.6988  1.4676
14869SOL    HW245186   2.135   8.931   9.913 -0.4334 -1.0384 -0.7210
14870SOL     OW45187   0.577   9.858   5.168  0.0893 -0.0489 -1.0387
14870SOL    HW145188   0.561   9.823   5.256 -1.6991  0.9551 -0.9201
14870SOL    HW245189   0.503   9.827   5.116 -1.2326  2.8765 -1.0896
14871SOL     OW45190   9.160   1.153   4.674  0.3590 -0.5009  0.2554
14871SOL    HW145191   9.149   1.249   4.677 -2.0980 -0.7155  2.1592
14871SOL    HW245192   9.202   1.136   4.590  1.4837  2.2827  0.1446
14872SOL     OW45193   2.976   8.191   8.813  0.1781  0.1458  0.5153
14872SOL    HW145194   3.053   8.182   8.869 -1.1192 -1.0838  2.2197
14872SOL    HW245195   2.999   8.144   8.733  0.5376 -1.9180  1.7637
14873SOL     OW45196   7.202   9.206   7.447 -0.1268 -0.2802  0.0479
14873SOL    HW145197   7.218   9.160   7.529  0.2602 -0.7045 -0.2559
14873SOL    HW245198   7.287   9.208   7.403 -0.0889  0.9409  0.1478
14874SOL     OW45199   9.429   2.108   8.290 -0.2470  0.4348  0.4284
14874SOL    HW145200   9.441   2.014   8.301 -0.3224  0.2668 -0.8342
14874SOL    HW245201   9.350   2.129   8.341  0.4947  0.0637  1.7805
14875SOL     OW45202   1.676   1.276   3.287 -0.0992 -0.2413 -0.0977
14875SOL    HW145203   1.641   1.252   3.373  1.5568 -1.6664  0.2374
14875SOL    HW245204   1.668   1.371   3.283 -1.3243 -0.2636  1.1144
14876SOL     OW45205   6.388   0.649   5.604  0.4580 -0.2261 -0.1832
14876SOL    HW145206   6.367   0.739   5.582  0.7765 -0.5490 -1.9270
14876SOL    HW245207   6.465   0.655   5.662 -0.9263  0.6789  1.6708
14877SOL     OW45208   1.091   3.125   1.601  0.0702  0.2210  0.2274
14877SOL    HW145209   1.008   3.125   1.648 -0.4130  2.7061 -0.4839
14877SOL    HW245210   1.130   3.040   1.621 -1.9334 -0.4014  1.8082
14878SOL     OW45211   8.273   8.123   7.979  0.5841 -0.0629 -0.3865
14878SOL    HW145212   8.284   8.028   7.978  1.2763 -0.0084  0.8443
14878SOL    HW245213   8.183   8.136   8.011  0.0068 -0.3056 -1.8227
14879SOL     OW45214   0.296   8.878   0.361  0.0155  0.3365 -0.3200
14879SOL    HW145215   0.357   8.823   0.311 -1.3877 -0.6359 -1.0070
14879SOL    HW245216   0.322   8.864   0.452 -0.4652 -1.7217 -0.4515
14880SOL     OW45217   4.232   4.826   3.492  0.0844  0.4100 -0.1990
14880SOL    HW145218   4.225   4.921   3.501 -0.2214  0.1960  2.8156
14880SOL    HW245219   4.294   4.799   3.560  0.8002 -1.5094 -1.5037
14881SOL     OW45220   7.158   4.508   1.481  0.1274  0.3849 -0.5646
14881SOL    HW145221   7.063   4.495   1.483  0.0201  1.2059  0.2999
14881SOL    HW245222   7.181   4.500   1.389 -0.4729 -1.8327 -0.5795
14882SOL     OW45223   8.483   4.812   6.012  0.0404  0.0646  0.0461
14882SOL    HW145224   8.452   4.778   5.927  1.1536  0.8249 -0.7013
14882SOL    HW245225   8.505   4.903   5.995  0.4071  0.1919  1.1271
14883SOL     OW45226   7.774   5.270   9.627  0.6179  0.0397  0.0749
14883SOL    HW145227   7.773   5.281   9.532  0.1119 -0.2772  0.0454
14883SOL    HW245228   7.685   5.243   9.650  0.2664  1.7032  0.8331
14884SOL     OW45229   3.976   8.280   0.808  0.1044  0.2696  0.3195
14884SOL    HW145230   4.057   8.237   0.835 -0.0392  1.0711  2.1690
14884SOL    HW245231   3.927   8.293   0.889 -2.7515 -1.8150 -0.8900
14885SOL     OW45232   5.100   1.837   6.796  0.0970 -0.4115  0.4775
14885SOL    HW145233   5.114   1.769   6.861 -0.4385 -0.0183  1.0177
14885SOL    HW245234   5.186   1.878   6.785  0.8144 -2.2267 -1.0892
14886SOL     OW45235   3.917   9.859   7.816  0.2206  0.5857  0.5159
14886SOL    HW145236   3.935   9.928   7.880  0.1652  1.4352 -0.3552
14886SOL    HW245237   3.915   9.779   7.867 -0.0258  1.2665  1.6116
14887SOL     OW45238   9.522   9.279   1.026  0.2183  0.0455 -0.1849
14887SOL    HW145239   9.547   9.193   1.060  1.5888 -0.1940 -1.6679
14887SOL    HW245240   9.601   9.312   0.983 -1.7748 -0.6175 -5.0140
14888SOL     OW45241   4.731   3.105   6.789  0.4951 -0.3425  0.4231
14888SOL    HW145242   4.711   3.163   6.862  1.1916  0.9002 -0.3314
14888SOL    HW245243   4.658   3.117   6.728  0.8685  0.1211  0.0564
14889SOL     OW45244   9.232   7.576   4.649 -0.8872  0.5675  0.1735
14889SOL    HW145245   9.307   7.587   4.707 -0.1140  1.2934 -0.9395
14889SOL    HW245246   9.178   7.509   4.692  1.6560 -1.9397 -0.2551
14890SOL     OW45247   5.653   5.140   5.767  0.1404 -0.8406  0.1345
14890SOL    HW145248   5.591   5.079   5.807 -0.4689 -0.8814 -0.8368
14890SOL    HW245249   5.649   5.218   5.823 -0.8262 -0.8283  0.0764
14891SOL     OW45250   8.917   3.404   0.107 -0.1285  0.6385 -0.0065
14891SOL    HW145251   8.880   3.481   0.065 -0.8133  1.1495  1.4928
14891SOL    HW245252   8.940   3.346   0.034 -1.3346  1.4585 -1.0753
14892SOL     OW45253   6.647   5.624   6.395  0.1137  0.1911  0.5377
14892SOL    HW145254   6.712   5.679   6.351 -0.6169  1.7784  1.3740
14892SOL    HW245255   6.641   5.546   6.339  2.3635  0.1939  0.1867
14893SOL     OW45256   4.879   7.232   4.555 -0.0418  0.0687 -0.0834
14893SOL    HW145257   4.786   7.211   4.553 -0.0704 -0.0910  1.6808
14893SOL    HW245258   4.886   7.305   4.616  0.9755  0.2773 -0.4202
14894SOL     OW45259   2.881   4.025   8.190 -1.2077  0.2842  0.0560
14894SOL    HW145260   2.950   4.088   8.211  1.4615 -1.4932 -2.5345
14894SOL    HW245261   2.831   4.066   8.120  1.6337 -0.8725 -2.9086
14895SOL     OW45262   3.100   6.345   1.424  0.0972  0.1212 -0.1068
14895SOL    HW145263   3.176   6.362   1.481 -1.0327 -0.8499  1.7947
14895SOL    HW245264   3.033   6.406   1.455  0.0750  1.0279 -1.8306
14896SOL     OW45265   9.220   6.288   1.828  0.2504  0.1800  0.9997
14896SOL    HW145266   9.280   6.332   1.888  0.4136 -0.3027  1.2035
14896SOL    HW245267   9.187   6.214   1.879  2.1055 -1.5902 -0.1919
14897SOL     OW45268   0.910   6.141   9.205 -0.6136  0.6892 -0.5069
14897SOL    HW145269   0.945   6.142   9.294 -2.2651 -1.8978  0.2719
14897SOL    HW245270   0.816   6.153   9.215 -0.8450  0.3109 -1.9038
14898SOL     OW45271   0.251   4.432   1.656 -0.4457  0.0362 -0.7172
14898SOL    HW145272   0.309   4.504   1.678 -0.2171 -0.3411 -0.0253
14898SOL    HW245273   0.246   4.380   1.737 -1.6963  0.0310 -0.7721
14899SOL     OW45274   7.568   9.104   8.950 -0.1734  0.3406  0.1160
14899SOL    HW145275   7.659   9.131   8.938 -0.7782  3.6609  1.7148
14899SOL    HW245276   7.569   9.044   9.024  0.7560 -0.0536 -0.2084
14900SOL     OW45277   9.699   7.620   2.419  0.2058  0.3670  0.2161
14900SOL    HW145278   9.783   7.634   2.377  0.1540  0.8302  0.2682
14900SOL    HW245279   9.720   7.607   2.511  0.2173  0.5255  0.2359
14901SOL     OW45280   4.935   4.037   5.688 -0.2740  0.8862 -0.2586
14901SOL    HW145281   4.904   4.127   5.680 -2.4012  0.2882  0.6730
14901SOL    HW245282   4.896   3.991   5.614 -1.9233  0.0799  1.0397
14902SOL     OW45283   3.539   2.595   5.270 -0.2039 -0.3011 -0.0190
14902SOL    HW145284   3.499   2.680   5.289 -0.4714 -0.4899  0.2509
14902SOL    HW245285   3.614   2.590   5.329  0.6094  0.3315 -0.9639
14903SOL     OW45286   5.208   6.258   3.135 -0.0641 -0.1789 -0.1859
14903SOL    HW145287   5.175   6.260   3.045  2.3492 -2.0524 -1.2361
14903SOL    HW245288   5.177   6.174   3.170 -1.0254  0.5583  0.7994
14904SOL     OW45289   5.132   2.675   9.755  0.3567 -0.2001 -0.3002
14904SOL    HW145290   5.218   2.713   9.771 -0.1760  1.0839 -0.4043
14904SOL    HW245291   5.146   2.580   9.764  1.4767  0.0574  1.0645
14905SOL     OW45292   3.801   1.501   7.991  0.0207 -0.6406  0.2919
14905SOL    HW145293   3.883   1.454   8.010  2.3790  2.1882 -1.7783
14905SOL    HW245294   3.810   1.527   7.899 -3.2366 -0.1086  0.0237
14906SOL     OW45295   8.874   1.711   1.683 -0.0435 -0.3993 -0.2854
14906SOL    HW145296   8.877   1.793   1.634  0.6790 -1.0107 -1.2971
14906SOL    HW245297   8.915   1.732   1.768 -2.4205  0.9805  0.6179
14907SOL     OW45298   4.653   4.646   2.303  0.8641  0.3046  0.2972
14907SOL    HW145299   4.726   4.613   2.356  0.5646 -0.0232  0.5112
14907SOL    HW245300   4.677   4.624   2.213  0.1968 -1.4868  0.5072
14908SOL     OW45301   5.123   0.703   8.036 -0.2412  0.0883  0.4113
14908SOL    HW145302   5.039   0.679   7.999 -1.0573  1.2309  1.4348
14908SOL    HW245303   5.148   0.627   8.089 -1.9856  0.7457  2.3003
14909SOL     OW45304   6.948   6.113   2.030  0.2632 -0.4694  0.4768
14909SOL    HW145305   7.034   6.144   2.057 -0.6579  0.5211  2.4399
14909SOL    HW245306   6.890   6.188   2.043 -0.7534 -0.7519 -1.8904
14910SOL     OW45307   7.753   1.451   5.161  0.2575 -0.0780  0.5793
14910SOL    HW145308   7.716   1.487   5.080 -0.1991 -1.7474  0.0012
14910SOL    HW245309   7.837   1.413   5.133  0.5793  0.2457  1.1022
14911SOL     OW45310   9.434   2.364   9.588 -0.1814  0.0344 -0.0222
14911SOL    HW145311   9.466   2.372   9.678 -0.2006  0.6008 -0.0615
14911SOL    HW245312   9.344   2.396   9.591 -0.2277 -0.0758 -0.2150
14912SOL     OW45313   1.214   5.097   7.694  0.3432  0.0693  0.1188
14912SOL    HW145314   1.232   5.021   7.639  0.5700 -0.4307  0.8659
14912SOL    HW245315   1.277   5.091   7.765  1.7017  2.0601 -0.8323
14913SOL     OW45316   9.190   7.448   6.861  0.3199  0.0918 -0.0245
14913SOL    HW145317   9.262   7.510   6.864 -0.0204  0.5466 -0.9236
14913SOL    HW245318   9.231   7.363   6.848  0.8220  0.0378  1.7062
14914SOL     OW45319   0.788   1.525   3.733 -0.0651 -0.2786  0.5035
14914SOL    HW145320   0.882   1.540   3.728  0.0874 -1.4772 -1.0644
14914SOL    HW245321   0.779   1.444   3.783 -0.4081  0.7741  2.2202
14915SOL     OW45322   5.550   3.371   2.265 -0.2358 -0.1839 -0.2933
14915SOL    HW145323   5.564   3.466   2.270 -0.8974 -0.1328  1.3541
14915SOL    HW245324   5.463   3.362   2.225  0.4510 -0.1764 -1.8519
14916SOL     OW45325   5.766   2.060   0.702  0.3449  0.3614  0.6119
14916SOL    HW145326   5.845   2.012   0.680 -0.8290 -1.7282  0.7087
14916SOL    HW245327   5.772   2.076   0.796  0.9800  0.9041  0.4874
14917SOL     OW45328   7.027   0.439   2.221 -0.0981  0.5988 -0.0530
14917SOL    HW145329   6.994   0.361   2.267  0.7888  1.5378  2.3035
14917SOL    HW245330   7.102   0.407   2.172  0.4891 -0.0130  1.1902
14918SOL     OW45331   6.116   4.732   7.294 -0.4052  0.2642  0.0641
14918SOL    HW145332   6.066   4.660   7.333 -2.6537  2.0257  0.6376
14918SOL    HW245333   6.060   4.809   7.305  1.1646  1.8219 -2.0047
14919SOL     OW45334   0.204   7.875   7.451  0.3035 -0.1870  0.2424
14919SOL    HW145335   0.112   7.879   7.479  0.0030 -1.0344 -0.5654
14919SOL    HW245336   0.242   7.956   7.483 -0.4353 -0.3487  1.6275
14920SOL     OW45337   9.678   1.491   9.751  0.8302 -0.0560  0.6224
14920SOL    HW145338   9.590   1.461   9.775 -0.0357  0.5740 -1.5174
14920SOL    HW245339   9.726   1.410   9.731  0.8596 -0.4261  2.1167
14921SOL     OW45340   8.378   9.052   1.708  0.1983 -0.3671 -0.0822
14921SOL    HW145341   8.446   9.049   1.640  0.5046  0.8332  0.1397
14921SOL    HW245342   8.388   8.970   1.756 -1.2472 -2.1460 -2.5996
14922SOL     OW45343   7.771   0.942   0.521  0.1671  0.0463  0.3417
14922SOL    HW145344   7.843   0.987   0.566 -0.0892 -1.1816  2.0293
14922SOL    HW245345   7.773   0.853   0.555 -2.2104 -0.0050  0.4974
14923SOL     OW45346   3.985   6.003   8.620 -0.3220 -0.4655 -0.3857
14923SOL    HW145347   4.066   6.055   8.618 -0.4855 -0.2326 -2.0230
14923SOL    HW245348   3.921   6.061   8.661  0.0331 -0.1974 -0.1972
14924SOL     OW45349   0.138   5.749   5.746  0.1698  0.2607  0.5368
14924SOL    HW145350   0.070   5.688   5.773  0.7442 -1.1139 -0.9339
14924SOL    HW245351   0.094   5.806   5.681 -0.0089  0.5373  0.8938
14925SOL     OW45352   6.775   1.844   0.064 -0.3662  0.5574 -0.0150
14925SOL    HW145353   6.684   1.840   0.033  0.1953 -0.9823 -1.6598
14925SOL    HW245354   6.816   1.767   0.025  1.3028  0.4203  1.9006
14926SOL     OW45355   7.876   9.494   5.335 -0.0821  0.0875 -0.3005
14926SOL    HW145356   7.826   9.489   5.417 -3.1806  0.4584 -1.9872
14926SOL    HW245357   7.947   9.432   5.346  0.1824  0.7763  2.9669
14927SOL     OW45358   5.336   8.496   4.633  0.1209  0.1874 -0.4134
14927SOL    HW145359   5.277   8.561   4.671  1.4501  0.9794  0.3961
14927SOL    HW245360   5.377   8.540   4.559  1.1044  0.3504  0.2017
14928SOL     OW45361   3.815   5.486   5.505  0.5141 -0.0672  0.1887
14928SOL    HW145362   3.816   5.576   5.539 -0.2139  0.2187 -0.5314
14928SOL    HW245363   3.841   5.495   5.414 -0.3403 -0.4940 -0.1047
14929SOL     OW45364   7.165   7.642   8.058 -0.0801 -0.3349 -0.1328
14929SOL    HW145365   7.159   7.736   8.043  2.4992 -0.0359  0.1831
14929SOL    HW245366   7.257   7.621   8.041 -0.2362 -2.5253  1.2991
14930SOL     OW45367   6.362   3.316   3.302 -0.2166 -0.2569 -0.7244
14930SOL    HW145368   6.412   3.276   3.374  0.5190 -0.4943 -1.3513
14930SOL    HW245369   6.291   3.363   3.346  0.9782  0.7250  0.2574
14931SOL     OW45370   8.450   8.819   6.921 -0.8638  0.0665  0.0844
14931SOL    HW145371   8.544   8.802   6.925 -0.5797  1.5585  0.2389
14931SOL    HW245372   8.413   8.762   6.988  0.1219  0.5991  1.1152
14932SOL     OW45373   9.711   6.378   3.436  0.5395  0.0096 -0.5068
14932SOL    HW145374   9.756   6.452   3.396 -1.2525  0.5094 -1.7420
14932SOL    HW245375   9.643   6.355   3.373 -2.2630  0.6377  2.0626
14933SOL     OW45376   4.884   1.038   6.681  0.1374  0.4288  0.5073
14933SOL    HW145377   4.862   0.950   6.713 -0.9294  0.6506  0.3984
14933SOL    HW245378   4.952   1.023   6.616  0.3826 -0.2648  0.9130
14934SOL     OW45379   3.562   7.918   6.424 -0.0200  0.0494  0.7621
14934SOL    HW145380   3.585   7.885   6.338 -0.3373 -0.6120  0.9285
14934SOL    HW245381   3.644   7.954   6.459  0.0762  0.4509  0.1368
14935SOL     OW45382   1.633   4.858   7.060  0.4139  0.5814  0.2035
14935SOL    HW145383   1.661   4.771   7.089 -2.4534 -1.0430 -1.5575
14935SOL    HW245384   1.682   4.918   7.117  1.3749 -2.1677  2.5344
14936SOL     OW45385   4.872   6.638   4.035  0.1336 -0.2228  0.1897
14936SOL    HW145386   4.940   6.609   4.096  1.0712  0.2536 -0.6100
14936SOL    HW245387   4.851   6.560   3.984 -0.3533 -0.5183  0.8299
14937SOL     OW45388   1.469   3.480   1.247  0.7345  0.6458 -0.2096
14937SOL    HW145389   1.529   3.407   1.233  0.7690  0.4569  0.8393
14937SOL    HW245390   1.508   3.528   1.321 -0.5704  0.3292  0.7125
14938SOL     OW45391   6.509   9.643   8.539  0.3621  0.3672  0.0191
14938SOL    HW145392   6.534   9.680   8.623  2.0869  0.9220 -0.7021
14938SOL    HW245393   6.501   9.718   8.480  2.8985 -0.2036 -1.2011
14939SOL     OW45394   3.695   8.856   0.668 -0.7563 -0.3771 -0.1203
14939SOL    HW145395   3.770   8.861   0.608 -1.1052  2.8909 -0.4982
14939SOL    HW245396   3.732   8.878   0.753 -1.1634  0.8007 -0.2303
14940SOL     OW45397   7.968   0.646   9.799  0.1769  0.3042  0.2235
14940SOL    HW145398   7.921   0.565   9.778  1.1189 -0.2784  0.2655
14940SOL    HW245399   8.034   0.619   9.863  0.1914  1.2078  0.6011
14941SOL     OW45400   1.613   4.806   9.375 -0.0112 -0.0536  0.5829
14941SOL    HW145401   1.627   4.733   9.315  3.2237  0.3480  0.6457
14941SOL    HW245402   1.664   4.878   9.337  0.5969  0.7676  2.7828
14942SOL     OW45403   5.539   9.519   2.378 -0.8118  0.6309  0.2338
14942SOL    HW145404   5.598   9.570   2.322  0.3937 -2.1971 -1.2469
14942SOL    HW245405   5.456   9.567   2.374 -0.4535  1.2466 -3.0973
14943SOL     OW45406   6.388   5.096   3.739 -0.6057 -0.2502  0.0424
14943SOL    HW145407   6.308   5.044   3.740 -0.3650 -0.6755 -1.1198
14943SOL    HW245408   6.424   5.089   3.827 -2.2302  0.5635  0.8105
14944SOL     OW45409   6.319   8.298   6.308  0.0751  0.2177  0.1995
14944SOL    HW145410   6.355   8.237   6.243  0.7100  0.8037 -0.0186
14944SOL    HW245411   6.358   8.383   6.285  1.4677  0.1965  2.1783
14945SOL     OW45412   1.433   8.344   7.438  0.6051 -0.1013  0.3303
14945SOL    HW145413   1.413   8.348   7.532  0.3625  1.4822  0.2345
14945SOL    HW245414   1.460   8.433   7.415  0.8964 -0.5234 -1.0629
14946SOL     OW45415   4.439   7.327   6.629 -0.0429 -0.3068  0.0076
14946SOL    HW145416   4.351   7.336   6.592  0.0180  0.3722  0.0147
14946SOL    HW245417   4.497   7.335   6.554  0.0548  0.4275  0.1533
14947SOL     OW45418   8.249   2.859   1.163  0.2349 -0.4118 -0.3157
14947SOL    HW145419   8.272   2.952   1.152 -1.0796 -0.0689 -0.4069
14947SOL    HW245420   8.216   2.833   1.077  0.3906 -0.8949 -0.2264
14948SOL     OW45421   9.397   4.269   0.688  0.2708  0.1779 -0.1600
14948SOL    HW145422   9.372   4.358   0.665 -0.7655  0.1362  0.6894
14948SOL    HW245423   9.402   4.270   0.784 -1.4303 -1.0509  0.0003
14949SOL     OW45424   6.026   7.104   9.447 -0.3111 -0.8064 -0.2921
14949SOL    HW145425   6.070   7.168   9.503 -0.5449 -0.3185 -0.6597
14949SOL    HW245426   6.092   7.078   9.384 -0.0941 -1.2388  0.1081
14950SOL     OW45427   6.321   2.979   2.045 -0.4919  0.0491  0.0752
14950SOL    HW145428   6.234   3.018   2.042 -0.3886  0.2311 -0.6098
14950SOL    HW245429   6.326   2.925   1.966 -0.8151 -1.7507  1.2265
14951SOL     OW45430   8.061   7.289   7.954 -0.1380  0.0782  0.2829
14951SOL    HW145431   8.138   7.248   7.994 -0.6989 -0.3768  0.9120
14951SOL    HW245432   8.073   7.383   7.969 -0.5959 -0.1075  2.0121
14952SOL     OW45433   7.143   5.769   5.004  0.4006  0.0155  0.1314
14952SOL    HW145434   7.193   5.829   4.948  0.0504  1.2683  1.1132
14952SOL    HW245435   7.052   5.781   4.977  0.5477 -2.3755 -1.7544
14953SOL     OW45436   8.645   1.450   4.458 -0.5795  0.0136 -0.3115
14953SOL    HW145437   8.558   1.434   4.421 -0.8515  0.2862  0.1996
14953SOL    HW245438   8.682   1.520   4.403 -0.3694 -0.6226 -1.0048
14954SOL     OW45439   4.319   1.099   0.709 -0.4217  0.2087 -0.4252
14954SOL    HW145440   4.333   1.043   0.633  1.5646 -0.3476  0.2887
14954SOL    HW245441   4.315   1.188   0.673  2.1071  0.1248 -1.1248
14955SOL     OW45442   5.939   9.114   8.165 -0.0112  0.5822  0.4603
14955SOL    HW145443   6.001   9.089   8.234 -1.4390 -1.5305  1.0567
14955SOL    HW245444   5.958   9.054   8.093  0.0601  1.3780 -0.1971
14956SOL     OW45445   4.312   1.499   2.655 -0.7093  0.1354 -0.1972
14956SOL    HW145446   4.298   1.481   2.748 -0.5103  2.3346  0.3136
14956SOL    HW245447   4.398   1.541   2.651  0.5998 -2.4182 -1.7845
14957SOL     OW45448   2.292   5.141   9.566 -0.0739 -0.2402 -0.3657
14957SOL    HW145449   2.348   5.073   9.605 -0.8351 -0.9131 -0.4094
14957SOL    HW245450   2.314   5.139   9.473  1.2676  0.9078 -0.1038
14958SOL     OW45451   7.012   0.368   7.025 -0.4461  0.7426  0.0116
14958SOL    HW145452   7.071   0.380   7.099 -1.0920  0.5440  0.5625
14958SOL    HW245453   6.931   0.410   7.052 -1.2496 -0.8202  0.1128
14959SOL     OW45454   7.615   2.935   4.392 -0.4928 -0.1113 -0.0556
14959SOL    HW145455   7.670   2.934   4.313 -1.4279  0.1883 -0.7299
14959SOL    HW245456   7.661   2.994   4.452  0.4342 -0.6483 -0.2114
14960SOL     OW45457   1.325   5.045   0.443  0.1886  0.3034 -0.4143
14960SOL    HW145458   1.416   5.027   0.465 -0.1103  0.7262  1.2648
14960SOL    HW245459   1.281   4.960   0.451  0.2231  0.3131 -0.1234
14961SOL     OW45460   5.075   2.774   7.636 -0.5817 -0.3673  0.0866
14961SOL    HW145461   5.027   2.758   7.717 -1.0670  1.2760  0.1487
14961SOL    HW245462   5.131   2.696   7.626 -1.4760 -1.2011  1.2792
14962SOL     OW45463   2.282   0.782   5.642  0.2551 -0.0620 -0.1921
14962SOL    HW145464   2.274   0.700   5.691  2.0451 -0.6366 -0.7922
14962SOL    HW245465   2.242   0.764   5.557  0.3132 -0.1907 -0.1923
14963SOL     OW45466   3.445   0.648   1.550 -0.0819  0.1334 -0.0908
14963SOL    HW145467   3.476   0.725   1.501  1.5158 -0.9960 -0.9577
14963SOL    HW245468   3.510   0.636   1.619 -1.1239  0.3934  0.9650
14964SOL     OW45469   7.997   3.429   9.949  0.3140 -1.0048 -0.2456
14964SOL    HW145470   7.932   3.428  10.019  1.9928 -0.6240  1.3829
14964SOL    HW245471   7.987   3.344   9.906 -0.1430 -1.6429  1.0575
14965SOL     OW45472   2.541   3.716   5.078  0.4777  0.2311 -0.0022
14965SOL    HW145473   2.496   3.786   5.033 -1.3215 -1.4476 -0.9806
14965SOL    HW245474   2.572   3.658   5.008 -0.6039 -1.3906  0.7923
14966SOL     OW45475   4.163   4.571   8.295  0.4911  0.0615  0.1074
14966SOL    HW145476   4.218   4.494   8.311  1.7953  1.3051  2.0627
14966SOL    HW245477   4.111   4.580   8.375  0.8396  1.5547  0.2062
14967SOL     OW45478   4.730   5.022   5.279  0.2312 -0.1795 -0.0022
14967SOL    HW145479   4.788   5.026   5.355  2.2242 -0.1392 -1.4729
14967SOL    HW245480   4.783   4.986   5.209 -0.7485  2.1777 -2.0969
14968SOL     OW45481   1.890   9.402   6.613  0.5629  0.1507 -0.5169
14968SOL    HW145482   1.906   9.473   6.551  2.4564  0.3424  0.1105
14968SOL    HW245483   1.975   9.357   6.619  0.3199 -0.1190  1.5837
14969SOL     OW45484   8.488   4.149   6.062  0.0269 -0.3008 -0.9976
14969SOL    HW145485   8.525   4.141   5.973  0.1530  0.8575 -1.0582
14969SOL    HW245486   8.405   4.194   6.049  0.7128  1.1877 -0.3905
14970SOL     OW45487   2.231   1.606   9.545 -0.5094 -0.0837  0.4418
14970SOL    HW145488   2.178   1.658   9.485 -3.1584  0.5281  3.0817
14970SOL    HW245489   2.315   1.596   9.500 -1.5629  2.1585 -2.3410
14971SOL     OW45490   9.675   5.515   9.984  0.0079 -0.0039  0.0706
14971SOL    HW145491   9.660   5.527   9.890 -0.6874  1.6845  0.3593
14971SOL    HW245492   9.766   5.542   9.997 -0.2339  0.8838  0.0287
14972SOL     OW45493   6.697   1.436   9.953 -0.4702 -0.4789 -0.8516
14972SOL    HW145494   6.725   1.387   9.876 -0.7208  0.1327 -1.3349
14972SOL    HW245495   6.715   1.527   9.932 -0.8208 -0.2769 -0.3029
14973SOL     OW45496   8.761   7.485   9.374 -0.0440 -0.5606 -0.2252
14973SOL    HW145497   8.742   7.460   9.464 -0.2823  0.4687  0.0134
14973SOL    HW245498   8.727   7.412   9.322  0.6466 -1.4538  0.5377
14974SOL     OW45499   4.559   4.470   7.590  0.3971 -0.4610  0.2697
14974SOL    HW145500   4.617   4.543   7.569 -1.5927  1.2254  0.2941
14974SOL    HW245501   4.617   4.393   7.594  2.6784  1.1768  0.8634
14975SOL     OW45502   4.097   0.897   6.612  0.2543  0.0950 -0.1118
14975SOL    HW145503   4.051   0.947   6.679 -0.1513 -2.3137  1.5313
14975SOL    HW245504   4.183   0.938   6.605  0.3901  0.2789  2.0859
14976SOL     OW45505   0.013   2.862   6.314  0.1423 -0.0252  0.4523
14976SOL    HW145506   0.049   2.949   6.330 -1.7179  0.6344  1.3315
14976SOL    HW245507  -0.012   2.830   6.401 -0.8589 -0.6499 -0.0423
14977SOL     OW45508   4.039   7.656   3.339 -0.7056 -0.8318 -0.0524
14977SOL    HW145509   4.077   7.568   3.335 -0.8122 -0.8474 -2.0366
14977SOL    HW245510   4.000   7.669   3.252  3.2330  2.8388 -1.6394
14978SOL     OW45511   4.744   4.509   2.846  0.5623 -0.2816 -0.1080
14978SOL    HW145512   4.690   4.545   2.915  0.2920  0.5983 -0.7690
14978SOL    HW245513   4.826   4.559   2.850  1.0490 -1.0856  0.3860
14979SOL     OW45514   6.661   3.862   9.828  0.9493  0.0929 -0.4488
14979SOL    HW145515   6.686   3.903   9.911  0.8674  1.0080 -0.8600
14979SOL    HW245516   6.566   3.848   9.836  0.8939  0.4295 -0.4844
14980SOL     OW45517   0.150   2.877   8.650  0.4449  0.0193 -0.6426
14980SOL    HW145518   0.089   2.920   8.710 -1.6976 -1.6235 -1.5095
14980SOL    HW245519   0.139   2.783   8.668  0.5883 -0.4546 -2.7580
14981SOL     OW45520   7.685   0.163   7.405  0.2109  0.1356 -0.6850
14981SOL    HW145521   7.737   0.151   7.326 -0.3183 -1.0597 -0.8692
14981SOL    HW245522   7.745   0.146   7.477  0.0785 -1.2908 -0.8969
14982SOL     OW45523   1.241   9.499   7.966  0.3099 -0.0841 -0.7477
14982SOL    HW145524   1.197   9.521   8.049  1.7617 -0.9532  0.3004
14982SOL    HW245525   1.332   9.526   7.979  0.7495 -1.0134 -1.7457
14983SOL     OW45526   9.510   1.001   6.869 -0.0121  0.2147 -0.1823
14983SOL    HW145527   9.584   1.036   6.820 -0.3377 -1.1393 -1.7074
14983SOL    HW245528   9.439   0.993   6.805 -1.2288  0.6504  1.0465
14984SOL     OW45529   3.730   3.576   1.602  0.4692  0.4918 -0.8386
14984SOL    HW145530   3.744   3.620   1.686  0.6077 -1.1788  0.0645
14984SOL    HW245531   3.642   3.603   1.575 -0.8844 -1.2392  1.4013
14985SOL     OW45532   0.429   4.563   9.297  0.7999  0.0654  0.4418
14985SOL    HW145533   0.505   4.566   9.355 -0.2932  1.0351  1.9069
14985SOL    HW245534   0.358   4.601   9.349 -0.1419  1.4781 -1.7113
14986SOL     OW45535   0.164   2.556   1.325  0.6705 -0.0449  0.3345
14986SOL    HW145536   0.120   2.596   1.399  0.6881 -0.2205  0.4402
14986SOL    HW245537   0.221   2.625   1.290  0.1074  0.2725  0.0252
14987SOL     OW45538   6.422   7.207   8.838 -0.1193 -0.7159  0.2806
14987SOL    HW145539   6.400   7.252   8.920 -0.8736 -1.3969  0.4748
14987SOL    HW245540   6.411   7.273   8.770  0.5140 -0.1406  0.7218
14988SOL     OW45541   7.875   1.043   1.824 -0.1179  0.5039 -0.0053
14988SOL    HW145542   7.916   1.063   1.908 -1.2568 -0.2087  0.7479
14988SOL    HW245543   7.922   0.966   1.792 -1.6653 -1.1834  1.5253
14989SOL     OW45544   9.571   7.407   3.889 -0.0625 -0.2616  0.0946
14989SOL    HW145545   9.601   7.343   3.953  0.5980  1.0334  1.1235
14989SOL    HW245546   9.479   7.422   3.911 -0.2176 -0.8433 -0.1479
14990SOL     OW45547   2.608   1.244   7.686  0.2679 -0.5961  0.0017
14990SOL    HW145548   2.630   1.328   7.728  0.9509 -1.4551  1.4506
14990SOL    HW245549   2.645   1.251   7.598 -0.7759  1.0865 -0.3483
14991SOL     OW45550   2.148   7.083   8.445  0.1534  0.5124 -0.3011
14991SOL    HW145551   2.118   6.995   8.470  1.7358 -0.1741 -0.7212
14991SOL    HW245552   2.137   7.086   8.350 -1.1080  1.2806 -0.1630
14992SOL     OW45553   8.274   0.149   1.588  0.0392  0.2022  0.0051
14992SOL    HW145554   8.336   0.162   1.660 -0.1316 -0.3599  0.2622
14992SOL    HW245555   8.294   0.219   1.527 -0.3903  1.2156  0.9977
14993SOL     OW45556   4.452   9.450   7.607 -0.7835  0.1005  1.1137
14993SOL    HW145557   4.506   9.371   7.600 -1.3142 -0.1352 -3.6844
14993SOL    HW245558   4.515   9.520   7.621  0.8000 -0.4094 -2.4077
14994SOL     OW45559   0.923   5.242   6.245 -0.0697 -0.2383  0.0262
14994SOL    HW145560   0.965   5.279   6.167 -0.4507 -0.0447 -0.0859
14994SOL    HW245561   0.894   5.155   6.217 -0.2757 -0.1380 -0.0674
14995SOL     OW45562   8.975   5.836   2.209 -0.3134  0.6300  0.2059
14995SOL    HW145563   8.921   5.767   2.249  0.3536 -0.3334 -0.5325
14995SOL    HW245564   8.979   5.814   2.116  0.9603  0.9531  0.1611
14996SOL     OW45565   6.125   7.000   1.284 -0.3609  0.2809  0.1549
14996SOL    HW145566   6.072   7.051   1.345  2.4488  0.3118  2.8427
14996SOL    HW245567   6.202   7.055   1.267  0.6126 -1.2055 -0.5275
14997SOL     OW45568   9.005   6.374   7.084  0.0586 -0.1006  0.0526
14997SOL    HW145569   8.988   6.337   7.171 -0.0219  0.5625  0.3258
14997SOL    HW245570   9.068   6.314   7.044 -0.3620 -0.7351  0.3369
14998SOL     OW45571   1.961   1.011   5.584 -0.0883 -0.4937 -0.1842
14998SOL    HW145572   2.026   1.076   5.558  1.0754 -1.9203 -1.0132
14998SOL    HW245573   1.960   1.015   5.680  0.7931 -0.0397 -0.1832
14999SOL     OW45574   9.101   1.326   1.910  0.2599 -0.0918  0.0718
14999SOL    HW145575   9.032   1.377   1.868 -1.0257 -0.4489  1.6517
14999SOL    HW245576   9.060   1.289   1.988  2.3440 -0.0010  1.3080
15000SOL     OW45577   3.890   8.752   7.122  0.3825  0.0145 -0.3756
15000SOL    HW145578   3.811   8.718   7.079 -0.3113 -0.3608  1.1577
15000SOL    HW245579   3.954   8.761   7.050 -0.1703 -2.2727 -1.2408
15001SOL     OW45580   4.028   0.355   3.980 -0.4978  0.0478  0.3027
15001SOL    HW145581   4.048   0.325   3.891 -1.9549  1.2039 -0.4550
15001SOL    HW245582   3.994   0.277   4.024  0.6134 -0.6382  0.0105
15002SOL     OW45583   6.053   0.375   3.785  0.0279 -0.6380 -0.3935
15002SOL    HW145584   6.016   0.341   3.866 -2.1557 -0.3492 -1.2133
15002SOL    HW245585   6.024   0.466   3.781  1.9921  0.0405 -0.4522
15003SOL     OW45586   7.227   3.260   5.237  0.0175 -0.0179 -0.4615
15003SOL    HW145587   7.162   3.298   5.178 -0.5590 -0.0955  0.1066
15003SOL    HW245588   7.203   3.293   5.324 -0.0430 -1.0781 -0.0595
15004SOL     OW45589   7.884   4.476   7.237  0.3351  0.2292 -0.0599
15004SOL    HW145590   7.853   4.419   7.167 -0.6987 -0.2668  0.7677
15004SOL    HW245591   7.901   4.416   7.311  0.6012  0.8264  0.3697
15005SOL     OW45592   1.865   7.687   6.532  0.1208  0.4770  0.0133
15005SOL    HW145593   1.789   7.703   6.587 -0.3993  0.2582 -0.6277
15005SOL    HW245594   1.940   7.711   6.586 -0.3694  0.1192  0.8656
15006SOL     OW45595   0.938   8.637   3.105 -0.0905 -0.1914  0.1600
15006SOL    HW145596   0.972   8.668   3.021  0.1488  1.5866  0.8746
15006SOL    HW245597   0.843   8.632   3.092 -0.1410  0.9307  0.0261
15007SOL     OW45598   2.902   6.882   0.530 -0.5133 -0.0877 -0.4228
15007SOL    HW145599   2.860   6.966   0.545 -1.1047 -0.7242  2.0147
15007SOL    HW245600   2.995   6.898   0.549 -0.4211  0.2784 -1.1733
15008SOL     OW45601   2.558   2.358   9.457 -0.1275  0.0598  0.3025
15008SOL    HW145602   2.633   2.380   9.401 -1.8635  1.6501 -1.6014
15008SOL    HW245603   2.511   2.291   9.408 -0.3389 -0.4238  1.1464
15009SOL     OW45604   0.756   9.160   7.846  0.6102  0.3563  0.7046
15009SOL    HW145605   0.674   9.204   7.825  0.2789 -0.5781 -0.0210
15009SOL    HW245606   0.803   9.156   7.762 -0.5927 -3.1596  0.0470
15010SOL     OW45607   1.130   8.842   5.686 -0.0885 -0.2943  0.3919
15010SOL    HW145608   1.062   8.909   5.670 -0.3141 -0.3988  0.9054
15010SOL    HW245609   1.099   8.794   5.763  0.3416 -0.6454  0.3485
15011SOL     OW45610   4.776   1.558   8.121  0.1789  0.1620  0.0616
15011SOL    HW145611   4.801   1.507   8.198 -0.7706  0.0974  0.3469
15011SOL    HW245612   4.759   1.493   8.053  0.2228  0.1696  0.0435
15012SOL     OW45613   8.087   1.565   7.634  0.1665  0.8533  0.1700
15012SOL    HW145614   8.026   1.623   7.679 -0.3432 -0.1346  0.7895
15012SOL    HW245615   8.099   1.604   7.547  1.2876  2.8757  1.1824
15013SOL     OW45616   7.735   7.837   3.927 -0.3177  0.2663 -0.0011
15013SOL    HW145617   7.800   7.781   3.884 -0.0622  0.2166  0.4455
15013SOL    HW245618   7.664   7.844   3.863 -0.5921 -1.0076  0.1299
15014SOL     OW45619   6.855   6.812   7.925  0.2059 -0.3481 -0.3110
15014SOL    HW145620   6.768   6.778   7.946  0.4604 -2.3387 -2.0607
15014SOL    HW245621   6.915   6.757   7.975  0.5022 -0.0566 -0.3421
15015SOL     OW45622   5.405   7.757   6.190 -0.2511  0.1551 -0.2223
15015SOL    HW145623   5.395   7.668   6.223  1.8456  0.4045  1.2956
15015SOL    HW245624   5.442   7.806   6.263  1.5181  1.5299 -1.9050
15016SOL     OW45625   7.657   9.345   6.448 -0.1851  0.4069 -0.1705
15016SOL    HW145626   7.663   9.437   6.475  4.4220 -0.0356  0.9790
15016SOL    HW245627   7.649   9.296   6.529  0.9787 -0.3537 -0.4979
15017SOL     OW45628   2.031   0.851   2.868 -0.3447 -0.1640 -0.0827
15017SOL    HW145629   2.015   0.757   2.865 -2.3655  0.1433 -2.2024
15017SOL    HW245630   1.949   0.888   2.901  0.6362  0.8666  1.3101
15018SOL     OW45631   1.204   2.368   1.730  0.1588 -0.5491  0.0076
15018SOL    HW145632   1.212   2.309   1.806 -0.3608 -0.9069 -0.2089
15018SOL    HW245633   1.144   2.437   1.759  2.3978  1.0927  0.9916
15019SOL     OW45634   5.623   0.350   9.697  0.5223  0.0466  0.0078
15019SOL    HW145635   5.592   0.391   9.617  1.5059 -0.4865 -0.6630
15019SOL    HW245636   5.569   0.388   9.766 -1.1174 -0.2980 -1.0194
15020SOL     OW45637   4.499   5.810   8.545 -0.0265  0.3472 -0.5527
15020SOL    HW145638   4.504   5.770   8.632  4.4835 -1.1790 -1.1981
15020SOL    HW245639   4.432   5.760   8.499  0.6909 -2.0164  0.7768
15021SOL     OW45640   7.311   5.795   9.563 -0.0065 -0.6435 -0.0344
15021SOL    HW145641   7.384   5.856   9.576 -0.9758  0.1962  2.0166
15021SOL    HW245642   7.287   5.768   9.652 -1.5380 -1.6823 -0.7286
15022SOL     OW45643   8.393   4.007   4.328  0.9143  0.0587 -0.5516
15022SOL    HW145644   8.485   3.990   4.348  0.9334  0.9760  0.2451
15022SOL    HW245645   8.356   3.921   4.310  1.6604 -0.4699  0.3224
15023SOL     OW45646   0.150   4.313   9.753  0.3072  0.5453  0.4452
15023SOL    HW145647   0.113   4.297   9.666 -0.3836  0.9272  0.6649
15023SOL    HW245648   0.241   4.281   9.746 -0.6273 -2.4582  0.5449
15024SOL     OW45649   3.625   8.574   0.089  0.0238  0.0912  0.6947
15024SOL    HW145650   3.697   8.539   0.037 -0.9788  0.1118 -0.7895
15024SOL    HW245651   3.647   8.666   0.104  0.3937  0.0506  0.3980
15025SOL     OW45652   4.464   4.934   8.440  0.6271  0.0601  0.3706
15025SOL    HW145653   4.407   4.989   8.493  0.3402  0.6252 -0.5077
15025SOL    HW245654   4.553   4.963   8.462  0.4826  0.7913  0.0159
15026SOL     OW45655   3.668   0.117   7.249 -0.3687 -0.1019  0.1751
15026SOL    HW145656   3.761   0.121   7.225 -0.6040  2.2376 -0.5120
15026SOL    HW245657   3.668   0.080   7.337  1.3556  1.3534  0.8370
15027SOL     OW45658   5.570   0.673   7.382  0.2476  0.0902 -0.1878
15027SOL    HW145659   5.607   0.641   7.464 -0.3437  1.1666  0.5383
15027SOL    HW245660   5.493   0.617   7.367  0.3486 -0.1006  0.0054
15028SOL     OW45661   5.687   2.024   3.749 -0.2482 -0.2050 -0.0682
15028SOL    HW145662   5.617   1.982   3.799 -1.1766  0.8155 -0.4561
15028SOL    HW245663   5.648   2.042   3.663  0.2144  1.0767 -0.0373
15029SOL     OW45664   3.061   5.784   4.790 -0.4391 -0.5846  0.2469
15029SOL    HW145665   2.966   5.776   4.785 -0.3400 -2.3646  0.5336
15029SOL    HW245666   3.088   5.809   4.702 -1.2371  1.1696  0.4648
15030SOL     OW45667   2.501   4.453   1.172 -0.2678 -0.3660  0.2217
15030SOL    HW145668   2.485   4.492   1.257 -0.6843  0.5100 -0.2486
15030SOL    HW245669   2.446   4.375   1.170 -2.5940  1.2001 -0.3741
15031SOL     OW45670   7.928   8.774   5.183 -0.6856 -0.3065 -0.1568
15031SOL    HW145671   7.895   8.688   5.208 -0.3243 -1.0560 -2.0360
15031SOL    HW245672   8.011   8.755   5.139 -0.2877  1.0731 -0.0450
15032SOL     OW45673   0.024   1.132   1.861 -0.0231  0.1526  0.2799
15032SOL    HW145674  -0.001   1.142   1.952  1.4292  0.0963  0.7166
15032SOL    HW245675   0.118   1.149   1.860  0.7709 -3.3664 -0.5736
15033SOL     OW45676   1.357   9.248   0.442 -0.2816  0.0066 -0.4212
15033SOL    HW145677   1.318   9.183   0.383 -0.3406  0.0615 -0.4427
15033SOL    HW245678   1.298   9.250   0.517  1.2040 -2.0382  0.8977
15034SOL     OW45679   3.607   6.042   4.446 -0.0491  0.3278 -0.2210
15034SOL    HW145680   3.618   5.978   4.375 -1.0829 -0.8899  0.6725
15034SOL    HW245681   3.695   6.075   4.463  0.1269  1.3303 -2.6498
15035SOL     OW45682   3.882   4.246   6.595  0.4808  0.1495 -0.2934
15035SOL    HW145683   3.831   4.165   6.589 -0.0131  0.3299  1.0765
15035SOL    HW245684   3.971   4.220   6.575  0.1372 -0.5037 -1.0310
15036SOL     OW45685   8.206   3.278   8.832 -0.2013  0.4236  0.0826
15036SOL    HW145686   8.117   3.289   8.865 -0.4010 -0.8002 -0.0098
15036SOL    HW245687   8.194   3.245   8.743  0.3398  2.3817 -0.7634
15037SOL     OW45688   8.565   5.466   6.519  0.3861  0.0913 -0.2371
15037SOL    HW145689   8.483   5.491   6.561 -0.6879 -0.4408 -1.9271
15037SOL    HW245690   8.613   5.548   6.508 -1.2392  0.8629 -1.9257
15038SOL     OW45691   9.619   9.259   8.057 -0.3659 -0.5836  0.2335
15038SOL    HW145692   9.621   9.237   8.150  1.7970  2.0425  0.9325
15038SOL    HW245693   9.529   9.289   8.041 -0.4631 -0.0085  1.7495
15039SOL     OW45694   4.136   9.018   3.451 -0.5244 -0.5381 -0.2933
15039SOL    HW145695   4.110   9.064   3.531 -1.8654 -0.3573 -0.8114
15039SOL    HW245696   4.147   8.927   3.479 -1.0742 -0.4915  0.0909
15040SOL     OW45697   9.254   4.936   4.174  0.1372  0.0862  0.5051
15040SOL    HW145698   9.306   4.934   4.254  0.1628 -0.7064  0.4809
15040SOL    HW245699   9.301   4.878   4.113 -0.9219 -0.9018  0.5884
15041SOL     OW45700   7.570   0.326   4.523 -0.3422 -0.7596  0.1611
15041SOL    HW145701   7.477   0.325   4.544 -0.5398  0.6299 -0.5523
15041SOL    HW245702   7.597   0.418   4.534  0.7926 -1.0208 -0.2537
15042SOL     OW45703   3.492   4.331   1.579  0.0081 -0.2003  0.4614
15042SOL    HW145704   3.467   4.238   1.578  2.4865 -0.9635  1.5258
15042SOL    HW245705   3.581   4.332   1.545 -0.0031  1.8420  0.3682
15043SOL     OW45706   1.519   4.338   5.168 -0.3896 -0.2296  0.2542
15043SOL    HW145707   1.462   4.370   5.098  0.6459 -1.8517 -1.4232
15043SOL    HW245708   1.504   4.243   5.169 -1.9346 -0.0990  3.7222
15044SOL     OW45709   9.417   4.318   0.412  0.0176  0.1105 -0.1058
15044SOL    HW145710   9.429   4.342   0.504  0.5262  2.1287 -0.6457
15044SOL    HW245711   9.435   4.399   0.364  0.1402 -1.0004 -2.0142
15045SOL     OW45712   2.840   8.962   0.468  0.0692  0.0448 -0.5310
15045SOL    HW145713   2.902   9.033   0.483  1.5709 -1.5814  1.7255
15045SOL    HW245714   2.891   8.893   0.426 -1.0628 -0.1427 -1.6511
15046SOL     OW45715   8.008   3.311   1.816  0.2382  0.3062 -0.4836
15046SOL    HW145716   7.933   3.341   1.765 -0.6540  0.2142  0.7437
15046SOL    HW245717   7.995   3.348   1.903  1.9464  0.8019 -0.3833
15047SOL     OW45718   7.631   6.055   7.081 -0.1671 -0.7896  0.2827
15047SOL    HW145719   7.688   6.112   7.133 -0.1927  0.0158 -0.5540
15047SOL    HW245720   7.690   5.988   7.045  0.4457  0.4867 -1.2247
15048SOL     OW45721   2.260   3.777   5.273  0.3648 -0.4340  0.0808
15048SOL    HW145722   2.209   3.842   5.224 -0.4392  0.9705  2.5920
15048SOL    HW245723   2.211   3.695   5.263 -0.0169 -0.0757 -1.0562
15049SOL     OW45724   0.049   2.748   2.413  0.3806 -0.3697 -0.4903
15049SOL    HW145725   0.097   2.830   2.407 -1.2350  0.5338 -2.8416
15049SOL    HW245726  -0.043   2.775   2.415 -0.1755 -2.1011 -1.1837
15050SOL     OW45727   8.187   4.254   7.382 -0.5079 -0.0740 -1.1413
15050SOL    HW145728   8.236   4.196   7.325  2.2467  0.5323  0.4419
15050SOL    HW245729   8.173   4.333   7.330 -1.2418 -0.8276 -2.1336
15051SOL     OW45730   3.272   0.096   0.252  0.0738 -0.4274 -0.3159
15051SOL    HW145731   3.281   0.144   0.334  1.4989 -0.6261 -0.3395
15051SOL    HW245732   3.180   0.067   0.252 -1.1779  3.0085 -0.7225
15052SOL     OW45733   3.510   9.604   8.757  0.0282  0.0067 -0.5691
15052SOL    HW145734   3.438   9.660   8.787  1.0787  0.8027  0.5787
15052SOL    HW245735   3.504   9.525   8.811  0.2571  0.2515 -0.1823
15053SOL     OW45736   0.664   2.277   6.676  0.2143 -0.2099 -0.4388
15053SOL    HW145737   0.584   2.229   6.699  0.5202 -0.6548 -0.2912
15053SOL    HW245738   0.684   2.250   6.587 -0.2325  0.5059 -0.7683
15054SOL     OW45739   7.653   9.319   9.153  0.2053  0.4004 -0.4598
15054SOL    HW145740   7.617   9.354   9.235  1.8074  0.2773  0.3498
15054SOL    HW245741   7.583   9.330   9.089 -0.5133  2.0483  0.5421
15055SOL     OW45742   4.344   3.775   7.861  0.1385 -0.0726 -0.3127
15055SOL    HW145743   4.411   3.734   7.807 -0.1226 -0.1949 -0.5485
15055SOL    HW245744   4.370   3.755   7.951  0.7319  0.3740 -0.3793
15056SOL     OW45745   3.959   0.962   5.627  0.4042  0.1540 -0.6149
15056SOL    HW145746   3.976   1.007   5.544  0.3902 -0.0724 -0.7406
15056SOL    HW245747   3.950   0.870   5.603 -3.0437  0.4202 -0.8977
15057SOL     OW45748   8.278   2.468   1.671  0.4585  0.1488  0.3644
15057SOL    HW145749   8.301   2.426   1.755  2.0370 -3.1418 -1.4808
15057SOL    HW245750   8.229   2.401   1.624 -1.7727  2.4868 -0.8317
15058SOL     OW45751   4.609   8.149   4.433  0.3189  0.7573 -0.5448
15058SOL    HW145752   4.543   8.097   4.387  0.7285 -0.3559  0.1051
15058SOL    HW245753   4.664   8.184   4.363  0.3964 -0.1794 -0.9723
15059SOL     OW45754   9.975   7.503   9.744  0.0529 -0.8964 -0.1062
15059SOL    HW145755   9.890   7.522   9.784 -0.3077 -0.7917 -0.9061
15059SOL    HW245756   9.998   7.583   9.698  1.2087 -0.4696  1.1535
15060SOL     OW45757   2.827   2.060   1.337 -0.6101 -0.1765  0.1119
15060SOL    HW145758   2.754   1.998   1.338  0.0755 -0.9962  1.1297
15060SOL    HW245759   2.814   2.111   1.256 -0.4646 -2.5051 -1.4867
15061SOL     OW45760   4.525   3.325   0.855 -0.4176  0.1807 -0.0304
15061SOL    HW145761   4.542   3.239   0.818 -0.9144 -0.5727  1.3954
15061SOL    HW245762   4.607   3.348   0.899 -0.8477 -0.4154  1.1320
15062SOL     OW45763   8.607   4.729   9.789 -0.1278 -0.2348  0.1645
15062SOL    HW145764   8.660   4.806   9.807  1.1448  0.7957 -5.9950
15062SOL    HW245765   8.671   4.657   9.782 -0.8090 -1.0331  1.6447
15063SOL     OW45766   7.624   6.333   2.411 -0.5168  0.6106 -0.1083
15063SOL    HW145767   7.538   6.375   2.402  0.1910  2.0082 -0.6271
15063SOL    HW245768   7.646   6.304   2.322 -1.0825 -1.1095  0.2722
15064SOL     OW45769   5.655   2.337   5.451 -0.3996  0.1201 -0.2737
15064SOL    HW145770   5.713   2.307   5.521 -1.3575  0.1078  0.5350
15064SOL    HW245771   5.705   2.324   5.371  1.5185  1.9778  0.5258
15065SOL     OW45772   5.465   0.169   8.689 -0.0423 -0.3001 -0.1227
15065SOL    HW145773   5.388   0.215   8.654 -1.5724 -2.3304  0.4210
15065SOL    HW245774   5.490   0.109   8.619 -0.0307 -0.8660  0.3630
15066SOL     OW45775   0.085   6.846   3.973 -0.2137  0.3033 -0.1929
15066SOL    HW145776   0.140   6.827   4.049  1.0230  2.0407 -0.6048
15066SOL    HW245777   0.036   6.765   3.959 -0.1017 -0.2397  2.1156
15067SOL     OW45778   9.068   2.584   8.436 -0.3837  0.2956 -0.4517
15067SOL    HW145779   8.976   2.589   8.413 -0.9319 -3.0705  0.3690
15067SOL    HW245780   9.080   2.647   8.507 -2.4596 -0.2903  0.4693
15068SOL     OW45781   9.295   3.420   9.683  0.0749  0.6347 -0.1642
15068SOL    HW145782   9.282   3.349   9.746  2.6850  0.1643 -0.0369
15068SOL    HW245783   9.228   3.485   9.705 -0.5493 -0.5377  1.5765
15069SOL     OW45784   8.630   4.699   6.797 -0.0672 -0.0458  0.8359
15069SOL    HW145785   8.551   4.754   6.802  0.6094  0.8987  1.3426
15069SOL    HW245786   8.628   4.648   6.878  0.6083  1.0701  1.5829
15070SOL     OW45787   8.961   7.102   8.730 -0.3136  0.0411  0.3677
15070SOL    HW145788   9.055   7.082   8.739  0.1040  2.4965  2.6990
15070SOL    HW245789   8.925   7.087   8.818 -2.1182 -0.7081 -0.4591
15071SOL     OW45790   0.400   9.265   6.551 -0.1474  0.2266 -0.6281
15071SOL    HW145791   0.450   9.256   6.632 -0.1939  0.0581 -0.6166
15071SOL    HW245792   0.448   9.330   6.500 -0.0089  0.1883 -0.5475
15072SOL     OW45793   9.666   2.817   1.339 -0.5350 -0.6138 -0.0837
15072SOL    HW145794   9.640   2.741   1.391 -1.4350 -0.1456  0.1742
15072SOL    HW245795   9.646   2.892   1.395  1.1687 -0.1929  0.0275
15073SOL     OW45796   3.443   6.440   6.581 -0.2929 -0.4950  0.6208
15073SOL    HW145797   3.521   6.389   6.604  0.0169 -0.7912 -0.9869
15073SOL    HW245798   3.476   6.525   6.553 -0.4444 -0.9172 -0.9236
15074SOL     OW45799   7.653   3.702   4.936 -0.5477  0.2910  0.0829
15074SOL    HW145800   7.569   3.656   4.939 -1.2968  1.6025 -0.0354
15074SOL    HW245801   7.680   3.709   5.027  0.2795 -1.5709  0.0248
15075SOL     OW45802   4.285   4.738   0.708  0.1331  0.1262 -0.2160
15075SOL    HW145803   4.193   4.763   0.705  0.4103  1.0887 -1.0711
15075SOL    HW245804   4.284   4.643   0.693 -0.7503  0.0169  0.4300
15076SOL     OW45805   8.922   5.720   4.017  0.0236 -0.3797  0.2738
15076SOL    HW145806   9.005   5.703   3.972 -0.8176 -2.1416 -0.7498
15076SOL    HW245807   8.906   5.641   4.068 -1.6107 -0.6515 -0.5762
15077SOL     OW45808   0.626   8.300   3.263  0.3304  0.7114  0.5988
15077SOL    HW145809   0.574   8.256   3.330 -0.3414 -2.3083 -1.6874
15077SOL    HW245810   0.713   8.261   3.270  0.6567  1.4379  0.6417
15078SOL     OW45811   3.792   8.039   7.396  0.4975 -0.0644  0.2428
15078SOL    HW145812   3.844   7.978   7.449  3.1826  1.9631  0.1840
15078SOL    HW245813   3.751   8.097   7.460  0.4241 -0.1088  0.2352
15079SOL     OW45814   9.328   2.405   4.300  0.6344  0.9186 -0.0820
15079SOL    HW145815   9.260   2.458   4.257  0.5663  0.5975 -0.3776
15079SOL    HW245816   9.347   2.336   4.237  0.6614  0.5396  0.3416
15080SOL     OW45817   4.863   1.156   0.846 -0.4796  0.1512 -0.3468
15080SOL    HW145818   4.813   1.076   0.861 -0.4266  0.0338 -0.7720
15080SOL    HW245819   4.834   1.216   0.914 -1.0406  0.0144 -0.4599
15081SOL     OW45820   3.996   7.403   0.399 -0.0602  0.4899 -0.0507
15081SOL    HW145821   4.035   7.387   0.313  1.7606 -0.6089  0.9182
15081SOL    HW245822   3.927   7.337   0.406  0.5675 -0.2079 -0.2226
15082SOL     OW45823   6.324   5.733   1.421  0.5842 -0.1246 -0.7568
15082SOL    HW145824   6.369   5.799   1.474  0.2418 -0.3459 -0.1784
15082SOL    HW245825   6.323   5.769   1.333  0.4463  0.6223 -0.4558
15083SOL     OW45826   2.172   9.815   4.550  0.5509 -0.0375 -0.2922
15083SOL    HW145827   2.149   9.740   4.495 -1.3692  0.4348 -0.2149
15083SOL    HW245828   2.108   9.813   4.621  1.2092  1.0028  0.3586
15084SOL     OW45829   3.951   9.796   5.692  0.0371 -0.5438  0.3080
15084SOL    HW145830   3.999   9.731   5.641  0.3609 -0.0645 -0.0065
15084SOL    HW245831   4.018   9.840   5.744  0.1371  0.9684 -1.0471
15085SOL     OW45832   2.391   5.895   0.604 -0.0041 -0.1020  0.0453
15085SOL    HW145833   2.429   5.982   0.617 -0.1479 -0.3342  2.4439
15085SOL    HW245834   2.465   5.840   0.580  0.4159  0.3141  0.3640
15086SOL     OW45835   7.704   2.626   8.739  0.2065 -0.3574  0.1720
15086SOL    HW145836   7.786   2.579   8.725  0.1219  0.0592 -1.9404
15086SOL    HW245837   7.664   2.633   8.653 -2.4138 -1.1242  1.2298
15087SOL     OW45838   7.389   6.088   5.104 -0.0641  0.6390  0.3486
15087SOL    HW145839   7.342   6.133   5.175 -0.4524  4.2273 -1.9198
15087SOL    HW245840   7.445   6.156   5.066  3.5707 -2.3028 -0.0406
15088SOL     OW45841   5.738   7.111   8.203  0.3386  0.0201 -0.0065
15088SOL    HW145842   5.686   7.091   8.125  0.8158  0.3955 -0.4317
15088SOL    HW245843   5.829   7.095   8.176  0.5475  0.6303  0.3159
15089SOL     OW45844   9.389   0.194   4.445 -0.3583 -0.4307 -0.0061
15089SOL    HW145845   9.355   0.283   4.455  1.5015  0.4618 -1.0204
15089SOL    HW245846   9.403   0.164   4.535  0.3113  0.8767  0.3618
15090SOL     OW45847   1.997   8.998   8.334 -0.2722  0.1807 -0.1213
15090SOL    HW145848   2.062   9.054   8.378 -1.3503  0.9755  0.5080
15090SOL    HW245849   2.049   8.926   8.299  1.0833  1.2336 -0.4090
15091SOL     OW45850   8.382   3.513   1.058 -0.2843 -0.2944 -0.4961
15091SOL    HW145851   8.432   3.555   0.988 -0.4998 -0.6427 -0.8650
15091SOL    HW245852   8.447   3.463   1.107 -0.1111  0.0528 -0.3731
15092SOL     OW45853   4.053   0.127   5.123  0.0875  0.0164  0.9079
15092SOL    HW145854   4.003   0.049   5.146  0.3927 -0.5569 -0.3009
15092SOL    HW245855   4.062   0.175   5.205 -0.8206 -0.8010  1.5043
15093SOL     OW45856   9.258   2.275   4.746  0.1804  0.1749  0.6354
15093SOL    HW145857   9.215   2.249   4.664  2.7862 -0.3552 -0.6679
15093SOL    HW245858   9.313   2.349   4.722  1.1578 -0.1289  1.8426
15094SOL     OW45859   1.748   5.769   5.763  0.0137  0.1147  0.2622
15094SOL    HW145860   1.653   5.764   5.775 -0.4493  1.0021 -2.4087
15094SOL    HW245861   1.766   5.711   5.690  1.4369  0.5643  0.2209
15095SOL     OW45862   8.478   0.686   9.146 -0.2298 -0.5237 -0.0054
15095SOL    HW145863   8.523   0.693   9.062 -1.3536 -0.0914 -0.5960
15095SOL    HW245864   8.483   0.773   9.184  1.6484 -1.0816  1.1429
15096SOL     OW45865   8.722   9.456   7.247  1.1373  0.7063 -0.4430
15096SOL    HW145866   8.687   9.457   7.158  0.2708  0.7634 -0.1203
15096SOL    HW245867   8.677   9.528   7.291  1.2294  0.4113  0.1541
15097SOL     OW45868   1.850   6.006   5.369  0.1413 -0.1844 -0.0294
15097SOL    HW145869   1.796   5.927   5.367  0.0051 -0.0805 -0.5503
15097SOL    HW245870   1.901   6.002   5.289 -1.1643  1.1470 -0.9870
15098SOL     OW45871   8.548   2.088   8.512  0.3710 -0.4040  0.1781
15098SOL    HW145872   8.493   2.103   8.435  1.4585  2.5197 -0.1629
15098SOL    HW245873   8.634   2.122   8.487  0.1252  3.4145  3.4493
15099SOL     OW45874   8.896   1.521   7.184 -0.1182  0.2673  0.2629
15099SOL    HW145875   8.954   1.582   7.229  0.8600  0.4995 -1.2330
15099SOL    HW245876   8.915   1.436   7.223  0.1108  0.5730  0.8365
15100SOL     OW45877   6.125   0.827   3.066  0.4586  0.0413  0.3233
15100SOL    HW145878   6.187   0.767   3.108 -0.3315 -1.2785 -0.3325
15100SOL    HW245879   6.057   0.770   3.030 -0.7719  1.4074  0.4007
15101SOL     OW45880   1.981   2.556   5.532 -0.3943  0.1550 -0.0185
15101SOL    HW145881   1.901   2.608   5.538 -0.8899 -0.6491  0.4734
15101SOL    HW245882   2.026   2.591   5.455 -0.4857  1.6174  0.5509
15102SOL     OW45883   4.521   8.383   9.906 -0.0880 -0.5956 -0.6236
15102SOL    HW145884   4.549   8.450   9.968 -0.8865 -0.3109 -0.5496
15102SOL    HW245885   4.436   8.414   9.875 -1.1116 -2.2197  0.4046
15103SOL     OW45886   9.843   0.255   2.461  0.6442  0.8957 -0.0052
15103SOL    HW145887   9.751   0.228   2.463  0.6129  1.0137  1.7741
15103SOL    HW245888   9.889   0.180   2.425 -0.0073  0.3141  0.3434
15104SOL     OW45889   9.481   0.582   6.299 -0.1094  0.5026  0.2101
15104SOL    HW145890   9.514   0.667   6.268  0.7654  0.2742  0.5072
15104SOL    HW245891   9.508   0.577   6.390  2.4957 -1.3742 -0.5829
15105SOL     OW45892   3.801   9.591   5.130 -0.3828  0.1646  0.0749
15105SOL    HW145893   3.890   9.594   5.093  0.3746  0.5084  1.8450
15105SOL    HW245894   3.756   9.525   5.077  1.5133 -1.4218  0.3083
15106SOL     OW45895   6.276   6.247   2.452 -0.4127 -0.0707  0.4438
15106SOL    HW145896   6.188   6.284   2.446 -0.4675 -0.1099  0.9802
15106SOL    HW245897   6.325   6.292   2.383 -0.4482  1.1093  1.1531
15107SOL     OW45898   8.893   7.483   1.085  0.1158 -0.0457  0.1525
15107SOL    HW145899   8.942   7.461   1.165 -1.2639 -0.0122  1.0302
15107SOL    HW245900   8.942   7.441   1.015  3.2578  2.5378  0.5232
15108SOL     OW45901   2.585   5.524   7.106 -0.0713 -0.4153  0.0933
15108SOL    HW145902   2.516   5.459   7.117  0.0132 -0.4107  0.6545
15108SOL    HW245903   2.560   5.572   7.027  0.7917 -2.2594 -1.3628
15109SOL     OW45904   9.854   5.942   3.132  0.4245  0.7625 -0.5702
15109SOL    HW145905   9.813   5.860   3.107  0.1081  1.1539 -1.4058
15109SOL    HW245906   9.865   5.937   3.226  1.5879 -0.7697 -0.7529
15110SOL     OW45907   6.853   1.898   5.144 -0.5004 -0.2061 -0.2543
15110SOL    HW145908   6.761   1.904   5.170 -0.1581 -0.7351  1.1887
15110SOL    HW245909   6.879   1.989   5.130 -1.5874 -0.1350 -2.0672
15111SOL     OW45910   0.662   7.067   6.230  0.2273 -0.3021  0.0606
15111SOL    HW145911   0.649   7.052   6.136 -0.8833  0.0825  0.1383
15111SOL    HW245912   0.578   7.103   6.260  1.4184  2.2284  0.6423
15112SOL     OW45913   7.757   1.205   4.263  0.2102 -0.1325 -0.0105
15112SOL    HW145914   7.767   1.299   4.276 -0.0590  0.0938 -1.2775
15112SOL    HW245915   7.664   1.192   4.246 -0.2622 -1.0194  2.7530
15113SOL     OW45916   7.471   2.911   4.072 -0.0572 -0.1557 -0.4876
15113SOL    HW145917   7.502   2.997   4.044 -0.9936  0.8761  1.4347
15113SOL    HW245918   7.548   2.868   4.109  0.1051  0.5358  0.0098
15114SOL     OW45919   6.291   8.022   5.813 -0.5200  0.4717  0.0386
15114SOL    HW145920   6.319   8.048   5.901 -1.8046  1.1302  0.2830
15114SOL    HW245921   6.330   8.088   5.755  0.3700  0.0085  0.0976
15115SOL     OW45922   4.466   5.016   5.220 -0.8031  0.6420 -0.7635
15115SOL    HW145923   4.450   5.076   5.292 -0.3176  1.3520 -1.2334
15115SOL    HW245924   4.559   5.027   5.200 -1.1854  1.3700 -2.2949
15116SOL     OW45925   5.882   6.620   8.685 -0.5629 -0.3707 -0.1143
15116SOL    HW145926   5.947   6.651   8.748 -0.6842  1.1911 -0.7111
15116SOL    HW245927   5.923   6.546   8.641  0.2680 -0.2669  0.4741
15117SOL     OW45928   9.300   0.430   7.246 -0.2317  0.2644 -0.0050
15117SOL    HW145929   9.322   0.507   7.298 -2.6135  0.6009  0.6398
15117SOL    HW245930   9.308   0.357   7.306  1.1656  0.0888 -0.3763
15118SOL     OW45931   7.111   2.569   7.168  0.2906  0.1487  0.2049
15118SOL    HW145932   7.054   2.605   7.236  1.2749  0.6838  0.7617
15118SOL    HW245933   7.112   2.636   7.100 -0.2528 -0.1448 -0.0969
15119SOL     OW45934   5.771   1.528   0.623  0.1342  0.3970 -0.4913
15119SOL    HW145935   5.854   1.575   0.621 -0.8177  2.1364 -0.6661
15119SOL    HW245936   5.794   1.441   0.658  1.7428  1.3877  1.0798
15120SOL     OW45937   2.426   0.732   6.753 -0.8533  0.3498  0.1693
15120SOL    HW145938   2.485   0.660   6.776 -1.1744 -0.5371 -1.5962
15120SOL    HW245939   2.339   0.699   6.777 -1.0218  0.0257 -0.8134
15121SOL     OW45940   9.274   8.287   5.447 -0.0346 -0.8382 -0.2289
15121SOL    HW145941   9.208   8.224   5.478  0.4978 -1.5205 -0.4505
15121SOL    HW245942   9.274   8.276   5.352  0.5382 -1.0001 -0.2156
15122SOL     OW45943   4.851   3.721   0.521  0.0409  0.0860 -0.1141
15122SOL    HW145944   4.896   3.637   0.514  0.9756  0.7196 -3.6162
15122SOL    HW245945   4.917   3.780   0.557  0.1748 -0.1642  0.0563
15123SOL     OW45946   9.336   7.404   8.712  0.3046 -0.1649 -0.1321
15123SOL    HW145947   9.312   7.345   8.783  0.9638 -0.5751 -0.2363
15123SOL    HW245948   9.406   7.459   8.750  1.9411 -1.5769 -0.9668
15124SOL     OW45949   5.327   9.463   6.398 -0.4252 -0.3113  0.0558
15124SOL    HW145950   5.317   9.481   6.305 -0.4902  0.6062  0.2289
15124SOL    HW245951   5.365   9.375   6.402  1.0668  0.2478 -0.8839
15125SOL     OW45952   1.202   2.939   7.829  0.3797  0.3901 -0.4370
15125SOL    HW145953   1.125   2.891   7.800 -0.0906  0.6078  0.4208
15125SOL    HW245954   1.219   3.002   7.759  0.0499  0.0336 -0.8374
15126SOL     OW45955   8.854   6.997   9.849  0.4983 -0.6127 -0.1828
15126SOL    HW145956   8.907   7.059   9.900 -0.2431 -0.1356  0.0212
15126SOL    HW245957   8.768   6.999   9.891 -0.2758  0.1277 -1.7188
15127SOL     OW45958   1.715   6.686   2.180  0.1287 -0.7210  0.3562
15127SOL    HW145959   1.755   6.680   2.267  1.0636  1.7315  0.1969
15127SOL    HW245960   1.782   6.729   2.126 -1.8680  1.6358 -0.4608
15128SOL     OW45961   3.194   5.524   4.351  0.0110  0.2758  0.3358
15128SOL    HW145962   3.211   5.467   4.426  0.5163 -0.7122 -0.5028
15128SOL    HW245963   3.271   5.581   4.346  2.0800 -2.4203 -1.8532
15129SOL     OW45964   8.160   8.901   9.461 -0.2175 -0.4104 -0.1900
15129SOL    HW145965   8.242   8.870   9.423  0.5179 -0.9650  1.6973
15129SOL    HW245966   8.112   8.820   9.482 -1.9398 -0.1035 -2.5267
15130SOL     OW45967   4.421   8.765   6.201 -0.1047 -0.2475  0.1035
15130SOL    HW145968   4.458   8.744   6.286  0.0550  0.6528  0.2615
15130SOL    HW245969   4.386   8.853   6.210 -0.8778 -0.4681 -0.5107
15131SOL     OW45970   1.983   8.073   5.655  0.3143 -0.3604 -0.2956
15131SOL    HW145971   1.972   8.128   5.732 -0.6275 -0.7814 -0.1174
15131SOL    HW245972   2.077   8.073   5.638  0.3861  0.8693  0.0178
15132SOL     OW45973   4.140   8.751   8.510 -0.7236 -0.1946 -0.0097
15132SOL    HW145974   4.053   8.774   8.542 -1.1464  1.2448 -1.9970
15132SOL    HW245975   4.138   8.655   8.502 -1.7365 -0.2727  0.9925
15133SOL     OW45976   1.905   1.503   2.454 -0.1017 -0.0982 -0.3210
15133SOL    HW145977   1.878   1.594   2.466 -0.3370 -0.0244 -1.3217
15133SOL    HW245978   1.826   1.452   2.470  0.2850 -0.2395  1.3784
15134SOL     OW45979   5.801   3.494   6.678  0.3515  0.4359 -0.1181
15134SOL    HW145980   5.707   3.499   6.662  0.4015 -0.2221 -0.6592
15134SOL    HW245981   5.819   3.568   6.736 -0.5001  0.5528  0.0136
15135SOL     OW45982   9.848   1.624   5.818  0.1181  0.0391  0.4102
15135SOL    HW145983   9.787   1.589   5.753  1.2024 -1.9611  0.4030
15135SOL    HW245984   9.799   1.621   5.900  0.1471 -1.4703  0.3897
15136SOL     OW45985   9.580   8.170   7.200  0.8718  0.4494  0.2724
15136SOL    HW145986   9.594   8.196   7.109 -0.5952  1.5042  0.3189
15136SOL    HW245987   9.584   8.251   7.249 -0.2308  0.1557  0.8896
15137SOL     OW45988   3.134   3.760   6.672 -0.3257  0.2793  0.2635
15137SOL    HW145989   3.062   3.821   6.682 -0.5839 -0.1409  1.0656
15137SOL    HW245990   3.187   3.796   6.601 -1.1230  0.7809 -0.0879
15138SOL     OW45991   4.970   8.857   0.641 -0.3919  0.5080 -0.3622
15138SOL    HW145992   4.902   8.796   0.614 -0.2560  0.6189 -0.9767
15138SOL    HW245993   5.052   8.807   0.631 -0.2389  0.9097 -1.2931
15139SOL     OW45994   2.628   5.343   3.802 -0.1580  0.1934 -0.1717
15139SOL    HW145995   2.574   5.326   3.880 -1.7513 -0.7775 -1.4278
15139SOL    HW245996   2.629   5.438   3.794  0.9023  0.3781  1.5874
15140SOL     OW45997   6.874   9.616   4.729 -0.4316  0.3382 -0.2362
15140SOL    HW145998   6.803   9.611   4.793 -0.8199  0.2859 -0.6701
15140SOL    HW245999   6.952   9.586   4.777 -0.9163 -0.7089 -0.0811
15141SOL     OW46000   8.175   1.579   0.781  0.4731 -0.4539 -0.0209
15141SOL    HW146001   8.234   1.640   0.826 -0.0835  0.7905 -0.9215
15141SOL    HW246002   8.176   1.608   0.690 -2.8129  0.7253  0.1846
15142SOL     OW46003   4.679   7.674   8.769 -0.2659  0.1211 -0.6029
15142SOL    HW146004   4.709   7.677   8.678 -1.7246 -0.5529 -1.1289
15142SOL    HW246005   4.662   7.581   8.785 -1.4372  0.3999 -0.1309
15143SOL     OW46006   5.228   4.343   9.534 -0.7982  0.1660 -0.4588
15143SOL    HW146007   5.323   4.343   9.536 -0.7544  0.1125 -1.8909
15143SOL    HW246008   5.203   4.256   9.565 -0.2944 -0.6665 -2.2581
15144SOL     OW46009   7.008   8.784   0.598  0.0505 -0.1658 -0.2971
15144SOL    HW146010   6.923   8.828   0.595 -0.0530  0.2204  3.5994
15144SOL    HW246011   6.986   8.691   0.600 -0.1217 -0.1611 -1.3956
15145SOL     OW46012   1.418   2.833   6.991 -0.1377  0.1518  0.2769
15145SOL    HW146013   1.494   2.868   6.946  0.2530 -0.7919  0.1713
15145SOL    HW246014   1.350   2.828   6.924 -0.0007  0.1143  0.1421
15146SOL     OW46015   9.296   3.434   5.100 -0.4678  0.2902  0.5252
15146SOL    HW146016   9.312   3.340   5.086 -1.9769 -0.0645  1.0585
15146SOL    HW246017   9.298   3.472   5.012 -1.8855 -0.5863  0.0923
15147SOL     OW46018   3.128   6.134   8.147 -0.2043  0.0712 -0.3400
15147SOL    HW146019   3.033   6.137   8.144 -0.2542 -0.0632  0.6146
15147SOL    HW246020   3.151   6.050   8.107 -0.3582  0.9514 -2.3368
15148SOL     OW46021   6.073   6.741   4.955  0.0884 -0.3918 -0.0215
15148SOL    HW146022   6.012   6.813   4.941 -0.8221 -1.2211 -0.4480
15148SOL    HW246023   6.148   6.761   4.898  0.4677  0.8799  0.8712
15149SOL     OW46024   7.335   1.059   7.500 -0.0565 -0.2934 -0.0920
15149SOL    HW146025   7.300   0.994   7.439  1.0238 -1.0670  0.0863
15149SOL    HW246026   7.429   1.059   7.484  0.2346 -0.4127  1.4544
15150SOL     OW46027   6.719   8.034   0.668  0.2317 -0.1615  0.0264
15150SOL    HW146028   6.718   7.938   0.661  0.4354 -0.3550  2.1869
15150SOL    HW246029   6.659   8.063   0.599 -0.9261 -1.9111  0.2385
15151SOL     OW46030   6.997   6.213   4.819 -0.6598 -0.5706 -0.5290
15151SOL    HW146031   7.017   6.221   4.725 -1.7841 -1.2080 -0.8451
15151SOL    HW246032   6.965   6.300   4.844 -1.3839 -0.6845 -1.0120
15152SOL     OW46033   7.945   3.986   7.276  0.2030 -0.7915  0.2973
15152SOL    HW146034   7.974   3.895   7.274 -1.5464 -1.4865  2.1596
15152SOL    HW246035   7.868   3.988   7.220  0.6196 -0.2907 -0.2638
15153SOL     OW46036   7.631   1.184   5.174 -0.3305 -0.0731 -0.2366
15153SOL    HW146037   7.714   1.152   5.140 -0.9221  1.4759 -3.6197
15153SOL    HW246038   7.568   1.163   5.105 -2.5078  0.0189  1.6052
15154SOL     OW46039   3.589   5.732   9.580 -0.5649 -0.5199 -0.2496
15154SOL    HW146040   3.640   5.759   9.657 -1.3228  1.1222 -0.2737
15154SOL    HW246041   3.624   5.786   9.509 -0.7752 -1.0690 -0.7733
15155SOL     OW46042   1.179   5.177   2.159 -0.2894 -0.1867 -0.2713
15155SOL    HW146043   1.200   5.095   2.205 -0.7202  0.0660  0.3924
15155SOL    HW246044   1.138   5.149   2.077  2.2810 -0.7004 -1.4916
15156SOL     OW46045   6.185   8.489   3.128  0.3081 -0.5352 -0.4666
15156SOL    HW146046   6.178   8.549   3.202  1.7982  0.8431 -1.3806
15156SOL    HW246047   6.158   8.404   3.163  3.0494 -0.4268  2.2812
15157SOL     OW46048   5.140   9.620   0.991  0.2680  0.2174 -0.0526
15157SOL    HW146049   5.060   9.569   0.980  0.6914 -1.3703  3.1406
15157SOL    HW246050   5.209   9.567   0.952  0.0345  0.9659 -1.5820
15158SOL     OW46051   8.564   3.677   4.848 -0.2088  0.1623  0.1142
15158SOL    HW146052   8.485   3.639   4.811  0.9876 -0.7557 -1.6529
15158SOL    HW246053   8.591   3.616   4.917 -0.7162  0.1894  0.3377
15159SOL     OW46054   8.238   0.593   2.986  0.8690  0.2803 -0.1271
15159SOL    HW146055   8.185   0.658   3.031  0.9219 -1.0262  1.9659
15159SOL    HW246056   8.179   0.552   2.922  0.4439  1.3536 -0.4353
15160SOL     OW46057   6.788   2.363   7.891 -0.5257  0.2282  0.1338
15160SOL    HW146058   6.744   2.311   7.959 -0.1830 -0.0313  0.1618
15160SOL    HW246059   6.718   2.414   7.851 -0.3850  2.5606  2.5627
15161SOL     OW46060   8.310   7.400   2.355 -0.0029  0.4769 -0.2172
15161SOL    HW146061   8.269   7.343   2.290  1.3168 -0.7442 -0.0401
15161SOL    HW246062   8.403   7.375   2.354  0.4450  1.9484  0.5907
15162SOL     OW46063   6.852   9.364   5.429  0.0243  0.1711  0.1823
15162SOL    HW146064   6.819   9.454   5.428 -0.7140 -0.0568  1.5915
15162SOL    HW246065   6.919   9.364   5.497  0.6893 -0.1381 -0.4593
15163SOL     OW46066   5.114   4.455   9.310  0.1627 -0.3391 -0.2184
15163SOL    HW146067   5.149   4.463   9.221 -1.8765  1.0932 -0.9545
15163SOL    HW246068   5.173   4.393   9.353  0.9105 -1.5111 -2.7281
15164SOL     OW46069   9.915   2.327   1.121 -0.1317  0.3663 -0.5787
15164SOL    HW146070  10.003   2.361   1.105 -0.3311  2.0374  1.5487
15164SOL    HW246071   9.865   2.401   1.155 -1.1981 -1.4811  2.2523
15165SOL     OW46072   1.981   9.180   1.567  0.3813  0.2107  0.1724
15165SOL    HW146073   1.951   9.109   1.623 -0.3756  2.3452  2.6596
15165SOL    HW246074   2.026   9.240   1.626  1.1484  1.7358 -1.8543
15166SOL     OW46075   3.784   2.211   2.201 -0.5828  0.0468 -0.1410
15166SOL    HW146076   3.716   2.275   2.177  0.2969  0.3872 -1.9425
15166SOL    HW246077   3.744   2.126   2.183 -1.5503  0.0730  1.6945
15167SOL     OW46078   2.966   6.930   8.736 -0.0856 -0.2987  0.1868
15167SOL    HW146079   2.947   6.929   8.829  0.4665  1.1162  0.3488
15167SOL    HW246080   2.887   6.965   8.695  0.5912  1.6393  0.4338
15168SOL     OW46081   7.818   1.358   0.772  0.4412 -0.3922  0.6158
15168SOL    HW146082   7.738   1.372   0.822  0.4448  0.9147  0.2775
15168SOL    HW246083   7.792   1.367   0.681  0.3840 -3.0285  0.2968
15169SOL     OW46084   2.660   6.388   4.342  0.6046 -0.0461  0.1803
15169SOL    HW146085   2.592   6.365   4.279  0.6411  2.5055 -0.9190
15169SOL    HW246086   2.618   6.452   4.400  1.5723  0.2734  0.5431
15170SOL     OW46087   6.918   0.699   1.995  0.0387 -0.0377  0.0845
15170SOL    HW146088   6.959   0.624   1.952 -1.5452 -1.1318  0.4185
15170SOL    HW246089   6.887   0.665   2.079 -0.9959  0.9023  0.1037
15171SOL     OW46090   9.077   4.744   1.921 -0.0408 -0.2739  0.2823
15171SOL    HW146091   9.096   4.651   1.929 -0.9855 -0.7449 -2.0299
15171SOL    HW246092   9.154   4.782   1.879 -0.0355 -0.2009  0.3572
15172SOL     OW46093   3.631   5.657   0.698  0.4192  0.0617 -0.0315
15172SOL    HW146094   3.616   5.651   0.604 -3.7835 -2.4489  0.5192
15172SOL    HW246095   3.684   5.580   0.719 -0.2360 -0.4472 -0.1925
15173SOL     OW46096   6.135   4.907   0.970 -0.1963  0.7418  0.4888
15173SOL    HW146097   6.195   4.833   0.980  1.9555  2.4897  1.6552
15173SOL    HW246098   6.068   4.877   0.910  0.8529 -1.9665  0.5526
15174SOL     OW46099   2.694   7.574   6.557 -0.1713  1.0055  0.2792
15174SOL    HW146100   2.606   7.602   6.582 -0.1554  0.8566  0.4944
15174SOL    HW246101   2.729   7.531   6.634  0.0086  0.8647  0.1192
15175SOL     OW46102   9.914   8.335   6.057 -0.2324 -0.2374 -0.6244
15175SOL    HW146103   9.901   8.374   6.144  2.1785 -1.7346  0.5096
15175SOL    HW246104   9.826   8.308   6.030 -1.0839  0.5201  1.1952
15176SOL     OW46105   0.450   8.910   1.938 -0.7067  0.6905 -0.4315
15176SOL    HW146106   0.422   8.824   1.969 -1.7815  1.6343  1.3984
15176SOL    HW246107   0.546   8.906   1.938 -0.7340 -0.1614  0.7006
15177SOL     OW46108   1.250   0.674   8.879  0.0958  0.2043  0.3627
15177SOL    HW146109   1.168   0.674   8.830  0.5676 -0.3439 -0.4451
15177SOL    HW246110   1.236   0.613   8.951  0.4243 -1.4404 -0.9041
15178SOL     OW46111   6.106   6.201   5.625 -0.0951 -0.0562 -0.2656
15178SOL    HW146112   6.032   6.217   5.683 -0.3390 -1.3293 -0.1876
15178SOL    HW246113   6.183   6.224   5.677 -0.3343 -0.7352  0.4172
15179SOL     OW46114   2.326   4.268   2.150  0.0071  0.0307  0.2191
15179SOL    HW146115   2.288   4.219   2.223  0.4039 -0.9313 -0.2023
15179SOL    HW246116   2.396   4.320   2.189 -0.0120 -0.2152  0.5811
15180SOL     OW46117   2.077   8.788   9.460 -0.3208 -0.1983  0.3013
15180SOL    HW146118   2.051   8.773   9.369  0.9425 -0.8054  0.0130
15180SOL    HW246119   2.008   8.747   9.512 -1.5332  0.9388 -0.3322
15181SOL     OW46120   9.441   8.251   4.435 -0.0226  0.3480 -0.3473
15181SOL    HW146121   9.530   8.237   4.404 -0.0995 -1.2829  0.0677
15181SOL    HW246122   9.396   8.169   4.417 -1.2553  0.8925  0.0956
15182SOL     OW46123   3.788   2.633   8.482 -0.1738 -0.1063  0.0942
15182SOL    HW146124   3.839   2.690   8.424  0.8382 -0.9433  0.1325
15182SOL    HW246125   3.846   2.617   8.557 -0.0068 -2.0359 -0.4010
15183SOL     OW46126   0.188   8.378   4.448 -0.3787  0.0815 -0.2330
15183SOL    HW146127   0.175   8.472   4.459 -0.2644  0.0963 -0.2258
15183SOL    HW246128   0.183   8.363   4.353 -0.8064  0.0336 -0.2026
15184SOL     OW46129   9.045   4.055   5.721 -0.1009 -0.7885 -0.2363
15184SOL    HW146130   9.031   3.961   5.711 -0.8298 -0.9904  2.0803
15184SOL    HW246131   8.971   4.084   5.775  0.1279  1.1189 -0.8906
15185SOL     OW46132   0.594   9.932   6.454 -0.3658  0.4373 -0.0309
15185SOL    HW146133   0.536   9.993   6.499  1.1099  2.6670 -0.9839
15185SOL    HW246134   0.644   9.889   6.523 -2.5315 -1.0066  0.7596
15186SOL     OW46135   3.966   5.100   3.962  0.0047  0.0604 -0.5539
15186SOL    HW146136   3.954   5.052   4.044 -0.8091 -1.3942 -1.4894
15186SOL    HW246137   4.017   5.041   3.907 -3.5152 -1.1958 -2.8200
15187SOL     OW46138   5.239   1.878   5.312  0.0558  0.1013  0.1063
15187SOL    HW146139   5.280   1.950   5.361  0.6670 -0.6893  0.7928
15187SOL    HW246140   5.177   1.921   5.253  0.3964  1.1863  0.5130
15188SOL     OW46141   7.869   3.434   5.102  0.2429 -0.1046 -0.1975
15188SOL    HW146142   7.919   3.436   5.184  0.4405  1.4636 -0.3265
15188SOL    HW246143   7.780   3.458   5.127 -0.1467 -1.4727 -0.1882
15189SOL     OW46144   6.047   8.159   1.962 -0.6721  0.0959 -0.6108
15189SOL    HW146145   6.063   8.219   1.889  0.5581  0.2829 -0.2221
15189SOL    HW246146   6.080   8.207   2.039  0.4332 -1.1009 -0.3057
15190SOL     OW46147   3.392   7.175   7.632 -0.2420  0.2741 -0.6150
15190SOL    HW146148   3.438   7.234   7.572 -0.5226  1.9485  0.7427
15190SOL    HW246149   3.446   7.096   7.634  2.0493  1.7738  0.1147
15191SOL     OW46150   8.193   7.256   5.603  0.1978 -0.0795 -0.5027
15191SOL    HW146151   8.228   7.202   5.674  0.3219  0.7960  0.1067
15191SOL    HW246152   8.108   7.217   5.583  1.0964 -1.7126 -1.4252
15192SOL     OW46153   6.522   2.714   8.704  0.7316 -0.1744 -0.1606
15192SOL    HW146154   6.581   2.673   8.767  1.1647  0.6279 -0.0223
15192SOL    HW246155   6.452   2.752   8.757  0.3913 -0.6288 -0.2774
15193SOL     OW46156   7.359   5.949   5.850  0.0035  0.3329  0.1281
15193SOL    HW146157   7.439   5.968   5.801  0.3017 -0.3984  0.3174
15193SOL    HW246158   7.354   6.019   5.914  0.7004  0.1872  0.3560
15194SOL     OW46159   5.578   0.965   9.681  0.2318  0.2126  0.1259
15194SOL    HW146160   5.641   0.980   9.610  0.5179 -0.4785  0.2278
15194SOL    HW246161   5.560   1.052   9.717 -1.6616  0.9302 -2.2564
15195SOL     OW46162   1.601   0.215   8.126  0.1053 -0.1816  0.4294
15195SOL    HW146163   1.642   0.299   8.145  0.3909 -0.4713  1.1493
15195SOL    HW246164   1.559   0.190   8.209 -0.5322 -0.4400  0.0378
15196SOL     OW46165   5.362   6.566   5.131  0.0052  0.3816  0.1657
15196SOL    HW146166   5.442   6.514   5.130 -1.3451 -1.9166  1.5810
15196SOL    HW246167   5.304   6.522   5.068 -1.2509 -0.0773  1.5694
15197SOL     OW46168   1.031   5.144   1.910  0.3762 -0.6232  0.0330
15197SOL    HW146169   1.002   5.063   1.952 -0.6175 -0.8423 -1.0215
15197SOL    HW246170   0.951   5.183   1.876  0.9773  0.2587 -0.4119
15198SOL     OW46171   0.589   7.645   2.115 -0.0872 -0.9646 -0.1608
15198SOL    HW146172   0.512   7.594   2.137 -0.7082  0.0687  0.0904
15198SOL    HW246173   0.555   7.725   2.076  0.8387 -0.2956  0.3622
15199SOL     OW46174   3.036   6.185   8.777 -0.0054  0.0524 -0.4951
15199SOL    HW146175   3.116   6.133   8.766  0.7331  1.3281 -1.4487
15199SOL    HW246176   3.066   6.267   8.815 -0.8891  0.4736 -0.6764
15200SOL     OW46177   7.426   3.298   3.502 -0.4830 -0.7582 -0.1832
15200SOL    HW146178   7.488   3.353   3.454 -1.5160 -0.5250 -1.2867
15200SOL    HW246179   7.347   3.352   3.511 -0.2970 -0.7550  1.9112
15201SOL     OW46180   9.448   1.714   5.007 -0.1835 -0.1764  0.4890
15201SOL    HW146181   9.379   1.662   4.966  0.3282  0.0025 -0.6401
15201SOL    HW246182   9.439   1.802   4.969  0.9367 -0.2645 -0.0536
15202SOL     OW46183   7.596   9.232   1.741  0.0830 -0.5894 -0.1996
15202SOL    HW146184   7.567   9.290   1.812 -0.5522  2.3841 -2.6315
15202SOL    HW246185   7.518   9.183   1.716 -0.2806  0.0225 -0.2799
15203SOL     OW46186   1.665   9.631   5.044 -0.6238  0.8602 -0.0064
15203SOL    HW146187   1.749   9.669   5.071 -1.0702  0.8392  1.5127
15203SOL    HW246188   1.641   9.573   5.117 -0.6125 -1.3271 -1.6469
15204SOL     OW46189   2.412   9.156   7.885  0.2484 -0.3400 -0.1596
15204SOL    HW146190   2.409   9.143   7.790  0.0216 -1.5888  0.0077
15204SOL    HW246191   2.501   9.188   7.901 -0.1957  1.4154 -0.9500
15205SOL     OW46192   7.628   5.425   9.362  0.2270 -0.0821  0.1424
15205SOL    HW146193   7.543   5.413   9.318  1.5771 -1.8365 -2.2413
15205SOL    HW246194   7.633   5.520   9.378 -2.1929  0.0619  0.4511
15206SOL     OW46195   1.796   1.207   0.576 -0.5665 -0.0963 -0.3512
15206SOL    HW146196   1.713   1.212   0.528 -2.7125 -1.1114  2.9004
15206SOL    HW246197   1.804   1.291   0.620  0.1548 -0.0067 -0.6352
15207SOL     OW46198   1.597   8.692   8.459  0.0050 -0.2462 -0.4199
15207SOL    HW146199   1.515   8.741   8.452  0.3400  0.6152  1.2570
15207SOL    HW246200   1.584   8.616   8.401 -2.3713 -0.6658  0.5279
15208SOL     OW46201   3.286   2.898   4.726 -0.0813  0.3973  0.3469
15208SOL    HW146202   3.297   2.822   4.783 -0.5836  0.0251 -0.0371
15208SOL    HW246203   3.367   2.903   4.676  0.1508  0.4128  0.7179
15209SOL     OW46204   6.754   4.904   8.964  0.3815 -0.2221  0.3166
15209SOL    HW146205   6.721   4.962   8.896  1.5342  1.7517  1.3347
15209SOL    HW246206   6.761   4.960   9.042  0.7377 -1.9564  1.5832
15210SOL     OW46207   0.496   2.439   7.608  0.2967  0.0523 -0.0818
15210SOL    HW146208   0.439   2.505   7.569  0.7559  0.4418 -0.0936
15210SOL    HW246209   0.517   2.379   7.535  0.0518  0.0104 -0.1181
15211SOL     OW46210   9.563   5.610   6.659 -0.2348 -0.5700  0.0652
15211SOL    HW146211   9.642   5.564   6.632 -0.0327 -0.0511 -0.2388
15211SOL    HW246212   9.567   5.610   6.754  0.6265  0.2872  0.0467
15212SOL     OW46213   8.740   0.038   5.894  0.0632 -0.1518  0.2277
15212SOL    HW146214   8.687   0.037   5.814 -0.1809 -0.1945  0.3892
15212SOL    HW246215   8.827   0.064   5.864 -0.0393 -0.1152 -0.0456
15213SOL     OW46216   8.662   2.758   8.026 -0.0588 -0.0288  0.5441
15213SOL    HW146217   8.709   2.838   8.002  1.1592 -1.0973 -0.7767
15213SOL    HW246218   8.730   2.692   8.038 -1.1174 -2.1049 -3.1835
15214SOL     OW46219   2.340   4.509   4.551  0.3836 -0.0868  0.0958
15214SOL    HW146220   2.411   4.537   4.494  1.4742  0.4582  1.6445
15214SOL    HW246221   2.383   4.453   4.617 -0.9147 -1.1642  0.0702
15215SOL     OW46222   0.374   3.565   7.357 -0.1713 -0.1234  0.1875
15215SOL    HW146223   0.287   3.531   7.378 -0.0907  0.2245  1.0982
15215SOL    HW246224   0.435   3.507   7.403  0.0493  0.1369  0.2265
15216SOL     OW46225   0.934   8.162   8.450  0.1285  0.6878  0.3269
15216SOL    HW146226   0.926   8.067   8.455  1.4996 -0.1008 -5.2481
15216SOL    HW246227   0.844   8.193   8.446 -0.3923 -0.8621 -1.3045
15217SOL     OW46228   5.509   2.561   5.099  0.4096 -0.4463 -0.4022
15217SOL    HW146229   5.503   2.639   5.044  3.2907  0.4216  0.3672
15217SOL    HW246230   5.563   2.500   5.049  1.9397 -0.1576  0.7979
15218SOL     OW46231   3.205   7.093   7.256 -0.2863  0.1415 -0.1339
15218SOL    HW146232   3.266   7.161   7.228  1.1281  0.5120  3.3039
15218SOL    HW246233   3.260   7.028   7.300 -1.9688 -1.7038 -0.6010
15219SOL     OW46234   9.051   6.875   7.894 -0.4970 -0.3521 -0.3184
15219SOL    HW146235   9.052   6.942   7.826  0.0939  0.1597  0.1722
15219SOL    HW246236   9.128   6.821   7.875 -0.3359 -0.2127 -0.0777
15220SOL     OW46237   3.674   8.060   9.330  0.4846  0.1627  0.3482
15220SOL    HW146238   3.627   8.015   9.400  0.7385 -0.9233 -0.1642
15220SOL    HW246239   3.748   8.003   9.310  0.9896  0.9605 -0.1042
15221SOL     OW46240   4.666   0.748   1.083 -0.0262  0.3315  0.0434
15221SOL    HW146241   4.747   0.698   1.085  0.5908  1.3248  1.7846
15221SOL    HW246242   4.600   0.685   1.054  1.1499 -0.8044 -0.2663
15222SOL     OW46243   4.713   2.292   8.843  0.1501  0.1105  0.1486
15222SOL    HW146244   4.681   2.284   8.753  1.6122  0.0092 -0.3831
15222SOL    HW246245   4.741   2.383   8.850  1.5703 -0.2806 -0.0619
15223SOL     OW46246   4.389   1.623   9.779  0.5801  0.0477  0.6501
15223SOL    HW146247   4.388   1.637   9.874  1.9085  1.0522  0.5564
15223SOL    HW246248   4.328   1.688   9.744  0.0200 -0.3841  0.8130
15224SOL     OW46249   1.409   7.728   2.847  0.2155  0.4469  0.5244
15224SOL    HW146250   1.389   7.634   2.838 -0.5225  0.6219  0.2803
15224SOL    HW246251   1.496   7.737   2.809  0.1952 -0.1040  0.3278
15225SOL     OW46252   2.522   3.206   9.549 -0.4090 -0.3832 -0.0515
15225SOL    HW146253   2.552   3.119   9.577 -2.1239 -0.9429  0.1746
15225SOL    HW246254   2.548   3.263   9.621  0.6076 -0.7207 -0.1298
15226SOL     OW46255   2.812   5.909   8.441  0.6251 -0.0734  0.0809
15226SOL    HW146256   2.737   5.851   8.455  0.3615 -0.4934 -2.5482
15226SOL    HW246257   2.818   5.960   8.521 -1.0306 -1.6188  1.2867
15227SOL     OW46258   8.208   6.674   7.004  0.0553 -0.6438  0.1651
15227SOL    HW146259   8.210   6.746   6.942  1.8251 -0.9931 -0.2276
15227SOL    HW246260   8.211   6.595   6.949  0.7165 -0.9681  0.6552
15228SOL     OW46261   5.970   4.030   5.247  0.5477  0.5174  0.5999
15228SOL    HW146262   6.035   3.989   5.304 -0.4041  1.1180  2.1901
15228SOL    HW246263   6.008   4.025   5.159  1.4587 -1.6872  1.0554
15229SOL     OW46264   3.802   3.985   5.918 -0.0312  0.6207  0.1718
15229SOL    HW146265   3.777   4.040   5.843 -1.9414  0.7262  0.8417
15229SOL    HW246266   3.798   4.044   5.993 -0.4756 -0.0248  0.6714
15230SOL     OW46267   4.262   7.483   8.201 -0.2703  0.3749 -0.1349
15230SOL    HW146268   4.206   7.557   8.178  1.8287  2.0647 -0.1139
15230SOL    HW246269   4.351   7.517   8.194  0.7343 -1.5861  1.8419
15231SOL     OW46270   2.561   3.253   6.637  0.0023  0.0812 -0.7946
15231SOL    HW146271   2.515   3.337   6.634  1.5848  0.9671 -1.4343
15231SOL    HW246272   2.491   3.187   6.635 -1.2726  1.3653 -0.2831
15232SOL     OW46273   0.003   8.043   9.133  0.2693 -0.8534 -0.1390
15232SOL    HW146274   0.050   8.025   9.214  1.7016 -1.2897 -1.0265
15232SOL    HW246275  -0.007   8.138   9.131  2.8884 -0.5163 -0.8231
15233SOL     OW46276   0.264   4.066   3.927 -0.0271  0.4682  0.7558
15233SOL    HW146277   0.200   4.073   3.997 -0.2732 -1.2452  0.7536
15233SOL    HW246278   0.223   4.110   3.852  0.3335  2.5015  1.7001
15234SOL     OW46279   1.129   5.731   7.891 -0.3967 -0.0846  0.0468
15234SOL    HW146280   1.077   5.810   7.900 -0.5593 -0.2320  0.4190
15234SOL    HW246281   1.079   5.677   7.829 -0.7217 -0.2487  0.4436
15235SOL     OW46282   7.128   2.321   1.019 -0.0994  0.2133  0.0554
15235SOL    HW146283   7.161   2.257   1.082 -0.2597 -1.1873 -1.2220
15235SOL    HW246284   7.049   2.280   0.983  0.4350  0.5821 -1.6151
15236SOL     OW46285   1.183   8.461   4.510 -0.4349 -0.0511 -0.0778
15236SOL    HW146286   1.157   8.373   4.536  1.4104 -0.9347 -1.0496
15236SOL    HW246287   1.190   8.457   4.415  0.1145  1.0129 -0.0986
15237SOL     OW46288   8.215   6.407   0.184  0.1368 -0.0290 -0.8056
15237SOL    HW146289   8.176   6.418   0.271  1.7651  0.2871 -0.0819
15237SOL    HW246290   8.271   6.484   0.173  1.1446 -0.8420 -1.4796
15238SOL     OW46291   2.426   9.642   7.102  0.5678 -0.2553 -0.0460
15238SOL    HW146292   2.387   9.557   7.119 -0.3084  0.4406  1.5832
15238SOL    HW246293   2.455   9.673   7.187  1.0217  1.0234 -0.6392
15239SOL     OW46294   9.458   0.841   3.281 -0.4676  0.1026  0.2328
15239SOL    HW146295   9.545   0.840   3.320 -0.3921  0.3433  0.0708
15239SOL    HW246296   9.470   0.806   3.194 -0.1955  1.8402 -0.4782
15240SOL     OW46297   1.167   5.201   9.522 -0.0917 -0.6201  0.3525
15240SOL    HW146298   1.177   5.200   9.427 -1.7915 -0.6321  0.1414
15240SOL    HW246299   1.240   5.254   9.553 -1.1844  2.0622 -1.2365
15241SOL     OW46300   3.268   7.894   8.353 -0.2759  0.0032  0.3147
15241SOL    HW146301   3.221   7.848   8.422  0.5976  1.8619  2.2876
15241SOL    HW246302   3.200   7.926   8.294 -1.4957  1.6522  2.4546
15242SOL     OW46303   8.603   5.548   6.999  0.2337  0.3766  0.3006
15242SOL    HW146304   8.621   5.615   6.934  1.0791  0.2391  0.3844
15242SOL    HW246305   8.524   5.578   7.044  1.0549  1.7299  0.8879
15243SOL     OW46306   5.915   2.664   6.484  0.2437 -0.2501  0.4335
15243SOL    HW146307   5.904   2.752   6.446  1.1865 -0.5688 -0.6443
15243SOL    HW246308   5.826   2.639   6.511 -0.2598  0.5138 -0.4340
15244SOL     OW46309   0.864   3.461   7.643  0.2666 -0.0709 -0.1434
15244SOL    HW146310   0.845   3.551   7.670  0.1009 -0.3940  0.8745
15244SOL    HW246311   0.891   3.417   7.724 -0.1076 -1.0592 -0.5394
15245SOL     OW46312   9.332   7.783   0.791  0.5297  0.4306 -0.0109
15245SOL    HW146313   9.369   7.821   0.871  0.5553  1.4068 -0.4718
15245SOL    HW246314   9.315   7.691   0.813  0.5465  0.6854  1.1069
15246SOL     OW46315   1.982   6.786   0.758 -0.6412 -0.6420  0.4986
15246SOL    HW146316   2.004   6.783   0.851 -0.5039 -1.6798  0.4477
15246SOL    HW246317   1.969   6.694   0.734 -0.9226 -0.3619 -0.4470
15247SOL     OW46318   4.251   3.489   1.272 -0.3070 -0.0635  0.0718
15247SOL    HW146319   4.182   3.469   1.336 -0.2135 -1.9000 -0.3353
15247SOL    HW246320   4.211   3.468   1.187  0.6279 -0.7740 -0.2010
15248SOL     OW46321   9.532   4.058   3.988  0.0350  0.7500 -0.1836
15248SOL    HW146322   9.612   4.006   3.989  0.0134  0.7126 -0.3605
15248SOL    HW246323   9.476   4.015   3.923 -0.7431 -0.1506  1.0297
15249SOL     OW46324   0.599   2.323   8.591  0.0064  0.2437  0.0906
15249SOL    HW146325   0.626   2.290   8.505  0.5970  0.8470  0.0390
15249SOL    HW246326   0.521   2.272   8.613 -0.3435  0.3147 -0.9536
15250SOL     OW46327   0.567   1.108   1.917  0.2727  0.1567 -0.2062
15250SOL    HW146328   0.592   1.074   2.003 -0.5344  1.4680  0.5810
15250SOL    HW246329   0.639   1.165   1.891  0.1181  0.4669  0.0319
15251SOL     OW46330   5.121   0.686   9.005  0.0389 -0.5058  0.2657
15251SOL    HW146331   5.128   0.617   8.938  0.7256 -3.2067  2.9018
15251SOL    HW246332   5.029   0.713   9.001  0.4568  0.9819 -3.0397
15252SOL     OW46333   4.307   2.354   9.482  0.1143  0.4815 -0.6218
15252SOL    HW146334   4.379   2.399   9.438  1.0953 -0.5159 -0.0931
15252SOL    HW246335   4.332   2.351   9.574 -1.3268  1.4274 -0.1582
15253SOL     OW46336   1.536   6.906   3.057 -0.7045  0.5867  0.3655
15253SOL    HW146337   1.599   6.907   2.984 -0.5750 -1.6057  0.3847
15253SOL    HW246338   1.536   6.997   3.089 -0.6800  1.6128 -2.2612
15254SOL     OW46339   3.697   4.683   3.163 -0.0458  0.6959 -0.3309
15254SOL    HW146340   3.727   4.651   3.078  1.2944 -0.3528  0.4840
15254SOL    HW246341   3.609   4.649   3.173 -0.8194  2.0936 -1.9140
15255SOL     OW46342   5.678   4.849   7.100  0.4384  0.2176 -0.5132
15255SOL    HW146343   5.646   4.911   7.166  2.0779 -0.9716  1.5069
15255SOL    HW246344   5.715   4.777   7.150  0.1904 -1.6061 -2.7831
15256SOL     OW46345   5.596   5.082   3.485 -0.3847  0.1214 -0.4414
15256SOL    HW146346   5.557   5.031   3.556 -0.6890 -0.3934 -0.9594
15256SOL    HW246347   5.672   5.125   3.524  0.1693 -1.1245 -0.0869
15257SOL     OW46348   3.510   4.962   2.264 -0.2697  0.6499 -0.4365
15257SOL    HW146349   3.454   4.971   2.341 -0.1059 -1.0537 -0.0840
15257SOL    HW246350   3.553   5.047   2.256 -1.2317  1.2621  0.6023
15258SOL     OW46351   9.148   5.642   8.324 -0.3908 -0.6203  0.2587
15258SOL    HW146352   9.109   5.729   8.332 -0.4625 -0.5962 -0.3380
15258SOL    HW246353   9.239   5.658   8.297  0.2062 -0.6544  2.0842
15259SOL     OW46354   4.491   7.468   4.564 -0.1349  0.1122 -0.3123
15259SOL    HW146355   4.438   7.539   4.599 -1.5073 -0.1059 -1.8297
15259SOL    HW246356   4.451   7.388   4.600  1.5298  0.0242  1.5637
15260SOL     OW46357   7.713   0.764   3.857  0.1818  0.1657 -0.2494
15260SOL    HW146358   7.694   0.684   3.905  1.0421  0.0672 -0.0630
15260SOL    HW246359   7.803   0.753   3.826  0.1652  0.8820 -0.5786
15261SOL     OW46360   3.225   7.152   5.189  0.1680 -0.4986 -0.0189
15261SOL    HW146361   3.158   7.202   5.235 -1.7422 -1.7888 -1.2354
15261SOL    HW246362   3.225   7.066   5.231  1.1335 -0.5077 -0.0001
15262SOL     OW46363   3.496   1.446   6.380  0.3130 -0.5040 -0.1143
15262SOL    HW146364   3.446   1.513   6.334 -1.0280 -0.7073  0.9743
15262SOL    HW246365   3.497   1.371   6.320  0.2276 -0.1332 -0.5811
15263SOL     OW46366   6.675   3.595   9.096  0.6081 -0.5241  0.1244
15263SOL    HW146367   6.696   3.571   9.006  1.6057  0.6811  0.0150
15263SOL    HW246368   6.753   3.640   9.128  0.6954 -1.8749  1.9572
15264SOL     OW46369   6.262   9.488   0.476  0.1891 -0.1784 -0.0507
15264SOL    HW146370   6.248   9.561   0.536 -0.5089  1.7683 -2.3903
15264SOL    HW246371   6.190   9.495   0.413  0.7841 -2.1926 -1.0490
15265SOL     OW46372   0.910   0.959   3.096 -0.2094 -0.2274  0.5000
15265SOL    HW146373   0.940   0.905   3.023  0.0890 -0.1913  0.5929
15265SOL    HW246374   0.909   0.900   3.171  1.3190  0.1737  0.8724
15266SOL     OW46375   0.562   9.609   2.845  0.0541  0.3631  0.3630
15266SOL    HW146376   0.607   9.533   2.883  1.3661  0.5674 -0.6836
15266SOL    HW246377   0.537   9.662   2.920  1.3505  0.0859  1.0297
15267SOL     OW46378   6.246   7.068   5.352  0.4646 -0.1772  0.1422
15267SOL    HW146379   6.213   7.078   5.442  0.4718 -1.3512  0.2872
15267SOL    HW246380   6.270   6.976   5.345  2.0890  0.2547 -0.5228
15268SOL     OW46381   0.740   3.564   6.392  0.2486 -0.2315  0.2303
15268SOL    HW146382   0.771   3.488   6.343  0.5438 -0.2409  0.4300
15268SOL    HW246383   0.744   3.537   6.483 -0.3805 -0.2431  0.2627
15269SOL     OW46384   4.796   2.078   7.364  0.2738 -0.0451  0.4425
15269SOL    HW146385   4.787   2.113   7.275  1.4432  2.8582  1.3760
15269SOL    HW246386   4.884   2.041   7.366 -0.1612 -1.1418  0.1081
15270SOL     OW46387   1.849   6.022   8.727 -0.1416  0.3103 -0.1398
15270SOL    HW146388   1.884   6.105   8.759  0.8146  0.1520 -0.7628
15270SOL    HW246389   1.869   6.021   8.634 -1.0591 -0.1732 -0.3494
15271SOL     OW46390   9.065   5.955   9.390 -0.9578 -0.1734 -0.0340
15271SOL    HW146391   9.024   5.869   9.399 -2.3624  0.4502 -0.2268
15271SOL    HW246392   9.144   5.938   9.339 -0.6617 -1.4981  0.8304
15272SOL     OW46393   5.938   2.689   0.591 -0.1569  0.2837  0.8044
15272SOL    HW146394   5.872   2.718   0.528  1.0964 -2.0848 -1.8109
15272SOL    HW246395   5.897   2.616   0.637  0.3308 -0.8429 -0.4538
15273SOL     OW46396   7.747   4.857   8.738 -0.1064 -0.4108 -0.0918
15273SOL    HW146397   7.721   4.802   8.663  0.7374  0.7797 -1.3021
15273SOL    HW246398   7.697   4.938   8.726  1.1267  0.3543 -0.2040
15274SOL     OW46399   5.745   0.441   1.522  0.0447  0.0424  0.1366
15274SOL    HW146400   5.766   0.351   1.500 -0.3158  0.0494 -0.2385
15274SOL    HW246401   5.654   0.452   1.495 -0.1458  0.2980  0.8618
15275SOL     OW46402   0.779   8.942   9.556  0.1294 -0.2804 -0.0005
15275SOL    HW146403   0.780   8.847   9.564 -0.8184 -0.2842  0.1874
15275SOL    HW246404   0.807   8.974   9.641 -0.8723 -0.3910  0.3836
15276SOL     OW46405   0.908   4.733   6.883 -0.1801  0.0082 -0.2234
15276SOL    HW146406   0.903   4.696   6.795  3.0001 -0.0862 -0.4673
15276SOL    HW246407   0.983   4.792   6.880  0.0609 -0.0478  2.4562
15277SOL     OW46408   0.745   8.884   8.136 -0.1659 -0.2514  0.2454
15277SOL    HW146409   0.731   8.836   8.217  1.3658 -2.0606 -0.4920
15277SOL    HW246410   0.694   8.837   8.070 -0.7135  0.6911 -0.0293
15278SOL     OW46411   4.132   1.587   3.647  0.3119  0.0098  0.1049
15278SOL    HW146412   4.063   1.643   3.680  2.0242  2.7569 -0.6669
15278SOL    HW246413   4.117   1.584   3.552  0.3168 -0.7848  0.1189
15279SOL     OW46414   6.562   2.125   5.003  0.4566 -0.4233 -0.0169
15279SOL    HW146415   6.552   2.185   4.929  3.5057 -0.4896 -0.6172
15279SOL    HW246416   6.626   2.168   5.060  1.9673 -2.5891  0.0343
15280SOL     OW46417   3.056   7.568   3.734 -0.1647 -0.5882 -0.3666
15280SOL    HW146418   3.130   7.618   3.768 -0.4511 -0.3666 -0.0554
15280SOL    HW246419   2.993   7.635   3.708  0.1783 -0.7446 -1.6427
15281SOL     OW46420   9.594   5.077   1.312  0.2296 -0.5307  0.1519
15281SOL    HW146421   9.604   4.984   1.330  0.3508 -0.4551  0.4875
15281SOL    HW246422   9.604   5.119   1.398  0.1602 -0.2120  0.0053
15282SOL     OW46423   0.149   6.537   9.933  0.4545  0.3397 -0.6280
15282SOL    HW146424   0.201   6.458   9.921  2.3453  1.2098  1.3753
15282SOL    HW246425   0.180   6.596   9.865  2.1433  0.8508  0.5524
15283SOL     OW46426   2.707   8.485   7.148 -0.7828  0.0924  0.3758
15283SOL    HW146427   2.783   8.439   7.183 -0.1273  1.4902  0.8608
15283SOL    HW246428   2.733   8.513   7.061 -0.5764  0.9148  0.6915
15284SOL     OW46429   1.871   3.158   0.232  0.4992  0.3158  0.4161
15284SOL    HW146430   1.838   3.116   0.311  1.9134 -0.1418  0.8089
15284SOL    HW246431   1.966   3.158   0.243  0.8377 -0.8836 -1.8297
15285SOL     OW46432   4.096   2.347   2.538  0.0201  0.6184  0.1434
15285SOL    HW146433   4.032   2.288   2.497  1.4516  0.2920 -1.7566
15285SOL    HW246434   4.057   2.369   2.623 -1.6105 -1.2459 -0.0440
15286SOL     OW46435   2.383   0.528   7.292 -0.1274  0.0347 -0.4672
15286SOL    HW146436   2.392   0.614   7.333 -1.2731  1.5016 -3.1063
15286SOL    HW246437   2.470   0.490   7.297 -0.1062  0.2069  2.9449
15287SOL     OW46438   6.985   4.344   1.862 -0.2115  0.5258 -0.6487
15287SOL    HW146439   7.080   4.345   1.847 -0.2954 -0.3382 -1.3935
15287SOL    HW246440   6.975   4.345   1.957  0.7614 -4.2840 -0.2422
15288SOL     OW46441   3.133   3.916   1.133 -0.1586 -0.0903 -0.0874
15288SOL    HW146442   3.160   3.999   1.093  2.3781 -0.8933 -0.1797
15288SOL    HW246443   3.045   3.934   1.167 -0.8091  1.8084 -2.4694
15289SOL     OW46444   3.795   4.560   1.422  0.1402 -0.5450  0.6252
15289SOL    HW146445   3.743   4.560   1.502 -2.5954 -1.0350 -1.0125
15289SOL    HW246446   3.731   4.574   1.352  1.9620 -2.8382 -1.7014
15290SOL     OW46447   4.852   1.633   4.791 -0.2371 -0.8972 -0.3479
15290SOL    HW146448   4.854   1.718   4.747  1.5060 -0.6473  0.1458
15290SOL    HW246449   4.781   1.640   4.854  0.2304  0.4048  0.0605
15291SOL     OW46450   4.715   0.845   2.129 -0.0857  0.4700 -0.4630
15291SOL    HW146451   4.687   0.762   2.168 -2.8181  0.8186 -1.4983
15291SOL    HW246452   4.707   0.909   2.201  0.7764  0.0873 -0.0143
15292SOL     OW46453   2.659   1.216   2.013 -0.3460 -0.5368 -0.3289
15292SOL    HW146454   2.617   1.294   2.049  1.6442  0.4931 -0.1084
15292SOL    HW246455   2.612   1.143   2.053 -0.5423  0.5569  1.5523
15293SOL     OW46456   0.644   0.569   2.256  0.4491  0.1678 -0.5084
15293SOL    HW146457   0.690   0.652   2.272 -1.1690  0.9547  0.3726
15293SOL    HW246458   0.682   0.508   2.318  0.1760  0.8722  0.3830
15294SOL     OW46459   3.807   1.066   2.012  0.3510 -0.3100 -0.4955
15294SOL    HW146460   3.814   1.156   1.979  2.4425 -0.4002 -0.4520
15294SOL    HW246461   3.781   1.076   2.103  0.9771  0.2929 -0.3719
15295SOL     OW46462   2.014   8.696   1.723  0.2132 -0.1382  0.0579
15295SOL    HW146463   2.067   8.635   1.673 -1.7829 -2.1224  0.1887
15295SOL    HW246464   2.032   8.675   1.814 -2.3421 -2.4770  0.1523
15296SOL     OW46465   3.867   0.189   8.364 -0.5152 -0.0732  0.3970
15296SOL    HW146466   3.792   0.216   8.417  0.0815  1.4549  0.4881
15296SOL    HW246467   3.860   0.240   8.284  0.9482  0.8385  0.8071
15297SOL     OW46468   6.315   9.066   1.825  0.1264 -0.2800  0.4603
15297SOL    HW146469   6.386   9.041   1.883  1.1124 -0.3524 -0.7558
15297SOL    HW246470   6.291   9.154   1.855  2.4337  0.8098 -0.6684
15298SOL     OW46471   7.701   8.781   8.292  0.0098 -0.0158  0.2087
15298SOL    HW146472   7.769   8.833   8.335 -0.1872  1.1987 -0.8781
15298SOL    HW246473   7.746   8.737   8.220 -0.2957  0.6959 -0.4393
15299SOL     OW46474   5.475   5.200   7.555 -0.1452 -0.1548  0.3059
15299SOL    HW146475   5.473   5.276   7.614  2.1694 -0.2762  0.6392
15299SOL    HW246476   5.535   5.139   7.597  0.3494 -0.9205 -1.4183
15300SOL     OW46477   4.291   3.436   3.505  0.5016 -0.5017  0.2982
15300SOL    HW146478   4.228   3.438   3.433  0.5716 -0.2496  0.2422
15300SOL    HW246479   4.353   3.368   3.481 -0.4904 -1.6902  0.9836
15301SOL     OW46480   2.347   5.901   5.136  0.2156 -0.6496  0.2693
15301SOL    HW146481   2.408   5.883   5.064 -1.8606  0.5772 -1.9429
15301SOL    HW246482   2.295   5.820   5.144 -1.6177  0.1982 -1.8938
15302SOL     OW46483   4.558   9.694   6.361 -0.2391  0.2538  0.3544
15302SOL    HW146484   4.591   9.624   6.306  1.1218  1.3426 -0.2597
15302SOL    HW246485   4.617   9.696   6.436 -1.4459 -0.5166  1.3557
15303SOL     OW46486   8.857   7.181   7.031 -0.0405 -0.0199 -0.4822
15303SOL    HW146487   8.922   7.182   7.101  0.4106 -1.2529 -0.8564
15303SOL    HW246488   8.835   7.089   7.020  0.2721  0.0871 -2.3019
15304SOL     OW46489   9.645   2.398   6.028 -0.3493  0.3144 -0.0951
15304SOL    HW146490   9.555   2.413   6.055  0.1177 -1.2047  2.7286
15304SOL    HW246491   9.646   2.308   5.994  0.2098  0.0497  0.5929
15305SOL     OW46492   0.213   0.672   9.569  0.2137  0.1716  0.5911
15305SOL    HW146493   0.252   0.587   9.548 -0.1365 -0.0457  0.8171
15305SOL    HW246494   0.258   0.734   9.511 -1.1032 -0.4830 -1.2036
15306SOL     OW46495   5.294   3.614   0.832 -0.2125  0.1663  0.5004
15306SOL    HW146496   5.258   3.602   0.744  1.6121 -0.0862 -0.2693
15306SOL    HW246497   5.293   3.526   0.871  0.0901  0.0540  0.2589
15307SOL     OW46498   6.848   2.416   7.048 -0.0841  0.1873  0.0384
15307SOL    HW146499   6.847   2.476   7.122 -0.8619 -0.3308  0.4572
15307SOL    HW246500   6.812   2.334   7.082  0.1111 -0.2430 -0.7561
15308SOL     OW46501   6.308   5.919   2.367  0.4095  0.2188  0.0426
15308SOL    HW146502   6.381   5.947   2.312  0.9770 -0.3403  0.4785
15308SOL    HW246503   6.298   5.989   2.431  0.2026  0.5510 -0.3534
15309SOL     OW46504   1.777   9.905   7.008 -0.0313  0.0737 -0.1328
15309SOL    HW146505   1.687   9.898   6.975 -0.2159  0.5311  0.2475
15309SOL    HW246506   1.823   9.954   6.941 -0.5287  1.4424  0.4715
15310SOL     OW46507   6.381   0.803   0.710  0.4748  0.4564 -0.3082
15310SOL    HW146508   6.445   0.807   0.639  0.3384 -0.8365 -0.5186
15310SOL    HW246509   6.301   0.839   0.672 -0.0903 -1.7733 -1.3974
15311SOL     OW46510   9.611   4.560   4.131 -0.4870  0.0482 -0.1119
15311SOL    HW146511   9.687   4.505   4.147 -0.0433  0.8557  0.6053
15311SOL    HW246512   9.637   4.617   4.058 -0.7120 -0.2441 -0.4243
15312SOL     OW46513   1.524   0.891   1.561  0.5110 -0.4127 -0.3384
15312SOL    HW146514   1.576   0.960   1.603 -1.5168  0.4222  0.9261
15312SOL    HW246515   1.529   0.818   1.622 -0.8989  0.1616  0.5171
15313SOL     OW46516   8.719   6.981   9.357  0.3224 -0.3111 -0.1305
15313SOL    HW146517   8.803   6.960   9.315  0.4181  0.1802 -0.1990
15313SOL    HW246518   8.743   7.002   9.447  0.0727 -1.7262  0.2861
15314SOL     OW46519   1.157   1.124   3.230  0.2148 -0.2035 -0.3208
15314SOL    HW146520   1.155   1.189   3.159  0.5483  0.2422  0.0764
15314SOL    HW246521   1.224   1.061   3.203 -0.5254 -0.7245 -0.9967
15315SOL     OW46522   6.987   8.073   0.723 -0.2447 -0.3753  0.2933
15315SOL    HW146523   6.998   8.073   0.628  0.5813  0.1237  0.3802
15315SOL    HW246524   6.893   8.083   0.736 -0.2707  0.5752 -0.4787
15316SOL     OW46525   4.046   0.781   3.397 -0.4056 -0.0497 -0.0994
15316SOL    HW146526   3.985   0.794   3.470 -0.9850  0.8270 -0.7374
15316SOL    HW246527   3.991   0.767   3.321  0.1937 -1.9029 -0.2438
15317SOL     OW46528   6.655   3.558   8.585 -0.1099 -0.2000 -0.0630
15317SOL    HW146529   6.721   3.524   8.525 -1.0187 -1.4741 -0.3734
15317SOL    HW246530   6.586   3.492   8.586 -1.7314  1.4029 -0.2953
15318SOL     OW46531   2.060   1.944   9.639 -0.3211  0.8358  0.6856
15318SOL    HW146532   2.034   2.012   9.576  1.2238  0.6114 -0.2503
15318SOL    HW246533   2.057   1.863   9.590  2.3860  0.8357  0.3680
15319SOL     OW46534   8.165   7.444   5.882 -0.3314 -0.1588  0.4308
15319SOL    HW146535   8.190   7.392   5.806 -0.1634 -1.4797  1.3523
15319SOL    HW246536   8.197   7.532   5.863  1.4581 -0.8984 -0.1622
15320SOL     OW46537   7.479   2.816   9.812  0.0778 -0.1608  0.6684
15320SOL    HW146538   7.435   2.775   9.887  1.1577 -1.4504  0.6291
15320SOL    HW246539   7.555   2.761   9.796 -0.1377  0.0662 -1.4107
15321SOL     OW46540   6.481   3.499   8.229 -0.3453 -0.1686 -0.1076
15321SOL    HW146541   6.483   3.524   8.137  0.0699  0.3203  0.0291
15321SOL    HW246542   6.470   3.582   8.276 -0.5907 -0.4178  0.2853
15322SOL     OW46543   3.157   9.581   4.803  0.4690  0.1994 -0.1962
15322SOL    HW146544   3.136   9.650   4.741  0.2314  2.7270  2.4681
15322SOL    HW246545   3.072   9.543   4.826  0.2745  0.9612  0.3771
15323SOL     OW46546   3.814   8.586   8.644  0.1029  0.4297 -0.1178
15323SOL    HW146547   3.725   8.602   8.673 -0.4726 -0.9211 -1.0090
15323SOL    HW246548   3.804   8.537   8.562  1.6596  1.4915 -1.0003
15324SOL     OW46549   2.486   5.882   1.738  0.5571 -0.7640  0.1032
15324SOL    HW146550   2.550   5.870   1.808  1.7035 -0.6909 -0.9037
15324SOL    HW246551   2.457   5.973   1.746 -0.7298 -1.2623  1.6094
15325SOL     OW46552   0.717   8.654   6.932  0.2567 -0.8429 -0.6955
15325SOL    HW146553   0.665   8.575   6.949  0.8939 -1.3717 -1.1328
15325SOL    HW246554   0.748   8.643   6.842 -0.2282  0.2525 -1.0052
15326SOL     OW46555   1.170   7.467   6.071  0.3588  0.1730 -0.2910
15326SOL    HW146556   1.099   7.449   6.009 -1.4709  2.2250  1.0620
15326SOL    HW246557   1.249   7.446   6.022 -1.0423  0.2418 -2.8071
15327SOL     OW46558   0.054   4.384   0.264  0.1124 -0.2303 -0.3344
15327SOL    HW146559   0.070   4.379   0.359  1.8324  3.3513 -0.2717
15327SOL    HW246560   0.003   4.464   0.252  0.7693 -0.0798 -2.5078
15328SOL     OW46561   4.433   4.149   6.597 -0.0904  0.0533 -0.5392
15328SOL    HW146562   4.501   4.217   6.591 -1.2210  1.0894 -2.7612
15328SOL    HW246563   4.437   4.120   6.689  2.1190  1.3181 -0.1451
15329SOL     OW46564   4.502   7.643   2.157 -0.7078 -0.2305 -0.2145
15329SOL    HW146565   4.521   7.549   2.149  0.4904  0.1276 -2.4011
15329SOL    HW246566   4.585   7.686   2.135 -1.3037  1.3657  0.4897
15330SOL     OW46567   0.555   1.139   2.458 -0.3009  0.0560 -0.1700
15330SOL    HW146568   0.558   1.112   2.549 -0.5096  0.6002  0.0025
15330SOL    HW246569   0.517   1.227   2.460  1.0539  0.6734 -0.6390
15331SOL     OW46570   6.161   6.683   3.573 -0.8589  0.2730 -0.3959
15331SOL    HW146571   6.242   6.633   3.580 -1.2142 -0.2680 -0.1271
15331SOL    HW246572   6.135   6.676   3.481 -1.1372 -0.4006 -0.2695
15332SOL     OW46573   8.382   8.258   7.776 -0.0586 -0.3111 -0.2027
15332SOL    HW146574   8.389   8.212   7.859 -0.5341 -0.8649 -0.4648
15332SOL    HW246575   8.333   8.199   7.719 -0.5994  0.4741 -0.5766
15333SOL     OW46576   6.718   7.881   2.709  0.1310 -0.3806  0.1916
15333SOL    HW146577   6.769   7.801   2.714  0.7403 -0.1631 -1.9025
15333SOL    HW246578   6.747   7.933   2.785  1.1059 -1.3259  0.4820
15334SOL     OW46579   1.447   2.444   6.908 -0.8218  0.3166 -0.5936
15334SOL    HW146580   1.535   2.453   6.872 -0.7220  0.5925 -0.2846
15334SOL    HW246581   1.392   2.421   6.833 -0.4013 -0.3716 -0.6999
15335SOL     OW46582   9.316   1.143   3.301 -0.2343 -0.2210  0.2908
15335SOL    HW146583   9.276   1.213   3.250 -1.2564 -1.6910 -1.0365
15335SOL    HW246584   9.375   1.187   3.361  0.7668  1.6316 -1.9231
15336SOL     OW46585   0.099   8.519   9.828  0.3988  0.3529 -0.2107
15336SOL    HW146586   0.011   8.488   9.806  0.1353  1.1339 -0.2836
15336SOL    HW246587   0.086   8.579   9.901  1.0592 -0.7427  0.8466
15337SOL     OW46588   3.088   7.931   8.668 -0.3871  0.2601 -0.0374
15337SOL    HW146589   3.167   7.896   8.626  0.1565 -0.2572  1.3641
15337SOL    HW246590   3.020   7.922   8.602  0.3023 -1.1148 -0.5953
15338SOL     OW46591   2.736   2.241   3.426 -0.1117  0.2073 -0.1857
15338SOL    HW146592   2.660   2.298   3.428 -2.1048 -2.1928 -1.3783
15338SOL    HW246593   2.757   2.232   3.333  0.0219 -1.1004 -0.0538
15339SOL     OW46594   0.581   4.262   7.679  0.1986 -0.4895 -0.2697
15339SOL    HW146595   0.489   4.276   7.658  0.1006 -1.8404 -0.8550
15339SOL    HW246596   0.624   4.254   7.593  0.9850  0.7529 -0.0180
15340SOL     OW46597   7.365   5.889   2.750 -0.5693  0.0360  0.1462
15340SOL    HW146598   7.413   5.814   2.714 -1.7057  0.1910 -1.8262
15340SOL    HW246599   7.376   5.958   2.685 -1.6188  0.7906  0.7433
15341SOL     OW46600   1.985   0.142   7.819  0.2887 -0.0319  0.0739
15341SOL    HW146601   1.919   0.111   7.758  1.7819 -1.1853 -1.0484
15341SOL    HW246602   1.946   0.219   7.861 -1.3041 -0.0237 -1.3338
15342SOL     OW46603   5.107   8.274   4.506 -0.3162 -0.1522 -0.4473
15342SOL    HW146604   5.103   8.299   4.414  0.6776 -0.9544 -0.7189
15342SOL    HW246605   5.031   8.217   4.519  0.1514 -0.9231 -1.0538
15343SOL     OW46606   3.115   8.865   6.058  0.1554 -0.0859 -0.1532
15343SOL    HW146607   3.166   8.900   6.132 -3.1571  0.0665  2.3028
15343SOL    HW246608   3.103   8.772   6.080 -1.0364  0.0098 -0.3125
15344SOL     OW46609   4.910   5.431   4.442  0.5899 -0.3353 -1.0816
15344SOL    HW146610   4.976   5.428   4.373  0.2322 -0.9679 -1.4028
15344SOL    HW246611   4.830   5.398   4.401  0.5559 -1.4695 -0.1729
15345SOL     OW46612   4.484   0.647   0.848  0.3538  0.3949 -0.2602
15345SOL    HW146613   4.454   0.737   0.857 -0.4504  0.2283 -1.1062
15345SOL    HW246614   4.558   0.654   0.787 -0.4150  0.3629 -1.2134
15346SOL     OW46615   1.244   2.321   2.800 -0.1423  0.1283  0.1527
15346SOL    HW146616   1.228   2.357   2.888  0.9073  1.3638 -0.1389
15346SOL    HW246617   1.326   2.273   2.808  0.2379  0.6898 -0.2545
15347SOL     OW46618   9.459   6.896   9.159  0.7251 -0.6056 -0.0823
15347SOL    HW146619   9.425   6.849   9.083  0.4173  1.8201 -1.5534
15347SOL    HW246620   9.381   6.930   9.203  0.9531  2.4017 -1.7461
15348SOL     OW46621   7.773   5.816   0.984  0.3813 -0.0244 -0.2622
15348SOL    HW146622   7.745   5.905   1.005  0.3731 -0.0320 -0.2416
15348SOL    HW246623   7.731   5.762   1.051 -0.1818 -0.1246 -0.6859
15349SOL     OW46624   6.000   7.058   5.834 -0.6192 -0.2865  0.8546
15349SOL    HW146625   5.965   7.033   5.919  0.3734 -1.9712  0.7997
15349SOL    HW246626   5.973   6.989   5.775  0.9743 -0.5573  0.3820
15350SOL     OW46627   5.584   0.326   1.934  0.0667  0.5488 -0.0315
15350SOL    HW146628   5.636   0.249   1.908  0.3915  1.0730 -1.0246
15350SOL    HW246629   5.534   0.347   1.855  0.2045  1.5185  0.1328
15351SOL     OW46630   3.288   0.657   1.125 -0.0920  0.3775  0.3009
15351SOL    HW146631   3.358   0.592   1.116 -0.5173  0.0126 -0.5706
15351SOL    HW246632   3.210   0.613   1.091 -0.6758  0.9019  0.9208
15352SOL     OW46633   1.039   5.330   8.111 -0.0313 -0.5556 -0.3632
15352SOL    HW146634   1.080   5.399   8.163  0.8190 -0.1324 -1.5535
15352SOL    HW246635   0.968   5.374   8.065  0.6503 -0.3922 -1.2960
15353SOL     OW46636   9.270   8.514   3.591 -0.6379  0.4131 -0.2221
15353SOL    HW146637   9.305   8.524   3.679  0.8019  0.0722 -0.7211
15353SOL    HW246638   9.243   8.422   3.587 -1.3792  0.6142  0.0890
15354SOL     OW46639   7.490   3.058   1.433 -0.0627 -0.0981  0.3604
15354SOL    HW146640   7.547   3.134   1.415 -1.0211 -0.0071 -2.8684
15354SOL    HW246641   7.403   3.095   1.442 -0.5811 -0.7630 -1.4924
15355SOL     OW46642   7.802   3.457   9.690  0.0401  0.1757  0.0675
15355SOL    HW146643   7.813   3.551   9.707  0.3726 -0.0583  1.2656
15355SOL    HW246644   7.717   3.436   9.730  0.3581 -0.1947  0.5581
15356SOL     OW46645   4.010   3.898   9.438  0.3821  0.6258 -0.5847
15356SOL    HW146646   4.057   3.818   9.458  1.9544  1.5019 -0.6033
15356SOL    HW246647   3.923   3.885   9.474  0.3626 -1.3623 -1.2247
15357SOL     OW46648   7.205   7.529   1.706 -0.0675  0.4278  0.0016
15357SOL    HW146649   7.189   7.612   1.751  2.0522  2.2420 -2.3245
15357SOL    HW246650   7.299   7.529   1.688 -0.3822 -1.4290 -1.9758
15358SOL     OW46651   5.319   9.690   4.983 -0.1381 -0.5905  0.0208
15358SOL    HW146652   5.361   9.750   5.044 -0.3237  0.4914 -0.8801
15358SOL    HW246653   5.308   9.741   4.903  0.8599 -2.2124 -1.2233
15359SOL     OW46654   6.445   9.689   5.419  0.4184  0.0710  0.5139
15359SOL    HW146655   6.359   9.693   5.461  0.2120  0.4722  0.0668
15359SOL    HW246656   6.487   9.771   5.445  0.7885 -0.2626  0.9812
15360SOL     OW46657   3.154   1.931   7.098  0.3926 -0.4063 -0.2777
15360SOL    HW146658   3.079   1.979   7.063 -0.6050 -0.9324  1.0484
15360SOL    HW246659   3.213   1.999   7.129  1.2063  0.0636 -2.6798
15361SOL     OW46660   2.726   0.057   8.748  0.1070 -0.1627  0.6141
15361SOL    HW146661   2.760  -0.009   8.688 -0.4310  0.0766  0.0251
15361SOL    HW246662   2.642   0.022   8.778  0.3617 -0.2658  1.1985
15362SOL     OW46663   4.362   2.632   7.075  0.4860 -0.1954 -0.1023
15362SOL    HW146664   4.309   2.701   7.036  1.0796  0.4790  0.2776
15362SOL    HW246665   4.340   2.633   7.168  1.8779  0.7722  0.2496
15363SOL     OW46666   3.440   8.822   7.224 -0.0889  0.0392  0.0593
15363SOL    HW146667   3.466   8.780   7.306  0.5122  0.9020  0.3175
15363SOL    HW246668   3.522   8.845   7.181 -0.4061  1.0487 -0.0271
15364SOL     OW46669   9.019   2.911   5.383 -0.2142 -0.0868  0.1160
15364SOL    HW146670   9.087   2.912   5.451 -0.3451  3.9504  0.4122
15364SOL    HW246671   8.937   2.921   5.430 -0.5430  0.2884 -0.5285
15365SOL     OW46672   1.499   7.811   6.211  0.1682  0.6235 -0.0586
15365SOL    HW146673   1.440   7.814   6.136 -1.1174  0.7667  0.9171
15365SOL    HW246674   1.502   7.719   6.237 -0.1882  0.7180  0.3211
15366SOL     OW46675   8.816   1.134   1.350  0.2946  0.1724 -0.2502
15366SOL    HW146676   8.883   1.083   1.395  1.8189  0.4463 -2.0839
15366SOL    HW246677   8.776   1.072   1.288 -0.3976  0.2963  0.0633
15367SOL     OW46678   1.159   8.007   3.238 -0.5177  0.5270 -0.2282
15367SOL    HW146679   1.197   8.094   3.225 -1.4273  0.8052 -1.1183
15367SOL    HW246680   1.207   7.951   3.176  0.2098  0.3368  0.4901
15368SOL     OW46681   7.228   9.584   9.194 -0.0785 -0.1091 -0.4268
15368SOL    HW146682   7.172   9.607   9.268  2.5379  1.9683  1.0868
15368SOL    HW246683   7.200   9.644   9.124 -1.8474 -1.3506 -0.8496
15369SOL     OW46684   9.301   5.975   9.240  0.0329  0.2411 -0.4907
15369SOL    HW146685   9.276   5.894   9.195  0.0531  0.3276 -0.6567
15369SOL    HW246686   9.340   6.029   9.172 -1.3621  0.9967 -0.7200
15370SOL     OW46687   3.600   2.147   1.927 -0.0969  0.2448  0.3310
15370SOL    HW146688   3.513   2.186   1.934 -0.5039 -0.7375  0.9780
15370SOL    HW246689   3.660   2.222   1.923 -0.9715  0.9297 -0.1741
15371SOL     OW46690   9.531   7.050   7.475 -0.1443 -0.1140  0.4550
15371SOL    HW146691   9.562   7.102   7.550 -1.1787 -1.6062  1.9684
15371SOL    HW246692   9.440   7.032   7.494  0.1390 -2.3576 -0.0871
15372SOL     OW46693   0.187   6.705   2.993 -0.6271  0.0320  0.2677
15372SOL    HW146694   0.226   6.628   3.035 -0.2396 -1.4087 -2.4996
15372SOL    HW246695   0.254   6.773   2.999  0.9179 -1.2836 -1.1804
15373SOL     OW46696   8.327   3.223   6.219 -0.3260 -0.0936 -0.0982
15373SOL    HW146697   8.349   3.304   6.266  0.8677 -0.2516 -0.3476
15373SOL    HW246698   8.303   3.252   6.131 -0.0982  0.0143 -0.1265
15374SOL     OW46699   8.865   7.693   9.209  0.1146  0.3044 -0.2847
15374SOL    HW146700   8.953   7.655   9.203 -0.2004 -0.3063 -1.2586
15374SOL    HW246701   8.822   7.640   9.276  0.4321  0.4880  0.0671
15375SOL     OW46702   1.118   4.715   8.584 -0.1942 -0.1452  0.3383
15375SOL    HW146703   1.116   4.727   8.679 -0.1819  1.0225  0.2110
15375SOL    HW246704   1.205   4.748   8.558 -0.6058  0.5586 -0.1844
15376SOL     OW46705   5.214   5.153   3.898  0.0245 -0.3694  0.5547
15376SOL    HW146706   5.121   5.143   3.917  0.3364 -0.0963  2.3513
15376SOL    HW246707   5.239   5.234   3.943  1.1634 -0.5152  0.2150
15377SOL     OW46708   3.523   4.869   6.818 -0.5018  0.3290 -0.4420
15377SOL    HW146709   3.463   4.884   6.745  0.2369 -0.0119 -1.1312
15377SOL    HW246710   3.466   4.851   6.892 -1.2581 -2.1002 -1.5308
15378SOL     OW46711   9.364   6.731   3.829 -1.1328  0.0092 -0.6474
15378SOL    HW146712   9.322   6.817   3.830  0.2852  0.7422 -0.0885
15378SOL    HW246713   9.399   6.722   3.740 -1.3017  0.0061 -0.7130
15379SOL     OW46714   1.088   9.850   0.906 -0.8387  0.1273 -0.2478
15379SOL    HW146715   1.131   9.935   0.910  0.2820 -0.3555 -1.4230
15379SOL    HW246716   1.141   9.794   0.963 -1.1751  0.0418 -0.0163
15380SOL     OW46717   0.209   3.056   2.111  0.0490 -0.5144 -0.0785
15380SOL    HW146718   0.210   3.129   2.173 -1.0571 -0.1405 -0.4716
15380SOL    HW246719   0.227   3.096   2.026  1.5077 -1.0192 -0.0386
15381SOL     OW46720   3.577   0.449   0.971  0.0127  0.7406  0.0703
15381SOL    HW146721   3.643   0.518   0.966  0.1866  0.7538  2.0002
15381SOL    HW246722   3.570   0.429   1.064 -0.9375 -0.9897 -0.3354
15382SOL     OW46723   2.347   1.751   4.812 -0.5981  0.0905  0.1800
15382SOL    HW146724   2.266   1.767   4.765 -0.3575 -0.3251 -0.3810
15382SOL    HW246725   2.415   1.795   4.761 -0.3462 -0.2895  0.1770
15383SOL     OW46726   9.484   2.768   6.819 -0.3340  0.2308 -0.7227
15383SOL    HW146727   9.423   2.698   6.797 -0.3938  0.0865 -0.1090
15383SOL    HW246728   9.520   2.795   6.735  0.6002 -1.3525 -0.8616
15384SOL     OW46729   6.002   0.606   2.949  0.2098  0.2050 -0.5052
15384SOL    HW146730   6.057   0.556   2.890 -1.0001  0.7203 -2.1510
15384SOL    HW246731   5.933   0.545   2.975  0.7273 -0.0145  0.3979
15385SOL     OW46732   9.016   0.511   3.953 -0.4394  0.0340 -0.3704
15385SOL    HW146733   9.096   0.540   3.998 -1.1581  1.4487  0.0414
15385SOL    HW246734   9.046   0.440   3.896  1.1137  0.5448 -0.2431
15386SOL     OW46735   0.570   1.445   5.331 -0.0977 -0.2977  0.5017
15386SOL    HW146736   0.635   1.378   5.310  0.8672  0.4074  1.1476
15386SOL    HW246737   0.552   1.432   5.424 -0.3878 -0.0595  0.4809
15387SOL     OW46738   6.358   8.289   3.568  0.0616 -0.4239 -0.4178
15387SOL    HW146739   6.422   8.249   3.626 -0.9769 -1.0668  0.3166
15387SOL    HW246740   6.308   8.216   3.533 -1.1412  0.1330  0.0698
15388SOL     OW46741   3.715   9.171   3.051  0.3418  0.4683  0.9775
15388SOL    HW146742   3.729   9.257   3.090  0.6169 -0.2016  2.4433
15388SOL    HW246743   3.620   9.166   3.038  0.5304  1.9795 -1.6209
15389SOL     OW46744   1.421   4.631   0.725  0.2613 -0.0893  0.6494
15389SOL    HW146745   1.352   4.690   0.754  1.0276  0.7532  0.7905
15389SOL    HW246746   1.409   4.552   0.778  0.5230  0.7446  1.9827
15390SOL     OW46747   1.700   9.719   9.011  0.6604  0.1860  0.3506
15390SOL    HW146748   1.787   9.680   9.010  0.7531  0.2847  1.9299
15390SOL    HW246749   1.647   9.661   9.066 -0.0783  0.5117  0.0067
15391SOL     OW46750   6.029   9.668   9.208  0.6018  0.0487 -0.1674
15391SOL    HW146751   6.060   9.619   9.284  0.3804  0.0368 -0.0829
15391SOL    HW246752   6.063   9.757   9.220  0.5751  0.0443 -0.0568
15392SOL     OW46753   0.808   2.693   4.765  0.3344  0.6536  0.1790
15392SOL    HW146754   0.888   2.744   4.753 -0.2197  1.4450 -0.2550
15392SOL    HW246755   0.739   2.758   4.774 -0.2366 -0.0172  0.8116
15393SOL     OW46756   8.452   2.843   7.825  0.0891  0.9441  0.4784
15393SOL    HW146757   8.531   2.882   7.862 -0.1716  1.3467  0.6219
15393SOL    HW246758   8.461   2.856   7.730  1.3532 -1.2084  0.2399
15394SOL     OW46759   2.657   8.822   5.901 -0.1676 -0.3979  0.2227
15394SOL    HW146760   2.568   8.809   5.869 -0.3182  0.4969  0.2610
15394SOL    HW246761   2.706   8.849   5.823 -0.0122 -0.5227  0.2776
15395SOL     OW46762   1.642   5.715   5.095 -0.1553 -0.8340  0.0611
15395SOL    HW146763   1.666   5.742   5.006  2.5381  1.5782  1.3294
15395SOL    HW246764   1.580   5.782   5.124  1.5775  0.4129  1.0551
15396SOL     OW46765   4.528   9.196   0.684  0.0753  0.1525 -0.0320
15396SOL    HW146766   4.591   9.124   0.685 -2.2943 -2.0475 -0.1343
15396SOL    HW246767   4.478   9.186   0.765 -0.9533  1.0511 -0.5259
15397SOL     OW46768   8.492   5.681   4.126 -0.5065 -0.3118 -0.0407
15397SOL    HW146769   8.553   5.734   4.075 -0.6140  2.5998  2.5854
15397SOL    HW246770   8.544   5.606   4.154  1.3044  1.0330  0.4034
15398SOL     OW46771   4.493   9.314   7.131  0.6069 -0.2167 -0.0570
15398SOL    HW146772   4.487   9.400   7.090 -0.1319  0.7493  1.9792
15398SOL    HW246773   4.546   9.328   7.209 -1.3640 -1.0742  1.5151
15399SOL     OW46774   7.282   8.687   4.486  0.0055 -0.0217 -0.1879
15399SOL    HW146775   7.300   8.645   4.402 -2.1934 -0.2436 -0.6123
15399SOL    HW246776   7.256   8.616   4.544  1.9932  0.0603  0.9103
15400SOL     OW46777   1.781   8.074   2.268 -0.0820 -0.2835  0.0471
15400SOL    HW146778   1.735   8.149   2.231 -0.9848 -0.4678  0.7616
15400SOL    HW246779   1.859   8.064   2.213  1.8817  3.2129  1.7949
15401SOL     OW46780   3.830   0.123   2.796 -0.1200  0.6382 -0.2384
15401SOL    HW146781   3.767   0.145   2.727  0.5631  5.1309  0.2345
15401SOL    HW246782   3.814   0.190   2.864  1.4323 -1.5743  2.5088
15402SOL     OW46783   3.556   7.739   9.444  0.4120 -0.6737  0.4817
15402SOL    HW146784   3.501   7.815   9.461 -0.0097 -0.9946  0.5643
15402SOL    HW246785   3.524   7.672   9.504  0.2546 -1.1709 -0.1492
15403SOL     OW46786   2.370   7.348   9.860 -0.3679  0.0521 -0.1997
15403SOL    HW146787   2.345   7.264   9.821 -0.5806 -0.4630  0.9952
15403SOL    HW246788   2.337   7.413   9.798 -0.2033 -0.7343 -1.1466
15404SOL     OW46789   4.040   9.894   0.882  0.1090 -0.3783  0.0734
15404SOL    HW146790   4.059   9.801   0.872 -0.1581 -0.5393  0.9524
15404SOL    HW246791   4.094   9.937   0.816  0.7149 -1.1104  0.0752
15405SOL     OW46792   0.684   3.044   8.189  0.0925 -0.4352  0.0802
15405SOL    HW146793   0.748   3.068   8.257  0.6095 -0.1517 -0.4928
15405SOL    HW246794   0.667   3.126   8.143 -0.2587 -0.6283 -0.1336
15406SOL     OW46795   6.350   6.172   6.025  0.2238 -0.3030 -0.1849
15406SOL    HW146796   6.282   6.107   6.004  0.5250 -0.5264 -0.4866
15406SOL    HW246797   6.428   6.119   6.043 -0.3464 -0.2433  3.0184
15407SOL     OW46798   9.765   5.132   1.617 -0.8277  0.0385  0.0576
15407SOL    HW146799   9.714   5.054   1.598  0.1339 -0.3068 -1.2776
15407SOL    HW246800   9.826   5.105   1.686 -1.9846  0.2859  1.2219
15408SOL     OW46801   0.488   3.078   8.907  0.3139  0.0006 -0.3941
15408SOL    HW146802   0.424   3.145   8.932  2.1874  2.5507 -2.0020
15408SOL    HW246803   0.453   3.040   8.827 -0.8965 -1.2532  0.6748
15409SOL     OW46804   0.252   6.047   2.193 -0.2599  0.2282 -0.5223
15409SOL    HW146805   0.314   6.004   2.134 -0.4283 -0.4014 -0.2472
15409SOL    HW246806   0.181   5.984   2.203  0.1687 -0.0526  1.0435
15410SOL     OW46807   2.419   9.395   7.410 -0.0351  0.0657 -0.2962
15410SOL    HW146808   2.329   9.376   7.383 -0.1185 -0.2080  0.1563
15410SOL    HW246809   2.457   9.441   7.336 -0.2806 -0.5872 -0.8395
15411SOL     OW46810   5.633   2.873   0.862  0.5297 -0.6160 -0.8226
15411SOL    HW146811   5.719   2.878   0.820  0.7750 -0.2830 -0.2919
15411SOL    HW246812   5.648   2.821   0.941  0.1845 -0.7910 -0.8712
15412SOL     OW46813   5.088   0.296   6.751 -0.0472  0.0566 -0.2467
15412SOL    HW146814   5.051   0.383   6.765 -1.9805 -0.7496 -0.0842
15412SOL    HW246815   5.182   0.308   6.765 -0.4007  1.8754  0.9630
15413SOL     OW46816   6.445   7.288   8.411  0.1416 -0.4606 -0.2775
15413SOL    HW146817   6.483   7.213   8.455 -1.0233 -1.4854 -0.9617
15413SOL    HW246818   6.393   7.332   8.479 -1.6980 -2.0687 -0.5668
15414SOL     OW46819   2.829   9.260   0.701  0.3035  0.0843 -0.3541
15414SOL    HW146820   2.853   9.283   0.611  0.5491 -0.6894 -0.4937
15414SOL    HW246821   2.772   9.332   0.730 -0.1389  0.1215 -1.2819
15415SOL     OW46822   2.210   5.237   1.292  0.1326  0.3721  0.3844
15415SOL    HW146823   2.160   5.254   1.372  0.6217  0.7324  0.6198
15415SOL    HW246824   2.292   5.285   1.304  0.7713 -0.6536  0.2345
15416SOL     OW46825   4.601   4.752   6.439 -0.3555  0.0139  0.5244
15416SOL    HW146826   4.554   4.793   6.366 -0.5288 -1.3984 -0.2016
15416SOL    HW246827   4.559   4.787   6.517 -0.9389  0.6868 -0.0729
15417SOL     OW46828   4.664   9.759   7.889 -0.5314 -1.0289 -0.2606
15417SOL    HW146829   4.569   9.756   7.902 -0.5656  0.7880  0.0930
15417SOL    HW246830   4.697   9.811   7.962  0.7904 -1.8187 -0.2552
15418SOL     OW46831   7.240   1.748   3.869  0.4636 -0.2134  0.4120
15418SOL    HW146832   7.178   1.786   3.931 -0.7815 -0.4167 -0.6663
15418SOL    HW246833   7.304   1.702   3.924 -0.9650 -0.9445  1.5305
15419SOL     OW46834   5.869   4.302   6.899 -0.2606 -0.2443  0.0865
15419SOL    HW146835   5.920   4.384   6.899 -0.3313 -0.1735  1.3082
15419SOL    HW246836   5.913   4.248   6.965  0.3863 -1.6037 -1.3863
15420SOL     OW46837   9.718   9.401   7.408 -0.5247  0.0206 -0.0239
15420SOL    HW146838   9.778   9.377   7.478  0.9598 -1.0133 -1.5698
15420SOL    HW246839   9.702   9.320   7.360 -0.3313  0.9219 -1.7179
15421SOL     OW46840   1.035   5.756   9.276  0.1732 -0.5588 -0.1446
15421SOL    HW146841   1.021   5.810   9.198 -2.3655  1.0562  1.2694
15421SOL    HW246842   1.022   5.666   9.246 -2.9728  0.1399 -1.2839
15422SOL     OW46843   9.066   3.552   5.614  0.0416  0.3903  0.9427
15422SOL    HW146844   8.994   3.490   5.631 -0.2837  0.1252 -1.1492
15422SOL    HW246845   9.045   3.590   5.529  2.0692  0.8003  0.5877
15423SOL     OW46846   4.668   9.797   6.589 -0.4811  0.0636 -0.1151
15423SOL    HW146847   4.623   9.795   6.673  1.4658 -3.7005  1.0678
15423SOL    HW246848   4.756   9.828   6.609  0.0057 -0.8666 -0.7536
15424SOL     OW46849   9.696   9.297   4.474 -0.0060 -0.0345  0.7082
15424SOL    HW146850   9.763   9.229   4.465 -0.1178  0.0281 -0.7830
15424SOL    HW246851   9.729   9.371   4.423 -0.9399  0.2125  0.4366
15425SOL     OW46852   0.458   3.210   4.979  0.0020 -0.1861 -0.2993
15425SOL    HW146853   0.363   3.223   4.980  0.0711  0.3716  0.5553
15425SOL    HW246854   0.477   3.183   4.890 -1.1580 -1.9557 -0.0641
15426SOL     OW46855   3.944   5.978   0.900 -0.3625  0.3029 -0.2873
15426SOL    HW146856   3.911   5.992   0.989 -1.0500  0.5172 -0.5759
15426SOL    HW246857   3.867   5.958   0.848 -0.0256  0.7023 -0.9506
15427SOL     OW46858   8.875   2.602   2.341 -0.1623 -0.4915  0.6554
15427SOL    HW146859   8.820   2.530   2.311  0.7357 -0.6658 -0.6712
15427SOL    HW246860   8.949   2.560   2.384 -0.5144 -0.2895  1.4762
15428SOL     OW46861   9.437   6.442   4.512  0.0436  0.2777 -0.4439
15428SOL    HW146862   9.363   6.480   4.560  0.4499 -0.3807  0.7525
15428SOL    HW246863   9.396   6.391   4.442 -0.8770 -2.3471  1.8152
15429SOL     OW46864   2.264   2.019   0.223 -0.1025 -0.6146 -0.4780
15429SOL    HW146865   2.294   1.931   0.243  0.6080  0.0420  1.5475
15429SOL    HW246866   2.168   2.014   0.227 -0.0660 -1.2897 -0.4572
15430SOL     OW46867   5.542   3.750   5.886  0.5537 -0.4202 -0.1618
15430SOL    HW146868   5.540   3.696   5.965  1.0031  0.6056  0.5653
15430SOL    HW246869   5.452   3.747   5.853  0.4691 -1.2334  0.1183
15431SOL     OW46870   1.530   4.214   9.790 -0.2552  0.0675  0.5673
15431SOL    HW146871   1.536   4.297   9.741  0.5735  1.1221  2.3698
15431SOL    HW246872   1.535   4.146   9.722 -0.2570  1.4669 -0.8992
15432SOL     OW46873   4.467   0.288   8.196 -0.2644 -0.0157 -0.1211
15432SOL    HW146874   4.527   0.349   8.154  0.1824  0.1945  0.7949
15432SOL    HW246875   4.471   0.311   8.289 -0.6541 -0.9469  0.1373
15433SOL     OW46876   0.773   4.487   5.710 -0.2390  0.1550  0.3261
15433SOL    HW146877   0.765   4.391   5.716 -0.7479  0.2077  0.5071
15433SOL    HW246878   0.828   4.511   5.784 -2.0537  0.2384  1.7058
15434SOL     OW46879   6.383   4.035   0.242  0.8740 -0.0987  0.3387
15434SOL    HW146880   6.392   4.103   0.176  0.6135 -0.8687 -0.5189
15434SOL    HW246881   6.433   4.066   0.317 -0.7972  1.9423  0.7159
15435SOL     OW46882   6.473   1.330   9.082  0.0709  0.2896  0.0661
15435SOL    HW146883   6.445   1.289   9.000 -1.0454 -0.4039  0.7513
15435SOL    HW246884   6.391   1.355   9.125  0.6252  0.4732  1.0519
15436SOL     OW46885   8.996   1.374   8.761  0.1312  0.4250  0.0498
15436SOL    HW146886   8.978   1.320   8.838  0.9245  1.5568  1.0697
15436SOL    HW246887   9.037   1.313   8.698 -1.1741 -0.6697  0.2092
15437SOL     OW46888   6.931   3.026   7.083 -0.1117 -0.2860  0.1449
15437SOL    HW146889   6.870   3.099   7.072 -0.0748 -0.1017  1.0897
15437SOL    HW246890   7.018   3.065   7.071 -0.1597 -0.4958 -0.9332
15438SOL     OW46891   5.100   0.767   9.920 -0.4072 -0.2160 -0.7681
15438SOL    HW146892   5.175   0.796   9.867  1.4165 -3.2014 -0.0839
15438SOL    HW246893   5.067   0.690   9.873 -1.3508 -0.5038  0.3435
15439SOL     OW46894   5.929   1.665   0.100  0.2787 -0.5479  0.0709
15439SOL    HW146895   5.864   1.728   0.129  0.6393 -0.2708  0.2876
15439SOL    HW246896   5.937   1.602   0.172  1.1557  0.1263  0.5896
15440SOL     OW46897   0.390   3.863   7.762 -0.4592  0.5383 -0.3578
15440SOL    HW146898   0.447   3.794   7.728 -1.5711  0.6801 -2.6884
15440SOL    HW246899   0.343   3.822   7.835  0.4286 -0.4808 -0.3367
15441SOL     OW46900   4.649   2.064   5.523  0.1373  0.3944 -0.1650
15441SOL    HW146901   4.623   2.046   5.433  2.2960 -0.3327 -0.7154
15441SOL    HW246902   4.729   2.116   5.515 -0.3580  1.4546  1.3688
15442SOL     OW46903   6.912   7.751   2.986 -0.4395  0.2202 -0.0786
15442SOL    HW146904   6.859   7.756   3.065 -0.1729 -0.0423  0.1179
15442SOL    HW246905   6.868   7.686   2.931 -0.0585 -0.3597  0.2887
15443SOL     OW46906   4.717   7.740   9.748  0.0076  0.1188 -0.3963
15443SOL    HW146907   4.783   7.679   9.715 -1.1559 -0.1714 -2.3050
15443SOL    HW246908   4.660   7.687   9.804 -1.6115 -0.9028 -2.8543
15444SOL     OW46909   6.100   8.375   7.502 -0.0614 -0.6214 -0.0075
15444SOL    HW146910   6.046   8.315   7.450  2.5298 -2.3233 -0.9599
15444SOL    HW246911   6.128   8.322   7.577  1.1889 -0.1911 -0.1500
15445SOL     OW46912   9.414   0.144   0.562  0.0009  0.5732 -0.2790
15445SOL    HW146913   9.462   0.066   0.535 -2.2729 -0.2288 -2.4375
15445SOL    HW246914   9.348   0.112   0.624  1.8422  1.6038  2.3978
15446SOL     OW46915   6.128   9.640   0.657  0.1096 -0.2889 -0.4576
15446SOL    HW146916   6.032   9.646   0.658  0.1767  2.1598  1.1760
15446SOL    HW246917   6.151   9.614   0.747  0.9850  2.0737  0.0868
15447SOL     OW46918   2.315   9.608   8.238  0.3164  0.1958  0.0069
15447SOL    HW146919   2.333   9.528   8.188 -3.1337 -1.0159  0.4089
15447SOL    HW246920   2.368   9.675   8.195  1.3331 -1.7694 -2.0390
15448SOL     OW46921   1.672   1.575   8.170 -0.8233 -0.6838 -0.5295
15448SOL    HW146922   1.627   1.594   8.089  0.7453 -2.5832 -1.9490
15448SOL    HW246923   1.752   1.627   8.166 -0.4535 -1.2329 -0.5293
15449SOL     OW46924   1.046   7.695   7.754  0.3779 -0.4618  0.2215
15449SOL    HW146925   1.133   7.731   7.773  0.0362  0.4175  0.1713
15449SOL    HW246926   1.047   7.681   7.660  0.3876 -0.2352  0.1869
15450SOL     OW46927   3.606   6.372   8.652  0.2790 -0.5147 -0.0879
15450SOL    HW146928   3.617   6.463   8.680  1.9201 -0.8826  0.5797
15450SOL    HW246929   3.516   6.367   8.622 -1.7364  0.0517  4.8752
15451SOL     OW46930   4.726   6.989   3.297 -0.2829  0.1170 -0.4023
15451SOL    HW146931   4.803   6.941   3.267 -0.9200 -1.4654  0.3424
15451SOL    HW246932   4.652   6.934   3.270 -1.0338  0.5102  0.7858
15452SOL     OW46933   2.929   3.763   8.130 -0.6018 -0.2578 -0.0900
15452SOL    HW146934   2.882   3.751   8.047 -3.6197  0.0207  1.4404
15452SOL    HW246935   2.922   3.857   8.147  0.5666 -0.2128  0.2075
15453SOL     OW46936   7.553   6.812   0.836  0.4085  0.4652 -0.3795
15453SOL    HW146937   7.607   6.890   0.849  0.7091  0.0220  1.2499
15453SOL    HW246938   7.599   6.762   0.770  1.0442  0.9459 -0.3102
15454SOL     OW46939   0.235   8.976   1.058  0.1375  0.2071  0.4565
15454SOL    HW146940   0.214   8.924   1.136  0.4441  0.7428  0.8973
15454SOL    HW246941   0.235   9.066   1.088 -0.7358  0.5087 -0.3789
15455SOL     OW46942   2.197   0.973   6.956  0.2581  0.8054 -0.0628
15455SOL    HW146943   2.184   0.887   6.916 -0.9826  1.2145 -0.5587
15455SOL    HW246944   2.247   0.954   7.036 -3.1564 -0.9102  1.9208
15456SOL     OW46945   1.153   2.119   8.035  0.4059  0.1178 -0.2206
15456SOL    HW146946   1.097   2.178   8.087  1.6254 -1.2968  2.9415
15456SOL    HW246947   1.109   2.035   8.039  0.9619 -0.2031 -0.7935
15457SOL     OW46948   8.588   7.140   4.745  0.2283  0.2340 -0.1152
15457SOL    HW146949   8.634   7.145   4.829 -0.8016  0.4040  0.4624
15457SOL    HW246950   8.547   7.054   4.746 -1.5077  1.0193  0.5179
15458SOL     OW46951   1.247   7.146   1.225  0.1240  0.0347 -0.0290
15458SOL    HW146952   1.196   7.158   1.145 -0.5044 -1.0468  0.1967
15458SOL    HW246953   1.279   7.234   1.246 -0.8876  0.5763 -0.6782
15459SOL     OW46954   2.895   7.341   4.471  0.2438 -0.6835 -0.1444
15459SOL    HW146955   2.981   7.332   4.513  0.0618  0.1265  0.4074
15459SOL    HW246956   2.840   7.383   4.536 -0.6132 -1.2967 -0.4612
15460SOL     OW46957   6.886   9.856   0.329  0.3509 -0.7898 -0.2121
15460SOL    HW146958   6.842   9.918   0.271  2.4015 -0.0488 -1.0765
15460SOL    HW246959   6.836   9.859   0.411 -0.3639  1.0351 -0.6757
15461SOL     OW46960   3.464   7.571   7.003  0.0845 -0.1817  0.5869
15461SOL    HW146961   3.374   7.601   6.990  0.6337  0.8862 -0.9904
15461SOL    HW246962   3.480   7.585   7.097 -0.7097  1.6168  0.4938
15462SOL     OW46963   8.665   2.303   3.807  0.0533 -0.0348 -0.1092
15462SOL    HW146964   8.662   2.375   3.871 -1.2644 -1.2255  1.2527
15462SOL    HW246965   8.734   2.245   3.840  0.8581  0.3804 -1.0014
15463SOL     OW46966   0.760   0.323   9.689 -0.3979 -0.4830  0.1129
15463SOL    HW146967   0.690   0.268   9.724 -1.9176  1.2873  0.0330
15463SOL    HW246968   0.718   0.373   9.619  1.3326 -0.3557 -0.8916
15464SOL     OW46969   7.358   8.151   9.652  0.4669 -0.3380  0.2579
15464SOL    HW146970   7.387   8.077   9.706  0.6145  0.4662  1.3231
15464SOL    HW246971   7.350   8.115   9.564  0.4752 -1.6357  0.7621
15465SOL     OW46972   4.146   0.613   3.068  0.2003  0.1722 -0.5566
15465SOL    HW146973   4.176   0.551   3.134  2.2736  0.9919 -0.6387
15465SOL    HW246974   4.094   0.560   3.007  0.0783 -1.0198  0.5415
15466SOL     OW46975   9.685   3.780   2.443  0.0557  0.4600 -0.1220
15466SOL    HW146976   9.712   3.689   2.457 -1.2543  0.2925  1.6877
15466SOL    HW246977   9.685   3.790   2.348  1.5361 -0.9992 -0.3348
15467SOL     OW46978   1.257   7.320   2.047 -0.0640  0.9795  0.0525
15467SOL    HW146979   1.304   7.307   2.130  1.8547 -2.4815 -1.3718
15467SOL    HW246980   1.324   7.349   1.986 -0.5492 -0.2890 -1.1442
15468SOL     OW46981   8.782   4.229   8.195 -0.0589 -0.2537 -0.7168
15468SOL    HW146982   8.760   4.322   8.191  1.1331  0.1820  1.4143
15468SOL    HW246983   8.712   4.189   8.246  1.5086  0.3117  2.0639
15469SOL     OW46984   4.147   7.926   1.569 -0.0583 -0.2278 -0.4640
15469SOL    HW146985   4.178   8.003   1.617 -0.7989  0.0231 -0.3788
15469SOL    HW246986   4.190   7.852   1.611  1.4736  0.2063 -1.2071
15470SOL     OW46987   3.686   0.826   7.144  0.1779  0.3416  0.0797
15470SOL    HW146988   3.705   0.765   7.215 -1.5392 -0.8737 -0.4426
15470SOL    HW246989   3.659   0.770   7.071 -2.4439  1.6864 -0.1081
15471SOL     OW46990   4.002   9.534   4.956 -0.1995 -0.5528 -0.1868
15471SOL    HW146991   4.090   9.540   4.920  0.2534 -1.0681  0.7924
15471SOL    HW246992   3.945   9.562   4.885  0.6829 -1.1179 -1.1448
15472SOL     OW46993   4.266   7.036   6.181 -0.3813 -0.0541 -0.2912
15472SOL    HW146994   4.202   7.040   6.252  0.7922 -0.9174  0.8649
15472SOL    HW246995   4.237   7.103   6.119 -1.3423  0.8513  1.0787
15473SOL     OW46996   9.139   5.466   0.194 -0.5228 -0.1316 -0.4568
15473SOL    HW146997   9.204   5.499   0.256 -0.9677  1.8254 -0.9615
15473SOL    HW246998   9.186   5.403   0.141  0.3479 -0.4542  0.6722
15474SOL     OW46999   2.174   7.174   7.798 -0.4309 -0.1301 -0.7541
15474SOL    HW147000   2.111   7.211   7.859 -0.4986 -0.9065 -0.3487
15474SOL    HW247001   2.152   7.081   7.793  2.3146 -1.0341  1.4768
15475SOL     OW47002   3.465   4.205   6.100  0.1491  0.3056 -0.5536
15475SOL    HW147003   3.455   4.148   6.024 -0.0508 -2.0294  1.1119
15475SOL    HW247004   3.556   4.195   6.126  0.0711  0.6054 -0.1496
15476SOL     OW47005   6.879   4.235   3.672 -0.3209 -0.1843 -0.1256
15476SOL    HW147006   6.872   4.324   3.706  1.1016 -0.0777 -0.0238
15476SOL    HW247007   6.806   4.188   3.711 -0.1276  0.5347  1.1572
15477SOL     OW47008   8.598   4.497   0.048 -0.4228  0.2565 -0.4336
15477SOL    HW147009   8.525   4.519   0.105  0.4489  2.8331 -0.1604
15477SOL    HW247010   8.594   4.561  -0.023  0.4205 -0.8195 -1.5075
15478SOL     OW47011   6.575   5.419   2.903 -0.5199  0.1267  0.8599
15478SOL    HW147012   6.523   5.389   2.978 -1.0669 -1.5043 -0.1061
15478SOL    HW247013   6.655   5.367   2.907  0.2726  1.3602  1.3341
15479SOL     OW47014   5.981   3.895   0.542 -0.1963 -0.5367 -0.0847
15479SOL    HW147015   5.999   3.934   0.456  1.6561  1.8337  1.2537
15479SOL    HW247016   6.054   3.834   0.556  0.5386  0.4507  0.5207
15480SOL     OW47017   8.510   2.087   5.597 -0.1713  0.5314 -1.3151
15480SOL    HW147018   8.504   2.085   5.693 -0.9411 -2.2692 -1.3248
15480SOL    HW247019   8.505   2.180   5.574  0.0705  1.2895  1.3366
15481SOL     OW47020   2.192   3.073   2.809  0.1267 -0.3123  0.0540
15481SOL    HW147021   2.103   3.071   2.774 -0.0940 -1.0753  0.6366
15481SOL    HW247022   2.223   2.982   2.803  0.6465 -0.1662  0.3923
15482SOL     OW47023   3.092   5.895   0.025  0.3429  0.1537  0.0627
15482SOL    HW147024   3.015   5.951   0.019 -0.0700  0.0449  3.0459
15482SOL    HW247025   3.163   5.955   0.047 -0.0896 -0.3367  3.2020
15483SOL     OW47026   5.393   9.656   4.519 -0.2113  0.1374  0.9564
15483SOL    HW147027   5.479   9.620   4.498 -0.4028  0.5543 -0.6496
15483SOL    HW247028   5.346   9.657   4.436 -1.1539  1.5718  1.4631
15484SOL     OW47029   5.594   0.495   9.460  0.3175 -0.1583  0.1558
15484SOL    HW147030   5.629   0.542   9.384 -1.9216 -1.8901 -2.1676
15484SOL    HW247031   5.520   0.548   9.489  0.2958 -0.2006  0.1784
15485SOL     OW47032   0.102   9.235   5.076  0.2591  0.2422 -0.4854
15485SOL    HW147033   0.171   9.222   5.141  0.7811 -0.2920 -1.1301
15485SOL    HW247034   0.087   9.148   5.039  0.8790  0.7214 -1.9725
15486SOL     OW47035   1.408   7.390   1.050 -0.4311  0.6088  0.0204
15486SOL    HW147036   1.368   7.400   0.964 -1.0709  0.3223  0.2850
15486SOL    HW247037   1.362   7.453   1.106 -0.1782  0.6262  0.2156
15487SOL     OW47038   2.185   2.527   1.006  0.1999 -0.0003  0.3475
15487SOL    HW147039   2.132   2.473   0.947  0.0231 -0.2108  0.6946
15487SOL    HW247040   2.121   2.588   1.046  0.0611 -0.7993  1.3923
15488SOL     OW47041   8.114   3.338   2.304 -0.1104 -0.5884  0.1316
15488SOL    HW147042   8.186   3.280   2.327 -0.7162 -1.8780 -1.1255
15488SOL    HW247043   8.154   3.425   2.300  1.1613 -1.1361  0.4111
15489SOL     OW47044   2.413   6.349   8.210  0.1546  0.2058 -0.1327
15489SOL    HW147045   2.425   6.435   8.249  1.9254  0.9360 -2.1147
15489SOL    HW247046   2.324   6.350   8.174  0.1544  1.2116 -0.1151
15490SOL     OW47047   6.090   6.933   1.960  0.1006  0.1497 -0.0676
15490SOL    HW147048   6.097   6.912   2.053 -3.3752 -1.7403 -0.0342
15490SOL    HW247049   6.064   7.025   1.958 -2.9984 -0.5662  1.2057
15491SOL     OW47050   8.356   8.716   8.872  0.3313  0.5145 -0.4780
15491SOL    HW147051   8.298   8.674   8.936  1.6554  1.0005  1.1166
15491SOL    HW247052   8.297   8.769   8.818 -0.6715  2.2972  2.1177
15492SOL     OW47053   0.415   1.266   9.141 -0.0253  0.7518 -0.3038
15492SOL    HW147054   0.376   1.251   9.228  3.9460  0.0212  1.5705
15492SOL    HW247055   0.374   1.347   9.111 -2.4660  0.3816  1.6261
15493SOL     OW47056   7.900   2.925   9.260  0.2328  0.3633 -0.0358
15493SOL    HW147057   7.958   2.853   9.233 -2.0777 -1.2754 -1.0187
15493SOL    HW247058   7.872   2.966   9.178  1.0546  2.0408  0.4905
15494SOL     OW47059   3.215   0.199   2.949  0.0865 -0.6616  0.4932
15494SOL    HW147060   3.129   0.157   2.942 -0.3746  0.3289  0.0061
15494SOL    HW247061   3.267   0.138   3.002 -0.3710 -2.1333 -0.6559
15495SOL     OW47062   4.347   6.831   0.741 -0.1176  0.1211 -0.6540
15495SOL    HW147063   4.253   6.835   0.756 -0.0272 -1.5328  0.4740
15495SOL    HW247064   4.386   6.859   0.824  0.3853 -0.2214 -0.7715
15496SOL     OW47065   5.894   5.491   9.300 -0.1905  0.4778  0.0180
15496SOL    HW147066   5.804   5.495   9.269 -0.7235 -0.5388  1.3491
15496SOL    HW247067   5.941   5.552   9.243 -1.6743  0.9231 -0.7972
15497SOL     OW47068   9.002   1.049   7.529 -0.0944 -0.1064 -0.5625
15497SOL    HW147069   9.074   1.097   7.490  0.2765 -0.6039 -0.4961
15497SOL    HW247070   8.926   1.071   7.474  0.2251 -0.0353 -0.9813
15498SOL     OW47071   0.783   5.613   1.497  0.2228 -1.2600 -1.2064
15498SOL    HW147072   0.787   5.691   1.551 -1.2561 -0.8252 -1.6640
15498SOL    HW247073   0.830   5.635   1.417  0.9751 -1.3272 -0.7901
15499SOL     OW47074   4.425   2.490   0.728  0.0554  0.1813  0.5853
15499SOL    HW147075   4.498   2.550   0.739  0.9915 -0.4984 -1.3623
15499SOL    HW247076   4.382   2.486   0.813  2.9288 -0.2355  2.1106
15500SOL     OW47077   5.402   2.418   0.413  0.0346  0.3949  0.3895
15500SOL    HW147078   5.449   2.454   0.488 -0.9106 -1.9655  2.2278
15500SOL    HW247079   5.466   2.361   0.370  0.1416  0.6303  0.2310
15501SOL     OW47080   4.691   6.235   7.288 -0.0428  0.4738 -0.5184
15501SOL    HW147081   4.621   6.261   7.228  0.9184  1.0897 -1.4008
15501SOL    HW247082   4.767   6.223   7.232  0.3249 -1.2296  0.2859
15502SOL     OW47083   6.774   3.315   7.793 -0.5375 -0.2488  0.3230
15502SOL    HW147084   6.838   3.244   7.788 -2.5982 -2.1957 -0.2254
15502SOL    HW247085   6.690   3.271   7.794 -2.0286  2.2526 -1.9301
15503SOL     OW47086   7.391   7.303   8.385 -0.0261 -0.5220 -0.3711
15503SOL    HW147087   7.322   7.284   8.321 -0.1735 -2.6923  0.3227
15503SOL    HW247088   7.346   7.300   8.470  0.4882  0.4956 -0.0577
15504SOL     OW47089   8.402   5.690   7.144 -0.7759  0.0085 -0.1557
15504SOL    HW147090   8.346   5.744   7.089 -1.7083 -1.4969 -0.7686
15504SOL    HW247091   8.341   5.643   7.201 -0.0226 -0.4694  0.2755
15505SOL     OW47092   4.062   5.034   7.354 -0.1323  0.2276  0.8975
15505SOL    HW147093   4.109   5.088   7.417 -1.4130  2.0731  0.3399
15505SOL    HW247094   4.039   4.955   7.404 -0.4474  1.2915  2.5274
15506SOL     OW47095   8.521   5.532   8.421  0.0190 -0.4553 -0.6436
15506SOL    HW147096   8.485   5.462   8.475  0.1506 -1.4462 -1.7996
15506SOL    HW247097   8.484   5.517   8.334 -0.8367  1.5959 -0.6851
15507SOL     OW47098   0.341   1.100   8.648 -0.0614 -0.0315  0.1365
15507SOL    HW147099   0.252   1.072   8.627 -0.1077  0.4009 -0.2413
15507SOL    HW247100   0.386   1.105   8.563  0.9374 -2.2689  0.4536
15508SOL     OW47101   5.045   8.838   3.683  0.6887  0.4687  0.5214
15508SOL    HW147102   5.083   8.784   3.614 -2.5137  2.2251 -2.9165
15508SOL    HW247103   4.965   8.791   3.709  0.3157  1.2887  0.8968
15509SOL     OW47104   6.172   8.472   0.056 -0.4787 -0.3047 -0.6272
15509SOL    HW147105   6.209   8.406  -0.004 -0.1187  0.0831 -0.8413
15509SOL    HW247106   6.083   8.442   0.072 -0.0892 -1.2467 -0.1270
15510SOL     OW47107   8.047   4.663   9.833  0.1765  0.1452  0.6984
15510SOL    HW147108   7.991   4.735   9.864 -1.1428  1.0530 -3.2090
15510SOL    HW247109   7.994   4.584   9.845 -0.6780  0.5902 -0.0009
15511SOL     OW47110   4.205   1.059   2.409  0.2049 -0.5739  0.5260
15511SOL    HW147111   4.285   1.105   2.434  0.0200 -0.1744  0.4001
15511SOL    HW247112   4.156   1.123   2.357 -0.4925 -0.5862  1.1510
15512SOL     OW47113   5.087   9.503   7.792  0.2500  0.1258  0.1907
15512SOL    HW147114   4.992   9.494   7.783  0.4086 -1.5840 -0.1514
15512SOL    HW247115   5.113   9.555   7.716 -0.5091  1.4896  0.8413
15513SOL     OW47116   5.919   0.727   1.789 -0.2634 -0.2419 -0.1428
15513SOL    HW147117   5.879   0.764   1.868 -0.0344 -0.6310  0.1657
15513SOL    HW247118   5.885   0.637   1.786 -0.4263 -0.1642 -0.5992
15514SOL     OW47119   9.775   5.262   0.298  0.2935  0.4955 -0.1091
15514SOL    HW147120   9.754   5.355   0.293  0.4074  0.5416  0.2858
15514SOL    HW247121   9.700   5.219   0.256  0.7427  0.8156 -1.3017
15515SOL     OW47122   7.167   5.063   3.876  0.1165  0.7118  0.2129
15515SOL    HW147123   7.166   5.046   3.970 -1.8857  0.1954  0.1466
15515SOL    HW247124   7.254   5.098   3.858  0.5419  0.7750  2.2431
15516SOL     OW47125   4.590   7.250   3.782 -0.6258  0.0190 -0.5430
15516SOL    HW147126   4.539   7.328   3.758  0.1078  0.2808 -1.3144
15516SOL    HW247127   4.654   7.241   3.712  3.0261  1.9991  2.2217
15517SOL     OW47128   8.722   5.982   7.783  0.1730  0.4923 -0.4370
15517SOL    HW147129   8.652   5.922   7.756  0.4836  0.8681 -2.2435
15517SOL    HW247130   8.779   5.929   7.839 -0.4797 -0.3989 -0.6031
15518SOL     OW47131   1.546   9.069   0.102  0.4045 -0.2148  0.0441
15518SOL    HW147132   1.461   9.027   0.085  0.0951  0.4909 -0.1738
15518SOL    HW247133   1.610   9.010   0.063 -0.1537  0.4291 -1.9598
15519SOL     OW47134   5.120   2.505   3.120  0.1688 -0.2155  0.3283
15519SOL    HW147135   5.102   2.426   3.070  0.0741 -1.1423  1.7681
15519SOL    HW247136   5.038   2.555   3.117  0.5956  0.4623 -1.6040
15520SOL     OW47137   6.379   6.223   1.842  0.3962 -0.2833  0.4917
15520SOL    HW147138   6.443   6.260   1.781 -0.6190  0.3646 -0.2125
15520SOL    HW247139   6.294   6.250   1.807 -0.2465 -0.5407  1.7920
15521SOL     OW47140   0.312   0.873   9.365  0.1346 -0.3305  0.2669
15521SOL    HW147141   0.229   0.918   9.380 -0.8596 -2.1657  0.6187
15521SOL    HW247142   0.322   0.871   9.270 -0.4331 -0.4437  0.2056
15522SOL     OW47143   2.162   7.153   4.427  0.3987  0.8222 -0.3453
15522SOL    HW147144   2.234   7.091   4.414 -1.6417 -1.8236  0.1483
15522SOL    HW247145   2.123   7.163   4.340 -0.3578 -0.0758 -0.1287
15523SOL     OW47146   2.346   9.351   6.197 -0.4703  0.0693  0.8567
15523SOL    HW147147   2.402   9.375   6.123  0.7120 -2.0693  0.9970
15523SOL    HW247148   2.381   9.400   6.271  1.0807 -1.0134  0.8782
15524SOL     OW47149   6.327   4.524   2.442  0.0055 -0.0296  0.5239
15524SOL    HW147150   6.381   4.535   2.520 -0.0434  2.5426  0.2912
15524SOL    HW247151   6.388   4.530   2.369 -0.2867  0.6494  0.3217
15525SOL     OW47152   9.680   5.012   5.297  0.1942  0.7017 -0.1502
15525SOL    HW147153   9.693   5.107   5.300 -1.3694  0.9324 -0.1900
15525SOL    HW247154   9.620   4.998   5.224  0.7507 -0.3782 -0.4280
15526SOL     OW47155   7.213   8.199   5.982 -0.5330 -0.4855  0.1295
15526SOL    HW147156   7.183   8.228   5.896 -2.3098 -1.7613  0.2674
15526SOL    HW247157   7.219   8.280   6.034  1.7549  0.4718 -1.4533
15527SOL     OW47158   9.452   5.039   0.475 -0.1955 -0.2860 -0.0960
15527SOL    HW147159   9.410   5.054   0.560 -1.9342 -1.0945 -0.7595
15527SOL    HW247160   9.482   5.126   0.447  0.6070 -0.0531  1.4364
15528SOL     OW47161   4.136   7.381   5.704 -0.4363 -0.2747  0.1582
15528SOL    HW147162   4.101   7.395   5.616 -0.6673  0.2452  0.3323
15528SOL    HW247163   4.080   7.313   5.742 -0.1949 -0.6619 -0.1763
15529SOL     OW47164   1.721   8.262   3.572  0.1379 -0.3554  0.2365
15529SOL    HW147165   1.649   8.247   3.511  1.8585  2.0095 -2.6839
15529SOL    HW247166   1.780   8.187   3.559  1.2455  0.8200 -2.4613
15530SOL     OW47167   8.092   1.570   2.253 -0.1395  0.0292  0.3710
15530SOL    HW147168   8.055   1.483   2.267 -0.7096  0.3572  0.9549
15530SOL    HW247169   8.017   1.629   2.256  0.2564  0.5568  0.0949
15531SOL     OW47170   3.024   7.308   2.711  0.5813  0.7054  0.0518
15531SOL    HW147171   2.975   7.265   2.782 -0.0470  1.1250 -0.1244
15531SOL    HW247172   3.095   7.247   2.692  0.5995  0.4575  0.8550
15532SOL     OW47173   7.146   7.847   0.235  0.8266  0.6014  0.3424
15532SOL    HW147174   7.204   7.773   0.221  0.7968  0.8455 -1.2470
15532SOL    HW247175   7.065   7.808   0.270  0.3531 -0.2984 -1.6469
15533SOL     OW47176   9.619   9.320   3.053 -0.2731 -0.0432 -0.0524
15533SOL    HW147177   9.679   9.386   3.089  0.8193 -1.3517  0.6136
15533SOL    HW247178   9.562   9.369   2.994  0.5201  1.4913  0.4038
15534SOL     OW47179   7.725   3.723   1.790 -0.6358  0.0785  0.2231
15534SOL    HW147180   7.789   3.730   1.720 -0.0423 -0.3166  0.7143
15534SOL    HW247181   7.663   3.657   1.761  0.9149 -1.8484  1.0346
15535SOL     OW47182   8.738   5.119   6.823  0.5139 -0.4144 -0.0262
15535SOL    HW147183   8.681   5.061   6.874 -1.0858 -0.3988 -1.7038
15535SOL    HW247184   8.802   5.151   6.886 -0.3896 -1.6642  1.5985
15536SOL     OW47185   1.626   2.002   5.708  0.4955  0.3012 -0.1576
15536SOL    HW147186   1.549   1.950   5.688  0.5037  0.0021  0.5848
15536SOL    HW247187   1.595   2.093   5.709 -0.0124  0.1157  0.9573
15537SOL     OW47188   0.107   8.585   1.270  0.2284 -0.3028  0.4959
15537SOL    HW147189   0.150   8.553   1.350 -0.8313 -1.4671  0.6360
15537SOL    HW247190   0.027   8.533   1.264 -0.6750  1.1281 -0.2833
15538SOL     OW47191   1.696   4.095   1.523 -0.3104 -0.0770  0.6400
15538SOL    HW147192   1.786   4.066   1.504 -0.1758  0.3203  0.6522
15538SOL    HW247193   1.699   4.190   1.512 -0.2939  0.1470  2.3556
15539SOL     OW47194   5.306   7.895   8.167 -0.5933 -0.1261  0.0118
15539SOL    HW147195   5.292   7.976   8.118 -0.8098  0.1295  0.4924
15539SOL    HW247196   5.224   7.880   8.214 -0.3439 -0.2960  0.3987
15540SOL     OW47197   7.023   7.228   5.991 -0.7314 -0.2316  0.4020
15540SOL    HW147198   7.018   7.294   5.922  0.7642 -0.7321 -0.2365
15540SOL    HW247199   7.044   7.278   6.070  0.5048  0.0928 -0.0955
15541SOL     OW47200   7.735   8.733   3.405  0.0386  0.1991 -0.1027
15541SOL    HW147201   7.827   8.712   3.420  0.1437 -0.3223 -1.3951
15541SOL    HW247202   7.735   8.787   3.326 -0.7117  0.7705  0.2742
15542SOL     OW47203   5.497   9.248   3.593  0.3899  0.6281 -0.8483
15542SOL    HW147204   5.438   9.175   3.612  1.1849  0.2392  0.2031
15542SOL    HW247205   5.481   9.268   3.500 -1.2329  0.4105 -0.6388
15543SOL     OW47206   6.229   2.478   8.541 -0.7776  0.1074  0.0915
15543SOL    HW147207   6.209   2.569   8.559 -2.0040  0.5933 -3.0763
15543SOL    HW247208   6.145   2.438   8.517 -0.0028 -1.3765 -0.3166
15544SOL     OW47209   1.231   7.387   7.244 -0.1207  0.0191  0.3949
15544SOL    HW147210   1.215   7.351   7.331  0.2254 -3.6684 -0.8838
15544SOL    HW247211   1.326   7.384   7.234 -0.1845 -0.0639 -0.2678
15545SOL     OW47212   1.044   1.697   2.854  0.2609 -0.3446 -0.1376
15545SOL    HW147213   1.078   1.612   2.883 -0.6501 -0.6564  0.0696
15545SOL    HW247214   1.032   1.688   2.760  0.1351 -0.4622 -0.1110
15546SOL     OW47215   1.741   1.772   0.269 -0.1619 -0.0581  0.2319
15546SOL    HW147216   1.801   1.845   0.252 -0.2125  0.4672  2.0367
15546SOL    HW247217   1.795   1.706   0.312 -0.7128  0.1844  1.3444
15547SOL     OW47218   5.183   5.159   4.436 -0.0515 -0.2238  0.5746
15547SOL    HW147219   5.112   5.149   4.374 -0.6769 -0.4153  1.3093
15547SOL    HW247220   5.148   5.127   4.519  0.6994  0.2059  1.0745
15548SOL     OW47221   2.282   4.114   6.560 -0.0717  0.1506  0.0051
15548SOL    HW147222   2.195   4.086   6.533 -0.9250  0.7340  1.9831
15548SOL    HW247223   2.282   4.209   6.547 -0.0938  0.2820  0.9275
15549SOL     OW47224   1.697   9.753   6.325 -0.1435 -0.9962 -0.2205
15549SOL    HW147225   1.654   9.712   6.400 -1.4130  0.5759 -0.0437
15549SOL    HW247226   1.789   9.761   6.352 -1.1773  3.3490  3.0870
15550SOL     OW47227   0.660   7.001   5.965 -0.0061  0.3894  0.7819
15550SOL    HW147228   0.628   7.015   5.876 -0.5317  1.4747  1.1231
15550SOL    HW247229   0.751   6.972   5.953 -0.8920 -2.2425 -0.1716
15551SOL     OW47230   0.590   0.572   1.237  0.4709  0.0385 -0.3083
15551SOL    HW147231   0.583   0.666   1.216  2.3238  0.1317 -0.6743
15551SOL    HW247232   0.608   0.570   1.331 -1.9001 -0.1031  0.1990
15552SOL     OW47233   8.859   4.768   4.191  0.4748 -0.1495 -0.0874
15552SOL    HW147234   8.802   4.701   4.228 -0.8585  0.3672 -1.1108
15552SOL    HW247235   8.944   4.724   4.180 -0.0741 -1.3387  0.2600
15553SOL     OW47236   0.679   2.046   0.661 -0.1940  0.5933  0.1435
15553SOL    HW147237   0.748   2.081   0.604  1.1223  0.5329  1.6294
15553SOL    HW247238   0.598   2.062   0.613  0.9628 -1.5277 -2.8119
15554SOL     OW47239   2.432   9.452   7.773  0.5533  0.1480 -0.0495
15554SOL    HW147240   2.500   9.483   7.712 -1.5639  3.9224 -0.8037
15554SOL    HW247241   2.370   9.404   7.718 -0.4131  1.9799 -0.6489
15555SOL     OW47242   1.966   0.554   6.730 -0.0773 -1.2915 -0.0971
15555SOL    HW147243   1.924   0.527   6.811 -1.5331 -1.2665 -0.8145
15555SOL    HW247244   1.895   0.557   6.665  0.4665  1.6216 -0.6998
15556SOL     OW47245   9.569   5.523   7.531 -0.3821  0.4322  0.4398
15556SOL    HW147246   9.637   5.552   7.591  2.2078  0.2657 -2.1621
15556SOL    HW247247   9.594   5.435   7.506  0.6243  1.5484 -3.2147
15557SOL     OW47248   8.624   6.601   8.436  0.4870 -0.2240  0.0521
15557SOL    HW147249   8.664   6.585   8.350 -0.5977 -1.4466 -0.2569
15557SOL    HW247250   8.696   6.589   8.498  0.7774 -1.6817 -0.5328
15558SOL     OW47251   0.854   6.418   3.059 -0.7257 -0.8402 -0.1928
15558SOL    HW147252   0.882   6.441   3.147 -1.1096 -1.3636  0.0730
15558SOL    HW247253   0.936   6.406   3.010 -0.5200  0.3697 -0.1667
15559SOL     OW47254   4.016   9.268   6.873  0.2358  0.6054  0.1718
15559SOL    HW147255   4.095   9.238   6.918  1.0459  1.4982 -0.6031
15559SOL    HW247256   3.944   9.232   6.924  1.1428 -0.2922  0.8556
15560SOL     OW47257   6.899   7.307   2.153 -0.8316 -0.7800 -0.2658
15560SOL    HW147258   6.820   7.265   2.186  0.8246 -1.1003  3.9733
15560SOL    HW247259   6.969   7.244   2.170  0.8145  0.9336 -0.3138
15561SOL     OW47260   6.494   2.338   5.213 -0.2825 -0.4486  0.2229
15561SOL    HW147261   6.535   2.394   5.279  0.3183  0.3743 -0.8196
15561SOL    HW247262   6.451   2.269   5.264  0.9336 -0.3619  1.4317
15562SOL     OW47263   8.335   7.010   0.432 -0.3640  0.0887 -0.2293
15562SOL    HW147264   8.364   7.059   0.355 -0.1234  0.0360 -0.1729
15562SOL    HW247265   8.376   7.056   0.506 -0.4915  0.0629 -0.1413
15563SOL     OW47266   6.186   9.877   8.331  0.1075  0.1108  0.3841
15563SOL    HW147267   6.227   9.842   8.410 -0.4962 -0.3604  0.4970
15563SOL    HW247268   6.258   9.888   8.269  0.3906 -0.8687  0.5174
15564SOL     OW47269   2.373   0.880   9.381  0.4253  0.7599  0.3039
15564SOL    HW147270   2.353   0.819   9.452 -0.0706  0.6315  0.0636
15564SOL    HW247271   2.344   0.835   9.302  0.7230  1.0113  0.0481
15565SOL     OW47272   4.490   5.448   5.415 -0.1389  0.1402 -0.1816
15565SOL    HW147273   4.458   5.515   5.475 -0.0918 -0.2318  0.2719
15565SOL    HW247274   4.411   5.409   5.379 -0.1568  0.9289 -1.0092
15566SOL     OW47275   2.298   0.382   1.652  0.3405 -0.1678  0.2773
15566SOL    HW147276   2.221   0.433   1.678 -0.8813 -1.4013 -0.8041
15566SOL    HW247277   2.344   0.439   1.590 -3.0769 -1.6134 -4.0452
15567SOL     OW47278   8.022   2.120   6.415 -0.1061 -0.2409  0.2895
15567SOL    HW147279   7.946   2.100   6.469  0.8275 -0.1625  1.6775
15567SOL    HW247280   8.054   2.204   6.448  0.4603 -0.1598 -0.4264
15568SOL     OW47281   4.756   8.649   9.853 -0.7460 -0.2771 -0.2946
15568SOL    HW147282   4.702   8.699   9.793 -2.1437 -0.3998  0.8237
15568SOL    HW247283   4.789   8.576   9.800 -2.3150 -0.6323 -0.8194
15569SOL     OW47284   9.316   4.819   2.683  0.5128 -0.2466 -0.1269
15569SOL    HW147285   9.273   4.809   2.768  0.1498 -0.5613 -0.3431
15569SOL    HW247286   9.333   4.913   2.675  0.9076 -0.2577  0.4637
15570SOL     OW47287   1.683   1.893   1.178  0.2382  0.3186  0.0379
15570SOL    HW147288   1.613   1.828   1.167  0.9219 -0.3051 -0.8329
15570SOL    HW247289   1.638   1.976   1.191 -0.7025  0.1292 -1.7424
15571SOL     OW47290   4.397   0.074   6.238 -0.2854 -0.2514 -0.7680
15571SOL    HW147291   4.393   0.156   6.287 -0.7792 -0.5051 -0.3796
15571SOL    HW247292   4.458   0.019   6.287 -0.8654 -0.5459 -0.3736
15572SOL     OW47293   6.589   8.136   8.839 -0.4453  0.2780 -0.4100
15572SOL    HW147294   6.651   8.103   8.904  3.8673 -0.3911 -4.3285
15572SOL    HW247295   6.607   8.230   8.835 -1.6745  0.5641  0.1651
15573SOL     OW47296   8.606   3.522   5.052  0.5149  0.5684 -0.0105
15573SOL    HW147297   8.637   3.564   5.132  0.9600 -0.8684  0.6123
15573SOL    HW247298   8.656   3.440   5.047 -1.0662 -0.4126 -0.5754
15574SOL     OW47299   7.598   8.843   9.618 -0.2110  0.2067  0.4033
15574SOL    HW147300   7.664   8.781   9.649 -1.4241 -2.1885 -1.4194
15574SOL    HW247301   7.642   8.894   9.551 -0.0788 -1.2478 -0.6744
15575SOL     OW47302   4.501   5.529   7.463 -0.4135  0.0952  0.0349
15575SOL    HW147303   4.476   5.475   7.388 -0.7299 -0.3883  0.4793
15575SOL    HW247304   4.587   5.565   7.439 -0.5511  0.0275 -0.5934
15576SOL     OW47305   7.627   4.236   8.126  0.0222  0.0821 -0.1294
15576SOL    HW147306   7.683   4.243   8.203 -0.9596 -2.0999  0.8692
15576SOL    HW247307   7.555   4.296   8.143  1.8603  2.8794 -1.4049
15577SOL     OW47308   9.918   3.874   3.424  0.0793 -0.5561  0.2442
15577SOL    HW147309   9.992   3.928   3.451 -0.7448  1.4828 -1.2423
15577SOL    HW247310   9.930   3.863   3.329 -0.9024 -1.1617  0.1754
15578SOL     OW47311   2.987   8.255   0.637 -0.2670  0.3546  0.0057
15578SOL    HW147312   2.982   8.172   0.684  0.1259 -0.2892 -1.0703
15578SOL    HW247313   3.000   8.320   0.706  2.2337 -0.7589  0.6914
15579SOL     OW47314   9.123   2.582   6.980  0.6022 -0.2021  0.4569
15579SOL    HW147315   9.103   2.504   7.031  0.2545  0.4097  1.2909
15579SOL    HW247316   9.215   2.572   6.954  0.0408 -1.7640 -1.0711
15580SOL     OW47317   8.790   7.255   0.552 -0.0675 -0.0109  0.2925
15580SOL    HW147318   8.821   7.235   0.640  1.0504  1.1636  0.1992
15580SOL    HW247319   8.855   7.316   0.517 -0.2191 -0.8129 -1.5259
15581SOL     OW47320   9.822   8.588   7.453 -0.5670 -0.0388  0.1308
15581SOL    HW147321   9.837   8.524   7.522 -0.1047  1.1376  1.1553
15581SOL    HW247322   9.823   8.537   7.372 -1.0349 -1.4292  0.9760
15582SOL     OW47323   5.102   5.467   4.248  0.0762 -0.7635 -0.5843
15582SOL    HW147324   5.140   5.555   4.250 -1.6767  0.1153 -2.3210
15582SOL    HW247325   5.177   5.408   4.236  1.2661  0.4888  0.4335
15583SOL     OW47326   2.831   5.393   1.634 -0.4201 -0.0185 -0.1042
15583SOL    HW147327   2.738   5.401   1.652 -0.4509  0.9258 -0.6154
15583SOL    HW247328   2.868   5.355   1.714 -1.0591  0.7392  0.5652
15584SOL     OW47329   3.748   5.642   4.498  0.7864  0.2418 -0.1512
15584SOL    HW147330   3.716   5.692   4.573  0.4324  0.1273 -0.2224
15584SOL    HW247331   3.841   5.631   4.514  0.4918 -0.8921  0.9337
15585SOL     OW47332   3.906   4.403   4.581  0.1879  0.5396  0.3429
15585SOL    HW147333   3.945   4.488   4.559 -0.0603  1.0976  1.9102
15585SOL    HW247334   3.840   4.388   4.514  0.6297  1.3168 -0.2771
15586SOL     OW47335   3.031   8.883   4.321 -0.1711 -0.1613 -0.5376
15586SOL    HW147336   2.961   8.832   4.362  0.5406 -0.5283  0.2551
15586SOL    HW247337   3.018   8.870   4.227 -1.7240  0.5424 -0.4520
15587SOL     OW47338   2.159   0.235   7.059 -0.1828 -0.3223 -0.4527
15587SOL    HW147339   2.210   0.179   7.117 -0.0960 -0.3927 -0.5948
15587SOL    HW247340   2.133   0.310   7.113  0.2960 -0.1544 -0.4530
15588SOL     OW47341   2.409   4.133   2.592  0.1721  0.1719  0.0102
15588SOL    HW147342   2.387   4.102   2.680 -0.1879 -0.1213 -0.1824
15588SOL    HW247343   2.505   4.134   2.591  0.1772  0.2905  0.4447
15589SOL     OW47344   9.917   5.763   6.227 -0.1942 -0.0342 -0.4500
15589SOL    HW147345   9.969   5.739   6.304  0.8604 -1.0763 -1.4462
15589SOL    HW247346   9.967   5.833   6.186  0.1199 -0.6148 -1.0736
15590SOL     OW47347   2.792   9.692   0.337 -0.0111 -0.4933  0.3519
15590SOL    HW147348   2.789   9.597   0.347  2.6700 -0.7874 -0.6834
15590SOL    HW247349   2.824   9.724   0.421 -0.4352 -0.5456  0.5351
15591SOL     OW47350   3.252   5.897   4.952  0.3628 -0.0492  0.0491
15591SOL    HW147351   3.195   5.869   4.881  0.8851  0.5981 -0.6452
15591SOL    HW247352   3.247   5.826   5.016 -1.4089  0.1207  0.1324
15592SOL     OW47353   3.938   1.627   6.151  0.8171 -0.0169 -0.3069
15592SOL    HW147354   3.888   1.580   6.084 -2.1131  1.4901  0.6593
15592SOL    HW247355   3.940   1.566   6.225  0.5891 -0.1647 -0.4190
15593SOL     OW47356   1.526   1.068   9.066 -0.0554  0.4445 -0.3984
15593SOL    HW147357   1.571   1.127   9.127  0.4863 -0.7618  0.4092
15593SOL    HW247358   1.445   1.044   9.111 -0.7708  1.3537 -1.1673
15594SOL     OW47359   4.163   1.680   8.362 -0.1763 -0.1734  0.3962
15594SOL    HW147360   4.092   1.734   8.397 -1.1639 -0.1614 -1.4930
15594SOL    HW247361   4.134   1.590   8.377 -1.1321 -0.1826 -1.2770
15595SOL     OW47362   7.618   2.874   5.069  0.3748 -0.1201  0.0198
15595SOL    HW147363   7.582   2.949   5.116 -0.2317  0.1808 -0.9144
15595SOL    HW247364   7.656   2.911   4.989  1.1897 -0.6586  0.1458
15596SOL     OW47365   9.254   2.725   1.814 -0.2873 -0.0558 -0.1053
15596SOL    HW147366   9.293   2.695   1.731 -1.0502 -0.7937 -0.2156
15596SOL    HW247367   9.191   2.792   1.788 -0.9863 -0.7344 -0.1998
15597SOL     OW47368   9.890   0.515   3.762 -0.7926  0.1320 -0.0137
15597SOL    HW147369   9.818   0.575   3.783 -0.1568  0.7324  0.4822
15597SOL    HW247370   9.902   0.525   3.667 -2.3697 -1.1257 -0.3865
15598SOL     OW47371   4.545   5.195   4.559  0.4994  1.0765  0.1993
15598SOL    HW147372   4.605   5.128   4.594  1.7252  0.7372 -2.3055
15598SOL    HW247373   4.459   5.154   4.561  0.9187  0.1906  0.6000
15599SOL     OW47374   2.568   0.398   0.099 -0.0568  0.1028  0.4880
15599SOL    HW147375   2.590   0.457   0.172 -1.0206  0.3128  0.6141
15599SOL    HW247376   2.536   0.319   0.141  2.4862 -1.1083  0.3674
15600SOL     OW47377   6.295   6.844   1.805 -0.0942 -0.0307  0.2930
15600SOL    HW147378   6.271   6.751   1.813 -1.3341  0.3034  0.8548
15600SOL    HW247379   6.223   6.890   1.848  0.3354  1.2154 -0.2802
15601SOL     OW47380   6.092   2.554   3.262  0.4189  0.2414  0.0455
15601SOL    HW147381   6.042   2.635   3.251  0.9550  0.5654 -0.1031
15601SOL    HW247382   6.171   2.582   3.309  1.0386 -0.0264 -0.8196
15602SOL     OW47383   7.301   6.932   2.808 -0.6345  0.4436  0.4494
15602SOL    HW147384   7.270   6.963   2.723  2.8302 -1.3087 -1.6703
15602SOL    HW247385   7.353   7.005   2.843 -0.0912  0.3320 -0.1125
15603SOL     OW47386   2.479   9.351   7.108 -0.2674 -0.1626 -0.1813
15603SOL    HW147387   2.549   9.304   7.152 -1.1315 -0.9500  0.3972
15603SOL    HW247388   2.404   9.291   7.111 -0.7814  0.3833 -1.3775
15604SOL     OW47389   6.042   7.662   9.654 -0.0081  0.0209  0.0621
15604SOL    HW147390   6.063   7.739   9.706  0.8356  0.6988 -1.2113
15604SOL    HW247391   5.950   7.645   9.672 -0.3083  1.5547  0.1107
15605SOL     OW47392   1.746   3.326   1.001 -0.5214  0.4874 -0.1869
15605SOL    HW147393   1.701   3.294   1.079 -0.9464  3.0037  0.6846
15605SOL    HW247394   1.829   3.278   0.999 -0.9331 -0.3131  1.2487
15606SOL     OW47395   6.417   4.266   1.788 -0.1616 -0.6534 -0.9256
15606SOL    HW147396   6.489   4.210   1.817  1.0187  1.9696  1.7814
15606SOL    HW247397   6.436   4.284   1.696  3.1472  0.4893 -0.1585
15607SOL     OW47398   6.444   1.252   4.719 -0.6379  0.4552 -0.2272
15607SOL    HW147399   6.452   1.196   4.796  0.2614  1.2756  0.2936
15607SOL    HW247400   6.396   1.329   4.749 -1.5329  0.1538 -0.8444
15608SOL     OW47401   4.692   9.234   5.768  0.0813  0.5669 -0.1319
15608SOL    HW147402   4.603   9.224   5.801 -0.7386  3.1483 -1.3484
15608SOL    HW247403   4.727   9.145   5.768 -1.1896 -0.1576  3.7272
15609SOL     OW47404   3.650   9.156   0.743  0.1460 -0.5732  0.3915
15609SOL    HW147405   3.712   9.210   0.792  0.0793  0.2679 -0.4143
15609SOL    HW247406   3.695   9.135   0.661 -0.3796 -0.4953  0.0739
15610SOL     OW47407   4.444   2.050   3.686 -0.0599  0.1015  0.0715
15610SOL    HW147408   4.470   2.141   3.676  0.7058 -0.1834 -0.6748
15610SOL    HW247409   4.410   2.024   3.600  1.5098 -0.8308 -0.3234
15611SOL     OW47410   8.185   9.949   2.730  0.3691 -0.6864  0.1405
15611SOL    HW147411   8.107   9.974   2.780 -0.9781 -1.7889 -1.3233
15611SOL    HW247412   8.240   9.904   2.793  0.2027  0.7455  1.3841
15612SOL     OW47413   6.121   3.167   2.704 -0.2135  0.0033  0.3981
15612SOL    HW147414   6.130   3.170   2.800 -0.0863 -1.7028  0.4601
15612SOL    HW247415   6.027   3.166   2.689 -0.2537  1.4051  0.4356
15613SOL     OW47416   0.204   4.390   6.344 -0.3896 -0.4135  0.4399
15613SOL    HW147417   0.298   4.384   6.362 -0.5616 -0.5720  1.3447
15613SOL    HW247418   0.199   4.437   6.261  0.5254 -1.4195 -0.2055
15614SOL     OW47419   2.188   1.715   8.992 -0.7337 -0.2633 -0.7655
15614SOL    HW147420   2.230   1.698   9.077 -1.8672 -1.6845 -0.4541
15614SOL    HW247421   2.209   1.807   8.973  1.7592 -0.6527 -0.2336
15615SOL     OW47422   2.056   4.755   7.592 -0.0850  0.2813  0.1241
15615SOL    HW147423   1.988   4.747   7.659  1.2975  1.0167  1.6685
15615SOL    HW247424   2.059   4.849   7.572  0.7651  0.3132  0.3808
15616SOL     OW47425   3.691   3.206   0.773 -0.6337 -0.4209 -0.3322
15616SOL    HW147426   3.614   3.262   0.781  0.5466  1.4029 -1.1913
15616SOL    HW247427   3.732   3.233   0.691  0.9858 -1.2526  0.1741
15617SOL     OW47428   0.523   9.249   0.369  0.3069 -0.1234 -0.0694
15617SOL    HW147429   0.446   9.253   0.426  0.2585  1.4977 -0.1833
15617SOL    HW247430   0.598   9.259   0.429  0.3130  0.3562 -0.1491
15618SOL     OW47431   0.420   6.961   2.664 -0.2650 -1.0300  0.2148
15618SOL    HW147432   0.367   6.921   2.596 -0.1029  0.6143 -0.9490
15618SOL    HW247433   0.378   7.045   2.681  2.2255  0.6410 -1.2232
15619SOL     OW47434   8.834   5.342   9.838  0.5718  0.2893  0.0451
15619SOL    HW147435   8.850   5.339   9.743 -2.2027  3.1970 -0.7130
15619SOL    HW247436   8.877   5.423   9.867  0.0842  0.2349  0.9551
15620SOL     OW47437   2.809   5.217   1.116 -0.2423  0.0294  0.6258
15620SOL    HW147438   2.830   5.297   1.165  0.2456  0.6950 -0.6135
15620SOL    HW247439   2.728   5.185   1.157 -0.9674  1.6804  0.5908
15621SOL     OW47440   3.608   0.139   1.627  0.9548 -0.8709 -0.0391
15621SOL    HW147441   3.651   0.115   1.710  1.0922  0.3576  0.2569
15621SOL    HW247442   3.680   0.152   1.566  1.0775  1.4139  0.5160
15622SOL     OW47443   6.976   1.034   9.608 -0.0753 -1.1903 -0.5290
15622SOL    HW147444   6.978   0.940   9.590 -0.7054 -1.1110 -1.0603
15622SOL    HW247445   6.915   1.070   9.543  1.9026 -0.0755 -1.8836
15623SOL     OW47446   0.843   5.292   5.753 -0.3830 -0.2242  0.0517
15623SOL    HW147447   0.871   5.296   5.845 -0.4037 -0.3735  0.0650
15623SOL    HW247448   0.889   5.364   5.711  2.2745 -2.1044 -0.5306
15624SOL     OW47449   2.124   5.613   7.399  0.4689 -0.2341  0.0518
15624SOL    HW147450   2.039   5.625   7.440  1.3064 -2.1248  2.5771
15624SOL    HW247451   2.159   5.702   7.391 -1.4415  0.5284 -0.5454
15625SOL     OW47452   0.365   6.767   4.396 -0.3382 -0.0230  0.1830
15625SOL    HW147453   0.408   6.688   4.429 -1.0389  0.3430  2.1124
15625SOL    HW247454   0.429   6.807   4.338  0.7767 -0.9922  0.7028
15626SOL     OW47455   9.173   9.285   9.169 -0.1378 -0.1160  0.1740
15626SOL    HW147456   9.207   9.247   9.087 -2.3125  0.6887 -1.1708
15626SOL    HW247457   9.227   9.363   9.183 -1.2125  1.0842 -1.8575
15627SOL     OW47458   0.842   5.618   8.692 -0.3846  0.1741  0.0705
15627SOL    HW147459   0.770   5.679   8.680 -0.7464  0.3061  2.3873
15627SOL    HW247460   0.894   5.655   8.764  1.2847 -0.5615 -0.6998
15628SOL     OW47461   0.934   3.358   7.891 -0.1266  0.5419 -0.3610
15628SOL    HW147462   1.015   3.311   7.874 -0.9813 -0.5724 -1.5458
15628SOL    HW247463   0.919   3.348   7.985  0.9269  0.4767 -0.1936
15629SOL     OW47464   3.402   8.540   4.923 -0.5154 -0.2105 -0.0198
15629SOL    HW147465   3.435   8.627   4.901 -1.2749 -0.1308 -0.9415
15629SOL    HW247466   3.334   8.556   4.989 -0.4485 -0.1357  0.0312
15630SOL     OW47467   3.513   3.805   2.895  0.1674 -0.4358  0.1851
15630SOL    HW147468   3.422   3.778   2.886  0.3271 -0.9720  0.1299
15630SOL    HW247469   3.562   3.742   2.842  0.5981 -0.3305  0.4521
15631SOL     OW47470   2.740   9.524   1.822 -0.3751 -0.7857 -0.3873
15631SOL    HW147471   2.811   9.569   1.776 -0.2897  0.8733  1.2347
15631SOL    HW247472   2.670   9.589   1.826 -0.2310 -0.6853  2.1016
15632SOL     OW47473   2.099   1.812   4.688 -0.1719 -0.4166 -0.7706
15632SOL    HW147474   2.140   1.731   4.657 -1.6650 -1.6518  0.3312
15632SOL    HW247475   2.033   1.833   4.621  1.6225  1.1808 -2.1793
15633SOL     OW47476   9.095   2.474   4.882 -0.0218  0.2640  0.2427
15633SOL    HW147477   9.130   2.396   4.839 -0.4901 -1.1290  2.2531
15633SOL    HW247478   9.036   2.440   4.950 -1.1992  2.4098  0.3863
15634SOL     OW47479   4.410   3.442   4.232  0.1454 -0.2596  0.0768
15634SOL    HW147480   4.354   3.482   4.299  2.0220  1.7722  0.5584
15634SOL    HW247481   4.378   3.478   4.149  0.7211  0.9484  0.3555
15635SOL     OW47482   1.613   8.670   5.575  0.0175 -0.0332 -0.2293
15635SOL    HW147483   1.523   8.673   5.607 -0.0715 -1.2813 -0.3271
15635SOL    HW247484   1.636   8.577   5.577  0.4702 -0.0204 -2.5232
15636SOL     OW47485   1.116   0.554   4.013  0.1310  0.4415  0.4651
15636SOL    HW147486   1.149   0.540   3.925 -0.3350  2.0734  0.0017
15636SOL    HW247487   1.161   0.633   4.044 -0.4174  0.4382  1.3212
15637SOL     OW47488   2.913   6.796   9.686 -0.8475 -0.1902 -0.3696
15637SOL    HW147489   2.936   6.720   9.632 -1.3009 -0.3771 -0.3061
15637SOL    HW247490   2.867   6.855   9.626 -2.2511 -0.8431  0.0376
15638SOL     OW47491   4.901   4.174   1.005 -0.3731  0.5010  0.0012
15638SOL    HW147492   4.901   4.125   1.088 -1.2864  0.8189  0.2083
15638SOL    HW247493   4.898   4.107   0.937 -0.0281  0.2432  0.2381
15639SOL     OW47494   9.650   3.012   8.750 -0.0655 -0.7072  0.5279
15639SOL    HW147495   9.641   3.003   8.845 -1.7474 -1.8735  0.3121
15639SOL    HW247496   9.577   2.960   8.714 -0.2480  0.7414 -1.3756
15640SOL     OW47497   7.681   7.296   8.950 -0.0942  0.1034  0.7350
15640SOL    HW147498   7.768   7.273   8.982 -0.2206  0.7894  1.6136
15640SOL    HW247499   7.681   7.391   8.945 -0.4296  0.0548 -0.3392
15641SOL     OW47500   7.349   0.482   7.972 -0.6694 -0.3506  0.6240
15641SOL    HW147501   7.327   0.515   7.885  0.8153 -0.1607  0.2897
15641SOL    HW247502   7.365   0.560   8.024  2.2871 -0.4130 -0.0169
15642SOL     OW47503   1.737   0.921   3.380 -0.0678 -0.6587 -0.5011
15642SOL    HW147504   1.678   0.856   3.418  1.0336 -0.8910  0.8621
15642SOL    HW247505   1.727   0.998   3.436 -0.2235 -0.1454 -1.2077
15643SOL     OW47506   9.826   1.157   5.357 -0.1794  0.1232 -0.1385
15643SOL    HW147507   9.824   1.232   5.417  0.0679 -0.0327  0.0642
15643SOL    HW247508   9.739   1.117   5.365 -0.1224  0.0631  0.1648
15644SOL     OW47509   0.687   6.428   3.414 -0.9165 -0.2675  0.0339
15644SOL    HW147510   0.699   6.366   3.485 -1.0437  1.7508  1.9195
15644SOL    HW247511   0.775   6.453   3.388 -0.8632  0.4817  0.8956
15645SOL     OW47512   3.044   7.273   8.644 -0.2937  0.2200  0.3697
15645SOL    HW147513   3.080   7.211   8.708 -1.4437 -0.5723  0.2728
15645SOL    HW247514   2.996   7.336   8.697  0.1421  0.5252  0.4032
15646SOL     OW47515   6.568   1.892   5.219  0.1631 -0.1456  0.5484
15646SOL    HW147516   6.499   1.932   5.166 -0.8582 -2.0685  0.2938
15646SOL    HW247517   6.536   1.899   5.309 -0.3196 -0.8460  0.4490
15647SOL     OW47518   2.659   2.046   9.607  0.0683  0.3311 -0.3616
15647SOL    HW147519   2.690   1.957   9.623  0.2284  0.0909 -1.8293
15647SOL    HW247520   2.569   2.046   9.637  0.1773 -0.2260 -0.0191
15648SOL     OW47521   4.035   9.496   2.955 -0.1304  0.1161 -0.0431
15648SOL    HW147522   4.067   9.406   2.953 -1.2538 -0.2978 -0.1365
15648SOL    HW247523   4.081   9.537   3.028  2.1699  0.1795 -1.4154
15649SOL     OW47524   8.750   0.757   8.378 -0.3584 -0.4112  0.4296
15649SOL    HW147525   8.719   0.805   8.301  0.7212  0.4489  0.5047
15649SOL    HW247526   8.818   0.813   8.415 -0.3355 -1.1681  1.5838
15650SOL     OW47527   1.638   8.752   4.160 -0.3016 -0.1813  0.5049
15650SOL    HW147528   1.721   8.782   4.197 -1.1739  2.1428  0.7065
15650SOL    HW247529   1.581   8.738   4.236 -1.0581  1.3718  0.2615
15651SOL     OW47530   4.450   6.232   2.803  0.3167  0.3881 -0.0790
15651SOL    HW147531   4.455   6.137   2.799 -1.0684  0.2774  0.4723
15651SOL    HW247532   4.503   6.255   2.879  0.4884  0.0551 -0.0942
15652SOL     OW47533   9.313   9.464   5.877 -0.1967 -0.0849 -0.1536
15652SOL    HW147534   9.404   9.464   5.846  0.3151  0.8352  1.2556
15652SOL    HW247535   9.320   9.442   5.970 -1.4444 -0.1628 -0.0675
15653SOL     OW47536   9.142   0.504   7.585  0.8185  0.3046  0.0890
15653SOL    HW147537   9.144   0.595   7.616  0.2258 -0.5580  2.9464
15653SOL    HW247538   9.074   0.504   7.517 -0.4833  1.7035  1.3015
15654SOL     OW47539   6.577   4.976   9.991  0.4550 -0.0158 -0.0763
15654SOL    HW147540   6.555   4.884  10.003 -0.7163  0.1627 -0.6923
15654SOL    HW247541   6.520   5.005   9.920  1.5258  0.9334 -0.5760
15655SOL     OW47542   5.640   6.962   3.524  1.2933  0.6764 -0.1312
15655SOL    HW147543   5.615   7.050   3.495  0.6609  0.9692  1.2299
15655SOL    HW247544   5.608   6.956   3.614 -2.8504 -2.5289 -1.4665
15656SOL     OW47545   0.962   2.016   1.487  0.1446 -0.3020 -0.2165
15656SOL    HW147546   0.896   2.033   1.554 -0.4133  0.0303 -0.8316
15656SOL    HW247547   1.024   2.088   1.497 -0.9497  0.8548 -1.2612
15657SOL     OW47548   0.501   7.281   6.974 -0.1373 -0.3744 -0.0444
15657SOL    HW147549   0.506   7.269   6.880 -0.2905 -0.4832 -0.0389
15657SOL    HW247550   0.534   7.370   6.989 -0.0728 -0.3738 -0.1955
15658SOL     OW47551   5.662   1.722   4.687 -0.5713  0.1664  0.2796
15658SOL    HW147552   5.587   1.733   4.629 -0.3352 -0.0031 -0.0638
15658SOL    HW247553   5.633   1.757   4.771 -1.1809 -0.2899  0.2680
15659SOL     OW47554   2.216   8.132   6.447 -0.2599  0.1046  0.3127
15659SOL    HW147555   2.202   8.083   6.529 -0.6727 -2.3359 -1.0959
15659SOL    HW247556   2.128   8.141   6.410  0.1449 -1.3608 -1.1439
15660SOL     OW47557   1.954   4.625   9.663 -0.2808 -0.3906 -0.3728
15660SOL    HW147558   2.028   4.667   9.618 -0.1662 -2.1556 -1.9433
15660SOL    HW247559   1.884   4.690   9.660  0.6568  0.6411 -0.4445
15661SOL     OW47560   9.081   4.465   1.951  0.1138  0.2201 -0.3564
15661SOL    HW147561   9.075   4.460   2.046  0.1375  3.3185 -0.0839
15661SOL    HW247562   9.060   4.377   1.921  0.1326 -0.8634  2.4975
15662SOL     OW47563   9.899   3.775   9.151  0.1069  0.2636  0.7441
15662SOL    HW147564   9.821   3.813   9.111  1.9973  1.4012 -2.1830
15662SOL    HW247565   9.955   3.851   9.171  1.3141 -0.6223  0.8238
15663SOL     OW47566   7.742   7.671   1.704 -0.4230  0.7360  0.1538
15663SOL    HW147567   7.780   7.757   1.686 -1.1028  0.8964 -0.5330
15663SOL    HW247568   7.648   7.682   1.691 -0.4916 -0.1763 -0.2054
15664SOL     OW47569   2.948   2.719   6.553 -0.0898  0.1774  0.1404
15664SOL    HW147570   2.976   2.742   6.642  1.0607 -0.5180 -0.0227
15664SOL    HW247571   3.013   2.655   6.523 -0.0065  0.9828 -1.5018
15665SOL     OW47572   2.849   9.871   0.577 -0.4536 -0.2130  0.5157
15665SOL    HW147573   2.813   9.826   0.653  1.7428 -2.6118  0.2653
15665SOL    HW247574   2.911   9.934   0.612 -0.7732 -0.0211  0.7418
15666SOL     OW47575   6.266   2.201   7.293 -0.4404  0.4870  0.4943
15666SOL    HW147576   6.283   2.190   7.386 -1.3784  0.5107  0.6760
15666SOL    HW247577   6.353   2.212   7.254 -0.0985  1.7161  1.5303
15667SOL     OW47578   4.814   1.877   8.771 -0.3528 -0.1586  0.2632
15667SOL    HW147579   4.819   1.785   8.795 -2.6059 -0.7020 -1.0594
15667SOL    HW247580   4.867   1.923   8.837  3.5065 -2.6110 -0.7901
15668SOL     OW47581   1.916   1.964   9.122 -0.1625  0.5552 -0.2285
15668SOL    HW147582   1.923   2.000   9.033  0.4265  0.0048 -0.4135
15668SOL    HW247583   1.827   1.986   9.149 -0.5569  0.2086 -1.1902
15669SOL     OW47584   7.192   6.066   7.034  0.3667 -0.3191 -0.6508
15669SOL    HW147585   7.199   6.110   6.950  0.0092 -2.1966 -1.7269
15669SOL    HW247586   7.099   6.044   7.041 -0.0323  1.6180  1.2616
15670SOL     OW47587   0.428   8.747   4.437 -0.6339  0.7602  0.2556
15670SOL    HW147588   0.487   8.779   4.506 -1.0806 -0.5643  1.2868
15670SOL    HW247589   0.458   8.792   4.358  1.5632  0.3729  0.7871
15671SOL     OW47590   2.437   3.694   3.894 -0.4552  0.5106 -0.4513
15671SOL    HW147591   2.528   3.711   3.917 -0.5101 -0.4359  0.5424
15671SOL    HW247592   2.431   3.715   3.801  1.0341 -0.4170 -0.7853
15672SOL     OW47593   7.787   7.859   0.467 -0.1454 -0.2910  0.1495
15672SOL    HW147594   7.790   7.771   0.430  0.7801  0.5135 -1.8455
15672SOL    HW247595   7.879   7.887   0.470 -0.3890  0.4424  1.1867
15673SOL     OW47596   3.871   5.204   7.694 -0.1408 -0.2533 -0.1655
15673SOL    HW147597   3.823   5.126   7.723  0.2506 -0.8656 -1.1278
15673SOL    HW247598   3.962   5.174   7.686  0.2106  0.5906  0.5013
15674SOL     OW47599   4.234   7.244   7.588 -0.1475  0.3734  0.2731
15674SOL    HW147600   4.172   7.234   7.516 -0.6139 -0.0310  0.7173
15674SOL    HW247601   4.200   7.185   7.657  0.7768  0.0807  0.4911
15675SOL     OW47602   7.601   2.696   7.970  0.1449 -0.0566 -0.1211
15675SOL    HW147603   7.634   2.611   7.942 -0.2053 -0.7867  1.5423
15675SOL    HW247604   7.676   2.754   7.967  0.4214 -0.4605 -1.1474
15676SOL     OW47605   2.746   2.342   2.845  0.1951  0.2347  0.2291
15676SOL    HW147606   2.832   2.299   2.852  0.1823  0.2549  0.5431
15676SOL    HW247607   2.758   2.426   2.888  0.4660  0.9391 -1.1671
15677SOL     OW47608   6.511   9.005   5.967  0.1264  0.0791 -0.5117
15677SOL    HW147609   6.501   9.042   5.879  0.4130 -0.6418 -0.8582
15677SOL    HW247610   6.501   8.910   5.954  1.1897 -0.1263  0.0767
15678SOL     OW47611   1.776   0.524   5.645 -0.3136  0.4178  0.5073
15678SOL    HW147612   1.681   0.511   5.644 -0.2772 -0.0300  1.4601
15678SOL    HW247613   1.797   0.542   5.736  0.7149 -1.1843  0.6291
15679SOL     OW47614   7.111   9.110   8.084  0.1456 -0.4408 -0.1796
15679SOL    HW147615   7.104   9.188   8.139  0.1352 -0.7520  0.2684
15679SOL    HW247616   7.150   9.141   8.003 -1.1149  0.2859 -0.5357
15680SOL     OW47617   9.618   0.288   8.292  0.0265 -0.2176  0.1951
15680SOL    HW147618   9.647   0.359   8.351 -1.1420  0.0311  0.5012
15680SOL    HW247619   9.678   0.216   8.311  1.6120  0.8555 -0.5339
15681SOL     OW47620   6.305   4.229   1.075 -0.1069  0.4416 -0.1679
15681SOL    HW147621   6.360   4.274   1.011 -0.0645  0.6687  0.0265
15681SOL    HW247622   6.366   4.203   1.144 -0.0472 -0.3468 -0.5047
15682SOL     OW47623   1.152   2.601   3.390 -0.1134 -0.0556 -0.4674
15682SOL    HW147624   1.214   2.664   3.426 -1.0798  0.1329  0.9601
15682SOL    HW247625   1.149   2.531   3.456 -0.0165 -0.9781 -1.4189
15683SOL     OW47626   6.011   0.635   9.104  0.0908 -0.3137  0.8104
15683SOL    HW147627   6.032   0.681   9.186 -0.5288  4.6628 -1.4875
15683SOL    HW247628   6.070   0.673   9.039 -2.6089 -0.4766 -1.9475
15684SOL     OW47629   1.302   1.763   7.273 -0.0874 -0.0498  0.0936
15684SOL    HW147630   1.250   1.709   7.332  0.4122  0.6939  1.2386
15684SOL    HW247631   1.329   1.838   7.326 -0.8498  1.4013 -1.4673
15685SOL     OW47632   9.255   9.230   7.787  0.3418  0.1073 -0.2355
15685SOL    HW147633   9.288   9.219   7.698  0.0362  1.9281 -0.6066
15685SOL    HW247634   9.203   9.310   7.784 -0.2751 -0.1887  1.4251
15686SOL     OW47635   6.409   5.381   6.839  0.5455 -0.1710  0.1359
15686SOL    HW147636   6.436   5.378   6.931 -0.6851 -1.7339  0.4928
15686SOL    HW247637   6.361   5.463   6.831  0.7166  0.0120  0.8764
15687SOL     OW47638   3.556   6.222   7.800 -0.5118  0.6824 -0.7800
15687SOL    HW147639   3.568   6.184   7.713  1.2846 -0.7522  0.0323
15687SOL    HW247640   3.628   6.186   7.852 -0.7158  2.5987  0.9543
15688SOL     OW47641   3.492   1.795   0.135 -0.0993  0.5667  0.4796
15688SOL    HW147642   3.482   1.869   0.195  0.6094 -0.0266  1.3448
15688SOL    HW247643   3.585   1.774   0.138 -0.3955 -0.7829  0.7802
15689SOL     OW47644   7.915   7.082   6.102  0.4571  0.1431 -0.5242
15689SOL    HW147645   7.925   7.169   6.062  0.4191 -0.1108 -1.0899
15689SOL    HW247646   7.942   7.095   6.193  1.7293  0.4629 -0.9232
15690SOL     OW47647   1.615   2.052   9.615  0.0714  0.1884 -0.5413
15690SOL    HW147648   1.661   2.083   9.537  0.5164 -0.6663 -0.6254
15690SOL    HW247649   1.523   2.048   9.587  0.4068 -1.5469 -1.5171
15691SOL     OW47650   4.693   2.075   4.767  0.0979  0.6713 -0.0613
15691SOL    HW147651   4.710   2.060   4.674  1.0304  0.7242  0.0923
15691SOL    HW247652   4.675   2.169   4.774  0.4845  0.7483 -0.1181
15692SOL     OW47653   5.553   5.981   4.881 -0.3455  0.7200  0.2673
15692SOL    HW147654   5.601   5.955   4.960 -1.8948  2.0725  1.7635
15692SOL    HW247655   5.558   6.077   4.881 -0.7900  0.7647 -1.0156
15693SOL     OW47656   1.761   9.602   5.380 -0.2373 -0.6186  0.4424
15693SOL    HW147657   1.827   9.632   5.444 -0.8527  1.0483  0.3451
15693SOL    HW247658   1.751   9.676   5.320  0.5203 -2.2380 -1.8047
15694SOL     OW47659   4.383   8.050   4.668  0.5171  0.5044  0.2924
15694SOL    HW147660   4.437   8.066   4.591  0.4848  0.5418  0.2775
15694SOL    HW247661   4.354   7.959   4.658 -1.7944  1.3139 -1.1899
15695SOL     OW47662   7.020   5.578   7.841  0.2027  0.1813  0.2901
15695SOL    HW147663   7.004   5.621   7.756 -0.5451  1.0515  0.8518
15695SOL    HW247664   6.947   5.517   7.851  1.2602 -1.2767 -0.5029
15696SOL     OW47665   8.518   8.319   0.194  0.3962  0.1556 -0.3358
15696SOL    HW147666   8.582   8.259   0.156  1.3258 -0.0740  1.4429
15696SOL    HW247667   8.435   8.272   0.189  1.0672 -1.2544  0.8528
15697SOL     OW47668   8.007   5.267   2.364 -0.2480 -0.1841  0.9646
15697SOL    HW147669   8.087   5.247   2.316 -1.2300  0.0811 -0.9211
15697SOL    HW247670   8.034   5.323   2.436  1.2320 -0.0309  0.3167
15698SOL     OW47671   4.935   0.366   4.498  0.2244  0.2613  0.2501
15698SOL    HW147672   5.007   0.424   4.475 -0.4704  1.6600  1.4223
15698SOL    HW247673   4.940   0.358   4.593 -0.1452 -1.0372  0.1808
15699SOL     OW47674   7.732   5.759   9.800  0.1000  0.0558 -0.2592
15699SOL    HW147675   7.705   5.846   9.832 -1.8506 -0.4217 -0.4585
15699SOL    HW247676   7.726   5.766   9.705  1.0225  0.0039 -0.3302
15700SOL     OW47677   4.911   1.122   8.154  0.1307  0.4302  0.6417
15700SOL    HW147678   4.917   1.194   8.091 -1.2110  0.6638  0.7509
15700SOL    HW247679   4.999   1.084   8.154  0.7433  1.7581  0.2254
15701SOL     OW47680   5.601   4.057   7.370  0.0913  0.0690 -0.2445
15701SOL    HW147681   5.645   4.103   7.441  0.0223 -0.5689  0.2134
15701SOL    HW247682   5.659   3.985   7.348  0.8795  1.1452 -1.9122
15702SOL     OW47683   0.723   7.271   5.419  0.0153 -0.2694 -0.1391
15702SOL    HW147684   0.805   7.312   5.391 -0.6932  0.2942 -1.4963
15702SOL    HW247685   0.725   7.274   5.514  0.8714  1.1386 -0.1851
15703SOL     OW47686   1.831   4.814   0.506 -0.0951  0.3824 -0.3747
15703SOL    HW147687   1.796   4.726   0.497 -0.0800  0.4809 -1.5324
15703SOL    HW247688   1.757   4.866   0.540 -0.0110 -0.1193  0.6108
15704SOL     OW47689   6.832   7.253   5.101 -0.2264  0.1242  0.2202
15704SOL    HW147690   6.918   7.215   5.120  1.6058  2.6590 -2.1602
15704SOL    HW247691   6.810   7.220   5.014 -1.1384  0.4290  0.3217
15705SOL     OW47692   7.622   8.669   0.961  0.4008 -0.0384 -0.1564
15705SOL    HW147693   7.530   8.641   0.965  0.5894 -0.6419  0.1241
15705SOL    HW247694   7.629   8.740   1.025  0.0073  0.3821 -0.5727
15706SOL     OW47695   2.720   2.784   6.264  0.1696  0.1467  0.0416
15706SOL    HW147696   2.765   2.702   6.242 -1.4614 -1.0434  0.8689
15706SOL    HW247697   2.668   2.804   6.186 -0.4183 -0.3222  0.3111
15707SOL     OW47698   3.792   3.724   5.490  0.2685 -0.6015 -0.0966
15707SOL    HW147699   3.698   3.736   5.476  0.0520  0.4026  1.9181
15707SOL    HW247700   3.802   3.629   5.500 -0.5404 -0.6995 -0.1287
15708SOL     OW47701   4.733   8.658   9.212  0.3350 -0.3137 -0.0390
15708SOL    HW147702   4.735   8.751   9.188 -1.0748  0.3523  2.1461
15708SOL    HW247703   4.654   8.624   9.171 -0.0061 -0.1286  0.4512
15709SOL     OW47704   9.162   2.531   4.616  0.0704  0.4190  0.2098
15709SOL    HW147705   9.229   2.597   4.596 -0.5185  1.2864  1.0216
15709SOL    HW247706   9.135   2.551   4.705 -0.2509 -0.8311  0.4047
15710SOL     OW47707   6.165   5.501   0.588  0.1856 -0.8486 -0.0793
15710SOL    HW147708   6.106   5.431   0.563  0.2791 -1.4653  1.3251
15710SOL    HW247709   6.160   5.504   0.684  1.7345 -0.3175  0.0215
15711SOL     OW47710   7.838   0.088   4.048  0.1893  0.3821  0.1384
15711SOL    HW147711   7.780   0.131   3.986  1.1428 -0.9046 -1.7354
15711SOL    HW247712   7.782   0.023   4.092 -0.2172  0.4515 -0.2708
15712SOL     OW47713   4.122   7.368   4.621 -0.0985  0.0825  0.3774
15712SOL    HW147714   4.164   7.432   4.564  0.2456 -0.0579  0.4690
15712SOL    HW247715   4.031   7.398   4.628 -0.4239 -0.5051 -1.1099
15713SOL     OW47716   3.365   6.283   5.344  0.0153  0.7030 -0.9666
15713SOL    HW147717   3.364   6.221   5.271  2.0402  1.0591 -1.3542
15713SOL    HW247718   3.428   6.350   5.317  0.0805  1.3587  0.7084
15714SOL     OW47719   1.513   3.803   2.965  0.0818 -0.1904 -0.3887
15714SOL    HW147720   1.553   3.721   2.935 -1.2328 -0.7514 -0.6847
15714SOL    HW247721   1.550   3.818   3.052  0.4871 -1.0020 -0.4155
15715SOL     OW47722   7.580   4.822   7.781  0.2062  1.1289 -0.4846
15715SOL    HW147723   7.494   4.864   7.788  0.4638  1.4266  1.5578
15715SOL    HW247724   7.561   4.729   7.771 -0.3973  1.0974  0.7103
15716SOL     OW47725   1.527   1.529   7.584  0.0174 -0.8487  0.1201
15716SOL    HW147726   1.470   1.598   7.618  0.9194  0.0338 -0.1067
15716SOL    HW247727   1.559   1.483   7.661 -0.1985 -0.6975  0.2999
15717SOL     OW47728   3.075   1.272   3.003 -0.6252  0.3534  0.1549
15717SOL    HW147729   3.118   1.356   3.019 -0.1552  0.1513 -0.0132
15717SOL    HW247730   2.986   1.284   3.035 -0.0155  0.2952  2.0141
15718SOL     OW47731   3.124   2.479   3.565 -0.0640  0.4612  0.5220
15718SOL    HW147732   3.046   2.497   3.513  0.2174 -0.3851 -0.2169
15718SOL    HW247733   3.116   2.386   3.587  0.7481  0.3688  0.4287
15719SOL     OW47734   6.596   0.435   4.543  0.0578  0.6444 -0.2119
15719SOL    HW147735   6.592   0.520   4.498  1.1330  0.5006 -0.6006
15719SOL    HW247736   6.524   0.439   4.606  0.0176  1.7999 -0.2995
15720SOL     OW47737   7.301   5.517   5.907  0.4003  0.0748  0.0556
15720SOL    HW147738   7.224   5.495   5.961 -1.7900  2.6355 -1.7581
15720SOL    HW247739   7.376   5.488   5.959 -1.7005 -0.9171  2.7685
15721SOL     OW47740   0.118   5.621   8.250 -0.1326 -0.0702  0.4236
15721SOL    HW147741   0.084   5.676   8.321 -1.6491 -0.4595  0.0380
15721SOL    HW247742   0.097   5.669   8.170  1.6354  0.4024  0.2152
15722SOL     OW47743   9.491   1.619   0.944 -0.9058 -0.1783 -0.2385
15722SOL    HW147744   9.504   1.624   1.039  1.6667 -0.6374 -0.5093
15722SOL    HW247745   9.485   1.525   0.926 -1.9880 -0.0748 -0.4963
15723SOL     OW47746   0.402   3.598   3.291 -0.1789 -1.2425  0.0497
15723SOL    HW147747   0.414   3.504   3.275 -2.9050 -2.1964  2.6369
15723SOL    HW247748   0.471   3.620   3.354  0.1964 -1.6063 -0.2240
15724SOL     OW47749   9.617   1.478   7.922  0.1727  0.1119 -0.1519
15724SOL    HW147750   9.561   1.410   7.884 -1.2312  0.5848  0.9853
15724SOL    HW247751   9.591   1.481   8.014  0.8437  1.5654  0.0107
15725SOL     OW47752   3.384   8.252   9.335 -0.1614 -0.4944 -0.1447
15725SOL    HW147753   3.396   8.164   9.371  0.2739 -0.1679  0.5298
15725SOL    HW247754   3.294   8.276   9.358  0.7449  0.5708  2.7468
15726SOL     OW47755   2.237   6.507   4.474  0.6095  0.7473  0.4633
15726SOL    HW147756   2.221   6.601   4.473 -0.5957  0.5714  1.0717
15726SOL    HW247757   2.275   6.490   4.560  1.4466  0.7598  0.1031
15727SOL     OW47758   5.408   5.605   6.132 -0.0502  0.5892  0.5425
15727SOL    HW147759   5.433   5.517   6.105 -1.2135  0.0347  1.2125
15727SOL    HW247760   5.464   5.624   6.207 -0.3379  0.1049  0.8838
15728SOL     OW47761   2.643   2.825   2.805  0.1593 -0.0206  0.6095
15728SOL    HW147762   2.582   2.789   2.869 -0.9290  1.9223  0.7460
15728SOL    HW247763   2.700   2.883   2.856 -0.3003  1.0451 -0.0563
15729SOL     OW47764   4.556   1.087   5.612  0.3215  0.2308 -0.0056
15729SOL    HW147765   4.528   1.156   5.672  0.7510  2.1056 -1.8663
15729SOL    HW247766   4.495   1.015   5.630  0.7583  0.4668  3.0029
15730SOL     OW47767   7.583   3.401   3.270 -0.8173 -0.1037  0.5048
15730SOL    HW147768   7.618   3.463   3.334 -0.1124  1.2565 -1.1089
15730SOL    HW247769   7.636   3.416   3.192 -2.2075 -1.0894 -0.6659
15731SOL     OW47770   1.387   1.455   2.677  0.7092  0.0405  0.0101
15731SOL    HW147771   1.314   1.395   2.691  0.5840  0.3899  0.9169
15731SOL    HW247772   1.409   1.488   2.764  1.9885 -0.0973 -0.2364
15732SOL     OW47773   2.879   7.666   2.355 -0.0625  0.1622  0.3799
15732SOL    HW147774   2.925   7.608   2.416  3.7020  0.4502 -1.8723
15732SOL    HW247775   2.883   7.752   2.397 -0.4813 -0.1795  1.1498
15733SOL     OW47776   8.619   4.445   1.146 -0.0323 -0.2512  0.0826
15733SOL    HW147777   8.553   4.463   1.213 -0.1485  1.2577 -0.3937
15733SOL    HW247778   8.617   4.522   1.090  1.5149 -0.5743 -0.4628
15734SOL     OW47779   3.989   1.697   5.703  0.3340  0.0764  0.0205
15734SOL    HW147780   3.986   1.754   5.626 -0.2274 -0.0012 -0.0198
15734SOL    HW247781   3.900   1.701   5.739  0.1699 -1.0897 -0.2201
15735SOL     OW47782   5.741   6.255   8.964 -0.3170  0.1836  0.4539
15735SOL    HW147783   5.675   6.186   8.969  1.0079 -1.3296 -1.5549
15735SOL    HW247784   5.787   6.238   8.882  2.1895  1.5308  1.4883
15736SOL     OW47785   9.482   4.053   4.914  0.0578  0.2261  0.6049
15736SOL    HW147786   9.461   4.127   4.971  0.0512 -0.0438  0.9582
15736SOL    HW247787   9.562   4.078   4.869  0.5459  0.0858  1.3818
15737SOL     OW47788   8.735   3.342   7.270 -0.4452 -0.5058 -0.5479
15737SOL    HW147789   8.758   3.431   7.245 -0.2989 -0.7568 -1.3415
15737SOL    HW247790   8.781   3.287   7.207  0.0590 -1.1782  0.3783
15738SOL     OW47791   9.859   2.383   3.664 -0.2331  0.4446 -0.4401
15738SOL    HW147792   9.791   2.451   3.663 -0.9993 -0.2723  0.5391
15738SOL    HW247793   9.810   2.301   3.670  0.7034 -0.1555 -0.8432
15739SOL     OW47794   3.685   7.568   6.819 -0.1083  0.0239  0.1562
15739SOL    HW147795   3.646   7.528   6.741 -0.0382  0.1755  0.0409
15739SOL    HW247796   3.610   7.599   6.870 -0.1484  0.1454  0.0266
15740SOL     OW47797   3.808   9.631   0.914 -0.1975 -0.2829  0.6078
15740SOL    HW147798   3.727   9.619   0.865  0.0907 -2.0955  0.5097
15740SOL    HW247799   3.780   9.670   0.997 -1.1223 -0.5354  0.4273
15741SOL     OW47800   4.176   5.897   5.248  0.0245  0.1669  0.2055
15741SOL    HW147801   4.251   5.956   5.243  1.4740 -1.6635 -1.5126
15741SOL    HW247802   4.215   5.809   5.254 -1.9053 -0.9104 -1.4669
15742SOL     OW47803   0.413   5.965   1.988 -0.1669 -0.2281  0.1655
15742SOL    HW147804   0.495   5.993   2.030  0.0172 -0.3588 -0.1044
15742SOL    HW247805   0.407   6.020   1.909  0.1825 -0.9248 -0.3535
15743SOL     OW47806   8.764   6.293   6.228 -0.7499  0.2364  0.1860
15743SOL    HW147807   8.726   6.342   6.155  2.1739  1.8893 -0.4170
15743SOL    HW247808   8.748   6.348   6.304  0.2416  0.8760 -0.0487
15744SOL     OW47809   2.083   3.264   7.342 -0.2079 -0.1369  0.4019
15744SOL    HW147810   2.177   3.284   7.341 -0.4194  0.8916  0.0052
15744SOL    HW247811   2.048   3.312   7.267 -1.4730  1.6935  2.0578
15745SOL     OW47812   9.636   2.479   1.687  0.0166  0.0607  0.0763
15745SOL    HW147813   9.593   2.491   1.771 -2.0669  1.8463 -1.1384
15745SOL    HW247814   9.694   2.555   1.678 -0.3537  0.2939 -0.4013
15746SOL     OW47815   2.631   1.497   1.751 -0.3099  0.7091  0.1780
15746SOL    HW147816   2.554   1.455   1.712  1.0687  1.1686 -3.4730
15746SOL    HW247817   2.598   1.578   1.789 -2.2248 -1.1764  2.8979
15747SOL     OW47818   0.432   6.662   1.326  0.1561 -0.2245  0.0812
15747SOL    HW147819   0.447   6.713   1.247  2.9080 -0.2386  0.5109
15747SOL    HW247820   0.461   6.718   1.397  0.8999 -1.4412  0.7688
15748SOL     OW47821   4.036   7.626   0.894  0.0713  0.2002 -0.5237
15748SOL    HW147822   3.986   7.649   0.972  2.5737  0.1790  1.2027
15748SOL    HW247823   4.087   7.704   0.874  0.0396 -0.0633 -1.6907
15749SOL     OW47824   0.253   6.104   9.471  0.0270  0.8352 -0.1643
15749SOL    HW147825   0.347   6.095   9.483 -0.1599 -0.4374  0.5268
15749SOL    HW247826   0.239   6.088   9.378  0.4770  0.8584 -0.2379
15750SOL     OW47827   6.702   7.470   9.561  0.6720  0.1377 -0.0505
15750SOL    HW147828   6.631   7.514   9.607  1.0169  0.5496  0.1069
15750SOL    HW247829   6.659   7.419   9.493  0.0134 -1.8751  1.7688
15751SOL     OW47830   2.959   2.836   9.128 -0.0617 -0.1426  0.1931
15751SOL    HW147831   2.899   2.819   9.200 -1.6118 -0.5434 -1.1300
15751SOL    HW247832   3.028   2.770   9.136 -1.3902 -1.5752  0.0588
15752SOL     OW47833   7.712   8.823   6.036 -0.0507  0.0369  0.3620
15752SOL    HW147834   7.748   8.911   6.052  0.5779 -0.2248  0.4026
15752SOL    HW247835   7.654   8.835   5.961  0.8282  0.2882 -0.2938
15753SOL     OW47836   6.315   5.133   7.776 -0.1928 -0.3100 -0.2638
15753SOL    HW147837   6.320   5.197   7.705  1.3190  0.1197  0.1834
15753SOL    HW247838   6.279   5.054   7.735  1.2889 -0.3019 -1.7059
15754SOL     OW47839   7.253   4.313   0.767  0.5271  0.4146 -0.6032
15754SOL    HW147840   7.168   4.352   0.787 -0.8560 -2.1309 -1.0670
15754SOL    HW247841   7.255   4.232   0.818  2.4764  0.1482 -1.0041
15755SOL     OW47842   3.981   2.367   0.235 -0.0939 -0.5134 -0.5730
15755SOL    HW147843   3.906   2.313   0.211 -1.8377  0.6170  1.9453
15755SOL    HW247844   3.952   2.457   0.222  1.2807 -0.0538 -0.7030
15756SOL     OW47845   7.071   2.140   6.685 -0.1923  0.3400  0.2303
15756SOL    HW147846   7.107   2.088   6.757 -0.1343 -0.3927 -0.3202
15756SOL    HW247847   7.042   2.075   6.621 -0.7738  0.9728 -0.1563
15757SOL     OW47848   0.610   8.552   3.359  0.9736  0.2403  0.3592
15757SOL    HW147849   0.612   8.461   3.329 -1.8333 -0.3496  1.6487
15757SOL    HW247850   0.618   8.604   3.278 -0.9488 -1.2145 -0.8431
15758SOL     OW47851   2.607   8.529   0.142 -0.0051  0.1500  0.3587
15758SOL    HW147852   2.559   8.600   0.184 -0.1895  0.7395 -0.8355
15758SOL    HW247853   2.547   8.454   0.144 -0.2288  0.3341  0.6023
15759SOL     OW47854   6.621   6.793   1.030  0.1496 -0.2058  0.3895
15759SOL    HW147855   6.574   6.737   0.968 -0.0720 -0.0277  0.3959
15759SOL    HW247856   6.714   6.776   1.013  0.1985  1.7778 -1.8367
15760SOL     OW47857   8.087   2.365   8.852  0.1482  0.9108  0.0534
15760SOL    HW147858   8.167   2.312   8.854 -0.2746  0.2556 -0.0481
15760SOL    HW247859   8.016   2.301   8.850 -0.4410  1.4625  1.7528
15761SOL     OW47860   7.289   0.624   5.701 -0.0582 -0.4237  0.2904
15761SOL    HW147861   7.271   0.531   5.710  1.5168 -0.8539 -0.6499
15761SOL    HW247862   7.333   0.648   5.783 -0.1657 -0.5877  0.3958
15762SOL     OW47863   1.997   6.216   5.496 -0.7647  0.0051  0.0707
15762SOL    HW147864   2.024   6.165   5.420  0.0468  0.3743  0.0941
15762SOL    HW247865   1.907   6.241   5.478 -0.8371 -0.5765 -0.4033
15763SOL     OW47866   5.865   2.540   9.230  0.1706  0.3699 -0.2352
15763SOL    HW147867   5.798   2.495   9.177  0.4262  0.7389 -0.8847
15763SOL    HW247868   5.929   2.472   9.250 -1.0567 -0.3469  1.5857
15764SOL     OW47869   4.498   0.598   4.891 -0.7549 -0.5024  0.4526
15764SOL    HW147870   4.487   0.616   4.984  0.1872  3.3422 -0.0429
15764SOL    HW247871   4.588   0.622   4.872 -1.2386 -0.1582 -1.6774
15765SOL     OW47872   4.920   5.894   2.183  0.2332 -0.5312 -0.0115
15765SOL    HW147873   5.009   5.909   2.214 -0.2912  2.4851  0.3589
15765SOL    HW247874   4.929   5.883   2.089  0.8971  1.7825 -0.2724
15766SOL     OW47875   3.357   1.558   5.179 -0.3708  0.0282  0.4097
15766SOL    HW147876   3.312   1.474   5.179  0.1516 -0.2534  0.0856
15766SOL    HW247877   3.359   1.585   5.271  0.8506 -1.0628  0.7266
15767SOL     OW47878   3.564   3.059   6.623 -0.3194 -0.0975 -0.2079
15767SOL    HW147879   3.552   3.120   6.550 -0.0644  1.8502  1.2874
15767SOL    HW247880   3.482   3.065   6.673 -0.0554 -0.5209  0.2863
15768SOL     OW47881   4.230   0.659   1.068  0.2275 -0.4995  0.2920
15768SOL    HW147882   4.312   0.642   1.023  1.8364  1.1598  2.3975
15768SOL    HW247883   4.242   0.623   1.156 -0.8287  0.7743  1.0011
15769SOL     OW47884   3.128   7.040   9.031 -0.0050  0.0631  0.2072
15769SOL    HW147885   3.190   6.971   9.055 -0.0446  0.1330  0.5210
15769SOL    HW247886   3.142   7.109   9.097 -1.4779 -0.5546  1.2143
15770SOL     OW47887   5.482   6.899   1.997 -0.2065 -0.0728  0.9078
15770SOL    HW147888   5.431   6.975   2.025  0.5097  0.4641  0.7616
15770SOL    HW247889   5.424   6.852   1.937 -0.0079  1.3145 -0.4134
15771SOL     OW47890   9.569   9.142   3.902  0.4215  0.2174  0.3742
15771SOL    HW147891   9.562   9.059   3.949  3.3686  1.1650  2.7928
15771SOL    HW247892   9.632   9.124   3.832 -0.2565  0.0256 -0.1984
15772SOL     OW47893   2.494   7.729   0.963  0.7314 -0.2270 -0.2938
15772SOL    HW147894   2.453   7.651   0.924 -0.2117 -0.3034  0.7938
15772SOL    HW247895   2.497   7.793   0.891 -0.3942 -0.5680 -0.6686
15773SOL     OW47896   5.512   9.280   1.787  0.1942 -0.5968  0.2777
15773SOL    HW147897   5.547   9.325   1.864  0.9096 -2.8623  1.3741
15773SOL    HW247898   5.551   9.327   1.712 -1.7315  2.6380  1.1025
15774SOL     OW47899   2.516   4.807   1.183  0.6104  0.1924 -0.1592
15774SOL    HW147900   2.484   4.742   1.120  2.1449  0.9951 -1.8915
15774SOL    HW247901   2.443   4.821   1.244 -1.4069  0.1526 -2.4050
15775SOL     OW47902   4.186   7.458   3.657  0.3609 -0.2951  0.6314
15775SOL    HW147903   4.107   7.429   3.611  0.0811 -0.5573  1.2617
15775SOL    HW247904   4.235   7.378   3.674  1.0008 -0.0877 -0.1659
15776SOL     OW47905   6.062   3.999   4.623 -0.4192 -0.0599 -0.7418
15776SOL    HW147906   6.130   4.036   4.679 -1.1844  0.8346 -0.3844
15776SOL    HW247907   6.002   4.072   4.606 -1.5682 -0.9481 -0.6243
15777SOL     OW47908   0.291   7.739   6.862 -0.1964  0.3174  0.0019
15777SOL    HW147909   0.370   7.756   6.811 -0.4566  0.4089 -0.3752
15777SOL    HW247910   0.225   7.795   6.822 -0.8356 -0.8569 -0.6459
15778SOL     OW47911   3.767   4.572   5.754 -0.3400 -0.2291 -0.3499
15778SOL    HW147912   3.844   4.592   5.701 -0.9579 -1.1580 -1.6467
15778SOL    HW247913   3.736   4.657   5.785 -0.8631  0.5373 -2.8081
15779SOL     OW47914   6.626   9.734   6.726  0.1059 -0.1548  0.2105
15779SOL    HW147915   6.594   9.679   6.655 -2.6135 -1.1164  2.0031
15779SOL    HW247916   6.582   9.700   6.804  0.8409  2.5350  1.9466
15780SOL     OW47917   7.144   2.733   9.489 -0.5286 -0.3535 -0.4574
15780SOL    HW147918   7.157   2.734   9.395 -0.0629  0.7733 -0.4062
15780SOL    HW247919   7.120   2.823   9.511  0.8343 -0.2165  0.6669
15781SOL     OW47920   7.667   7.120   4.427 -0.3923  0.4227  0.2371
15781SOL    HW147921   7.717   7.039   4.433  0.2889  0.9106  1.3891
15781SOL    HW247922   7.689   7.155   4.341 -0.8052 -0.6657 -0.3336
15782SOL     OW47923   8.798   8.763   0.860 -0.4515  0.2991 -0.0898
15782SOL    HW147924   8.876   8.708   0.850 -0.7547  0.0861 -1.4962
15782SOL    HW247925   8.724   8.703   0.847 -0.8593  0.5571  0.9311
15783SOL     OW47926   6.910   3.759   1.572  0.0781  0.1153 -0.0877
15783SOL    HW147927   6.997   3.741   1.608  0.6870 -0.3595 -1.7203
15783SOL    HW247928   6.852   3.755   1.648  1.3562 -0.3984  0.9074
15784SOL     OW47929   2.531   7.304   3.228 -0.4360  0.0853  0.2755
15784SOL    HW147930   2.480   7.337   3.154  0.4490  0.4154 -0.2018
15784SOL    HW247931   2.620   7.294   3.194  0.4238  1.9952  1.7667
15785SOL     OW47932   3.311   4.878   1.847  0.0470 -0.0382  0.3563
15785SOL    HW147933   3.291   4.806   1.788 -0.0904  0.1743  0.1415
15785SOL    HW247934   3.406   4.886   1.845  0.2607 -1.5441  1.9588
15786SOL     OW47935   6.664   6.045   9.699  0.0113  0.3699 -0.1794
15786SOL    HW147936   6.616   5.992   9.762  2.3804 -1.4546  0.2313
15786SOL    HW247937   6.729   5.986   9.661  1.2666  2.4093 -1.4500
15787SOL     OW47938   0.796   3.127   4.236 -0.2950 -0.2781  0.5810
15787SOL    HW147939   0.737   3.185   4.284  0.5594  1.5443 -0.4723
15787SOL    HW247940   0.762   3.126   4.146  1.5118  1.2557 -0.1819
15788SOL     OW47941   6.647   2.271   8.942 -0.0794  0.5548 -1.0284
15788SOL    HW147942   6.644   2.176   8.927 -0.0638  0.5844 -1.2226
15788SOL    HW247943   6.572   2.305   8.894 -0.4694  0.5705 -0.4216
15789SOL     OW47944   4.533   3.364   9.110 -0.0078 -0.6231  0.2957
15789SOL    HW147945   4.555   3.358   9.203  2.1035  0.7733 -0.0460
15789SOL    HW247946   4.504   3.275   9.087  1.1964 -1.4849  1.8792
15790SOL     OW47947   9.962   5.599   9.187 -0.4323 -0.6888 -0.1891
15790SOL    HW147948   9.954   5.596   9.091  2.7254 -2.5660 -0.5336
15790SOL    HW247949   9.975   5.692   9.206 -1.6039 -0.2196 -1.5086
15791SOL     OW47950   4.429   9.353   1.854 -0.1907  0.0230 -0.0986
15791SOL    HW147951   4.393   9.310   1.932 -0.0492 -0.5708 -0.3583
15791SOL    HW247952   4.522   9.329   1.854 -0.0369  0.6199 -0.0507
15792SOL     OW47953   0.725   4.210   5.719  0.6784 -0.5156 -0.1580
15792SOL    HW147954   0.773   4.159   5.784 -0.5715 -1.0278  0.3806
15792SOL    HW247955   0.726   4.155   5.641 -0.1210 -1.0983  0.2338
15793SOL     OW47956   1.281   6.804   4.906 -0.1702  0.1104  0.2178
15793SOL    HW147957   1.363   6.841   4.939 -1.3291  1.3145  1.9167
15793SOL    HW247958   1.254   6.863   4.836 -0.6666  0.9826  1.1289
15794SOL     OW47959   4.694   3.473   9.667 -0.2773 -0.6132 -0.0693
15794SOL    HW147960   4.767   3.413   9.655  1.7252  1.6260  0.1926
15794SOL    HW247961   4.657   3.450   9.752  1.9420 -0.0608  1.1172
15795SOL     OW47962   7.683   3.435   7.605 -0.3612 -0.1928 -0.1978
15795SOL    HW147963   7.629   3.357   7.593  0.1896 -0.3965 -1.5267
15795SOL    HW247964   7.682   3.479   7.520  2.1605 -0.6161 -0.5111
15796SOL     OW47965   8.179   1.896   9.888 -0.7438 -0.5441 -0.0761
15796SOL    HW147966   8.210   1.807   9.899 -0.0980 -0.4301 -0.8612
15796SOL    HW247967   8.247   1.939   9.836 -1.5612  0.0959 -0.6541
15797SOL     OW47968   1.468   3.751   6.480  0.1089 -0.0585  0.0260
15797SOL    HW147969   1.454   3.691   6.407 -1.5694 -0.4081  0.5820
15797SOL    HW247970   1.540   3.806   6.453 -0.5468 -0.1049 -1.9490
15798SOL     OW47971   6.295   9.935   3.749  0.7047 -0.6906 -0.2706
15798SOL    HW147972   6.260   9.953   3.836  0.9906  0.1570 -0.3286
15798SOL    HW247973   6.239   9.985   3.690 -0.8800 -2.9225 -0.8225
15799SOL     OW47974   5.804   7.962   6.567  0.3227  0.0938  0.2707
15799SOL    HW147975   5.793   8.039   6.623 -1.1532  1.7846 -2.1520
15799SOL    HW247976   5.812   7.889   6.628  1.8408  2.1082  2.6939
15800SOL     OW47977   1.453   9.597   1.950  0.4390  0.3944 -0.4233
15800SOL    HW147978   1.485   9.625   2.036  0.7860 -0.9711 -0.0953
15800SOL    HW247979   1.373   9.649   1.938 -0.0700  0.0375  1.0938
15801SOL     OW47980   2.574   3.152   0.889  0.2920  0.2981  0.6564
15801SOL    HW147981   2.568   3.229   0.833  2.0166  0.5921  0.8367
15801SOL    HW247982   2.638   3.096   0.846  1.3063  0.3188  2.0740
15802SOL     OW47983   6.690   2.597   2.976 -0.2446 -0.3757  0.2813
15802SOL    HW147984   6.751   2.671   2.976 -0.4310 -0.2183  0.1605
15802SOL    HW247985   6.658   2.592   3.066 -1.5570  0.8139 -0.0735
15803SOL     OW47986   5.930   7.199   5.460  0.1867 -0.2191 -0.0128
15803SOL    HW147987   5.950   7.261   5.530  2.0277 -0.1132 -0.5652
15803SOL    HW247988   6.004   7.139   5.459 -0.9319 -1.6499 -0.3675
15804SOL     OW47989   4.213   6.994   2.053 -0.1770  0.6842  0.3892
15804SOL    HW147990   4.181   7.007   1.964 -1.2016  1.2668  0.8317
15804SOL    HW247991   4.134   6.991   2.107  0.4255  0.2586  1.2780
15805SOL     OW47992   3.297   6.689   7.422  0.1252  0.0684 -0.2884
15805SOL    HW147993   3.238   6.763   7.435  0.3369  0.0460  0.9175
15805SOL    HW247994   3.289   6.638   7.502  0.1086 -1.1351 -1.0345
15806SOL     OW47995   8.308   0.639   2.344 -0.2067 -0.0734 -0.2920
15806SOL    HW147996   8.296   0.573   2.276  1.3243 -2.0271  1.1751
15806SOL    HW247997   8.310   0.722   2.297  0.0754 -1.2573 -2.5460
15807SOL     OW47998   2.603   6.811   9.884  0.3532 -0.6573  0.0366
15807SOL    HW147999   2.626   6.862   9.806 -0.4605  2.0752  1.4813
15807SOL    HW248000   2.672   6.830   9.947  0.1379 -1.5154  0.5503
15808SOL     OW48001   1.412   1.235   3.889  0.3052  0.0616 -0.0862
15808SOL    HW148002   1.386   1.157   3.840 -1.2561 -0.5888  1.6519
15808SOL    HW248003   1.365   1.227   3.972  2.2891  1.4536  1.2554
15809SOL     OW48004   9.197   8.642   0.595 -0.3592 -0.4194  0.6134
15809SOL    HW148005   9.152   8.695   0.660 -1.7560 -1.5288  0.6161
15809SOL    HW248006   9.276   8.691   0.573 -1.6284  1.7029  0.5242
15810SOL     OW48007   9.291   4.597   9.582  0.8868  0.2594 -0.3810
15810SOL    HW148008   9.304   4.553   9.666  0.2263  0.2498 -0.2743
15810SOL    HW248009   9.215   4.653   9.596  0.8034  0.2982 -0.9551
15811SOL     OW48010   7.149   4.080   3.628 -0.0501 -0.0471  0.5524
15811SOL    HW148011   7.182   4.067   3.539  1.1277  2.0050  0.6227
15811SOL    HW248012   7.068   4.129   3.616  1.2417  2.2674  0.5824
15812SOL     OW48013   0.301   2.292   9.936  0.0081 -0.5453 -0.2965
15812SOL    HW148014   0.219   2.250   9.909 -0.5218 -1.3497  2.3000
15812SOL    HW248015   0.368   2.252   9.881 -0.8254 -2.9986  0.3694
15813SOL     OW48016   6.189   1.576   7.759  0.2616 -0.3235  0.3767
15813SOL    HW148017   6.220   1.653   7.711  3.0951 -1.1620  0.6476
15813SOL    HW248018   6.158   1.516   7.691 -3.0265  1.3201  0.2174
15814SOL     OW48019   4.462   3.627   7.318 -0.4087  0.0806 -0.0798
15814SOL    HW148020   4.447   3.538   7.350  0.1744  0.1053  0.2734
15814SOL    HW248021   4.380   3.673   7.335 -0.1035  0.1180  1.4923
15815SOL     OW48022   9.565   8.055   2.598  0.1302 -0.1419 -0.3077
15815SOL    HW148023   9.637   7.992   2.593  0.8598  0.6888 -0.5303
15815SOL    HW248024   9.506   8.019   2.664  0.3870 -1.1987 -0.6353
15816SOL     OW48025   1.351   0.009   3.268 -0.5097 -0.2547  0.0529
15816SOL    HW148026   1.442   0.038   3.257 -0.6229 -0.1706 -0.7693
15816SOL    HW248027   1.301   0.071   3.214 -1.2633  0.8113  1.8792
15817SOL     OW48028   5.569   4.021   5.989 -0.7899 -0.1343  0.2432
15817SOL    HW148029   5.581   3.935   5.948 -0.2484 -0.0938  0.3099
15817SOL    HW248030   5.475   4.036   5.984 -0.5565  1.3907 -4.0680
15818SOL     OW48031   7.355   5.620   8.576  0.6241  0.6007  0.2085
15818SOL    HW148032   7.263   5.606   8.599  0.6980 -0.0194  0.1388
15818SOL    HW248033   7.360   5.712   8.550  0.4899  1.3143  2.5038
15819SOL     OW48034   5.566   1.797   9.719  0.1364 -0.3455 -0.1270
15819SOL    HW148035   5.531   1.806   9.808  0.4136 -1.5238  0.1126
15819SOL    HW248036   5.528   1.871   9.671 -0.5716 -0.0905  0.7987
15820SOL     OW48037   8.231   7.559   5.183 -0.9421 -0.6626 -1.0093
15820SOL    HW148038   8.239   7.651   5.207  0.6015 -1.2258  0.8911
15820SOL    HW248039   8.267   7.512   5.257 -2.4213 -2.8622 -1.5856
15821SOL     OW48040   5.609   2.155   0.022 -0.1897 -0.7762  0.1862
15821SOL    HW148041   5.675   2.173   0.089 -0.2923 -2.5325  0.8271
15821SOL    HW248042   5.658   2.146  -0.059  0.1750 -0.5629  0.3826
15822SOL     OW48043   6.413   6.060   9.500 -0.0172  0.2562 -0.5906
15822SOL    HW148044   6.383   6.084   9.588 -0.6517  1.4031 -1.1015
15822SOL    HW248045   6.474   5.987   9.515  0.3680  0.8351  0.8522
15823SOL     OW48046   3.067   3.819   8.776 -0.5140 -0.3042  0.8407
15823SOL    HW148047   3.101   3.733   8.753 -1.8376 -0.5428 -0.3786
15823SOL    HW248048   3.004   3.839   8.707  0.1005  1.8550  0.8315
15824SOL     OW48049   6.837   7.547   0.262 -0.0617 -0.0348 -0.2078
15824SOL    HW148050   6.817   7.611   0.193 -0.2572  1.0195  0.7929
15824SOL    HW248051   6.881   7.476   0.216 -0.4764  0.4918 -1.4731
15825SOL     OW48052   6.243   5.527   6.485 -0.1813 -0.0258  0.0767
15825SOL    HW148053   6.318   5.571   6.526 -2.2944  1.2611  2.9281
15825SOL    HW248054   6.245   5.438   6.520 -0.7573  0.4383  1.3315
15826SOL     OW48055   3.091   0.982   2.436 -0.1609 -0.1617  0.4519
15826SOL    HW148056   3.086   1.077   2.425  0.1585  0.0217  1.7033
15826SOL    HW248057   3.002   0.951   2.420 -0.2871  0.3552  0.1307
15827SOL     OW48058   3.922   4.534   2.651  0.2946 -0.1867  0.1018
15827SOL    HW148059   3.830   4.562   2.648  0.9819  2.1557 -1.4597
15827SOL    HW248060   3.930   4.472   2.578 -0.7825 -3.3641  2.4359
15828SOL     OW48061   6.474   8.782   2.645 -0.9357  0.2054 -0.0357
15828SOL    HW148062   6.412   8.711   2.660 -0.3024 -0.3960 -0.2268
15828SOL    HW248063   6.421   8.853   2.610 -1.6254 -0.0592  0.4538
15829SOL     OW48064   5.396   6.604   7.373  0.2056  0.0663 -0.4077
15829SOL    HW148065   5.392   6.623   7.467 -0.9609  1.1608 -0.6462
15829SOL    HW248066   5.477   6.555   7.362  1.1508  1.2206  0.9518
15830SOL     OW48067   7.062   7.420   2.479  0.2568 -0.3924 -0.0570
15830SOL    HW148068   7.142   7.414   2.426 -0.5186 -1.0522 -1.1862
15830SOL    HW248069   7.021   7.502   2.450  0.4241 -0.1353  0.4111
15831SOL     OW48070   4.006   6.952   4.576 -0.1300  1.0661 -0.0177
15831SOL    HW148071   4.070   6.938   4.645 -0.0665 -1.9817 -0.5141
15831SOL    HW248072   4.059   6.964   4.497 -0.1601  0.5962 -0.1130
15832SOL     OW48073   9.431   7.988   6.810  0.3310 -0.0563  0.2375
15832SOL    HW148074   9.493   7.921   6.839  0.6788  0.3818  0.5182
15832SOL    HW248075   9.395   8.025   6.890  0.8985  0.7882  0.1137
15833SOL     OW48076   9.618   7.819   2.881  0.5519 -0.0569 -0.1239
15833SOL    HW148077   9.621   7.724   2.890  0.9622 -0.1317 -0.9134
15833SOL    HW248078   9.524   7.840   2.878  0.4601 -0.4782 -0.3221
15834SOL     OW48079   0.562   8.068   6.496  0.3616  0.2761  0.0647
15834SOL    HW148080   0.592   7.990   6.542 -1.2261  0.2994  1.2647
15834SOL    HW248081   0.614   8.139   6.532  1.0950 -0.0873 -0.2690
15835SOL     OW48082   2.344   5.840   2.172  0.0732  0.0635 -0.7474
15835SOL    HW148083   2.412   5.883   2.119  1.3121  0.3094  0.9661
15835SOL    HW248084   2.392   5.797   2.243 -1.4001 -1.6044 -0.6755
15836SOL     OW48085   9.829   3.466   6.407  0.4367 -0.0979  0.0281
15836SOL    HW148086   9.883   3.509   6.473  1.4845 -1.8709  0.3836
15836SOL    HW248087   9.747   3.445   6.453  0.7769 -0.4406  0.4824
15837SOL     OW48088   7.454   6.179   2.577 -0.3536  0.3440 -0.2010
15837SOL    HW148089   7.526   6.118   2.562 -0.9767 -0.9031  1.6144
15837SOL    HW248090   7.493   6.266   2.562  0.8183 -0.4022 -1.7424
15838SOL     OW48091   9.786   9.397   7.890  0.6056  0.1676 -0.3775
15838SOL    HW148092   9.736   9.352   7.958  1.8553  0.9099  1.1132
15838SOL    HW248093   9.738   9.379   7.809 -0.6139 -1.2542  0.5908
15839SOL     OW48094   8.931   2.454   1.659 -0.1525 -0.4130  0.0082
15839SOL    HW148095   8.836   2.457   1.648 -0.2614  1.1557  1.1129
15839SOL    HW248096   8.947   2.487   1.747  1.6115  2.6290 -1.2993
15840SOL     OW48097   8.378   9.681   7.023 -0.0117 -0.7899  0.3609
15840SOL    HW148098   8.321   9.608   7.049 -1.6648  1.0191  2.1314
15840SOL    HW248099   8.333   9.759   7.055  1.6632  1.0467 -1.5251
15841SOL     OW48100   2.423   5.973   1.352  0.1976  0.1144  0.6093
15841SOL    HW148101   2.508   5.962   1.396  0.7938 -0.2705 -0.5836
15841SOL    HW248102   2.424   6.065   1.322  0.3696  0.0070  0.2734
15842SOL     OW48103   2.124   1.407   1.351 -0.3401  0.3258  0.0608
15842SOL    HW148104   2.113   1.498   1.324 -0.3449  0.5936  0.9623
15842SOL    HW248105   2.213   1.401   1.385 -1.1162  0.6039  2.2821
15843SOL     OW48106   5.041   1.402   8.413 -0.7558  0.0741  0.5514
15843SOL    HW148107   5.090   1.327   8.378 -1.2428 -0.4822  1.0452
15843SOL    HW248108   5.105   1.473   8.418 -0.0014 -0.6398  1.1757
15844SOL     OW48109   0.720   3.618   4.238 -0.1797  0.4629  0.2916
15844SOL    HW148110   0.688   3.707   4.250 -1.2975  0.3202 -1.3671
15844SOL    HW248111   0.681   3.569   4.311  1.3083  1.4702  1.8605
15845SOL     OW48112   4.983   5.853   5.822  0.3734  0.1952 -0.4383
15845SOL    HW148113   4.997   5.771   5.870  0.8129  0.7671  0.4464
15845SOL    HW248114   4.928   5.828   5.748 -2.1421 -0.4108  1.4727
15846SOL     OW48115   0.583   1.169   6.185 -0.3445  0.2213 -0.7992
15846SOL    HW148116   0.676   1.166   6.165 -0.4568 -0.1634 -1.2903
15846SOL    HW248117   0.579   1.191   6.278  0.2882 -1.3004 -0.3824
15847SOL     OW48118   6.331   7.307   9.099  0.1180 -0.0652 -0.3538
15847SOL    HW148119   6.393   7.339   9.164  1.5559  0.4092 -1.9029
15847SOL    HW248120   6.285   7.385   9.069 -4.9106 -0.7310  4.1111
15848SOL     OW48121   1.908   4.263   6.909  0.0897 -0.4448  0.0147
15848SOL    HW148122   1.918   4.285   6.816  0.0910 -0.2952  0.0509
15848SOL    HW248123   1.820   4.292   6.931  1.1538  2.4622  0.8795
15849SOL     OW48124   8.377   9.253   1.007  0.2577  0.4458 -0.6940
15849SOL    HW148125   8.284   9.245   0.988 -0.1376  1.1801  0.7880
15849SOL    HW248126   8.419   9.195   0.944 -1.1333  0.6567 -1.8781
15850SOL     OW48127   8.959   5.600   2.683  0.5220 -0.8108  0.0828
15850SOL    HW148128   8.985   5.533   2.747  0.7649 -0.0169  0.8412
15850SOL    HW248129   9.018   5.586   2.609  1.2938 -0.7625  0.6723
15851SOL     OW48130   4.064   8.324   3.025 -0.0303 -0.5761 -0.0685
15851SOL    HW148131   4.002   8.374   3.079  0.1548  0.2331 -0.5956
15851SOL    HW248132   4.056   8.362   2.938 -0.5760 -2.0894 -0.7286
15852SOL     OW48133   3.057   7.679   9.106  0.0325 -0.3078  0.0007
15852SOL    HW148134   3.103   7.608   9.061 -1.0634 -0.4910 -0.8638
15852SOL    HW248135   3.094   7.759   9.068  0.4042 -0.4288  0.1001
15853SOL     OW48136   4.209   5.167   1.169  0.2646  0.4477  0.4106
15853SOL    HW148137   4.278   5.166   1.103 -1.1447 -1.2244 -1.1338
15853SOL    HW248138   4.144   5.229   1.135 -0.9290 -1.1514 -0.3526
15854SOL     OW48139   9.798   4.170   8.714  0.5751  0.5359 -0.1646
15854SOL    HW148140   9.749   4.102   8.668 -0.8378  1.1877  0.3000
15854SOL    HW248141   9.792   4.246   8.656 -1.8107  1.5706  1.3011
15855SOL     OW48142   2.266   1.719   0.660  0.4740 -0.2656  0.3053
15855SOL    HW148143   2.336   1.785   0.661 -0.6789  1.0039 -0.4347
15855SOL    HW248144   2.204   1.749   0.727 -0.5032 -0.0806 -0.6562
15856SOL     OW48145   9.968   5.661   6.468 -0.5299 -0.2765  0.0562
15856SOL    HW148146   9.906   5.589   6.476  0.0958 -0.9236 -0.7250
15856SOL    HW248147   9.951   5.716   6.545 -0.0764 -2.0000  1.4712
15857SOL     OW48148   9.357   3.822   7.153  0.0818 -0.3790 -0.4488
15857SOL    HW148149   9.416   3.804   7.227 -1.0106  0.5169  0.7052
15857SOL    HW248150   9.286   3.873   7.192 -1.0684 -0.7726 -1.9422
15858SOL     OW48151   9.159   3.972   7.264  0.4743 -0.3640  0.4802
15858SOL    HW148152   9.123   3.992   7.350 -1.2298 -1.6676  0.1162
15858SOL    HW248153   9.130   4.044   7.208 -1.9246 -1.5388  0.1259
15859SOL     OW48154   6.125   6.732   1.484  0.1766 -0.3066  0.1215
15859SOL    HW148155   6.083   6.810   1.521  1.3508  0.7428 -0.6758
15859SOL    HW248156   6.205   6.765   1.442  0.4217 -1.8622 -0.7244
15860SOL     OW48157   7.832   9.051   0.449  0.3838 -0.3183 -0.1865
15860SOL    HW148158   7.814   9.135   0.491  1.5157 -0.1516  0.0125
15860SOL    HW248159   7.746   9.010   0.438 -0.1197  0.5710  0.3293
15861SOL     OW48160   6.308   0.177   3.297 -0.2810 -0.6166 -0.4634
15861SOL    HW148161   6.250   0.125   3.352  0.4538 -0.3705  0.5665
15861SOL    HW248162   6.249   0.217   3.232 -1.1581 -0.9472  0.1019
15862SOL     OW48163   9.639   0.935   9.802  0.1642  0.2165  0.2120
15862SOL    HW148164   9.733   0.939   9.816  0.3179 -0.8615 -0.3475
15862SOL    HW248165   9.623   0.992   9.727  0.3881  0.3219  0.2439
15863SOL     OW48166   9.861   4.195   4.338 -0.0187 -0.6983 -0.0393
15863SOL    HW148167   9.798   4.214   4.407  0.3098  2.9201 -0.5585
15863SOL    HW248168   9.939   4.164   4.384 -0.7371 -1.0438  0.9580
15864SOL     OW48169   1.834   5.952   8.066 -0.0835  0.2250 -0.3370
15864SOL    HW148170   1.803   5.960   8.156  1.9949  0.5563  0.3983
15864SOL    HW248171   1.835   6.042   8.033 -1.3234  0.0563 -0.9049
15865SOL     OW48172   1.906   6.315   0.852 -0.5191 -0.4968  0.5667
15865SOL    HW148173   1.921   6.394   0.800 -1.7392 -1.5471 -1.5481
15865SOL    HW248174   1.831   6.273   0.810 -0.3226 -2.4542  2.0264
15866SOL     OW48175   0.384   5.569   5.406 -0.0986 -0.6057 -0.0135
15866SOL    HW148176   0.380   5.628   5.330  2.4046  0.5219  0.6424
15866SOL    HW248177   0.408   5.626   5.479  1.8610 -2.3205  0.7557
15867SOL     OW48178   5.000   4.244   7.042 -0.5475 -0.2764  0.7638
15867SOL    HW148179   4.972   4.153   7.055 -1.3556 -0.0553  0.6097
15867SOL    HW248180   4.980   4.287   7.125  1.2471 -0.5686  1.3884
15868SOL     OW48181   5.880   2.716   7.072 -1.0657  0.2818  0.2011
15868SOL    HW148182   5.852   2.784   7.011 -2.8985 -0.5786  0.0141
15868SOL    HW248183   5.929   2.763   7.140 -1.0581  1.5701 -0.6700
15869SOL     OW48184   1.917   8.137   9.716 -0.2862 -0.2289  0.2101
15869SOL    HW148185   1.957   8.222   9.697  2.3399 -1.0370  1.6610
15869SOL    HW248186   1.926   8.088   9.634 -1.7465  0.8142 -0.6106
15870SOL     OW48187   4.308   3.304   5.100  0.3226 -0.2888 -0.4052
15870SOL    HW148188   4.248   3.232   5.123  0.3549 -0.2840 -0.3051
15870SOL    HW248189   4.388   3.260   5.072 -0.0551 -0.3204 -1.4871
15871SOL     OW48190   8.315   2.227   6.919 -0.6035 -0.0868 -0.2732
15871SOL    HW148191   8.230   2.188   6.941  0.6611 -1.7071  2.2007
15871SOL    HW248192   8.342   2.181   6.839 -1.2567 -0.8703 -0.0551
15872SOL     OW48193   7.245   3.803   7.781  0.0931 -0.1215  0.2276
15872SOL    HW148194   7.282   3.715   7.792  0.4952  0.0456  0.2222
15872SOL    HW248195   7.163   3.789   7.734  0.7673 -0.3720 -0.9017
15873SOL     OW48196   7.277   7.586   3.886 -0.1113 -0.1103 -0.4606
15873SOL    HW148197   7.244   7.503   3.921  0.7750 -1.4062 -2.5036
15873SOL    HW248198   7.343   7.613   3.949 -2.0358  0.3468  1.4822
15874SOL     OW48199   4.189   2.548   8.305 -0.5097  0.0736  0.8467
15874SOL    HW148200   4.218   2.459   8.325  0.0196  0.3545  1.3712
15874SOL    HW248201   4.156   2.543   8.215 -1.2431 -0.8293  1.1476
15875SOL     OW48202   3.048   7.899   8.941 -0.6548 -0.1863  0.4667
15875SOL    HW148203   3.084   7.975   8.986 -0.7764  0.3818 -0.3915
15875SOL    HW248204   3.053   7.921   8.848 -0.4782 -1.3196  0.1948
15876SOL     OW48205   8.283   0.944   1.970 -0.6594  0.5268 -0.1049
15876SOL    HW148206   8.281   0.865   1.915 -1.0646  1.0004 -0.7983
15876SOL    HW248207   8.330   1.008   1.917 -1.4699  1.1358 -0.1186
15877SOL     OW48208   6.999   2.834   7.839 -0.0612  0.8267 -0.1690
15877SOL    HW148209   7.041   2.846   7.925 -0.8825 -0.7364  0.4955
15877SOL    HW248210   7.071   2.818   7.779  0.4157 -1.0087  0.8081
15878SOL     OW48211   2.322   3.970   0.671  0.5121  0.4068 -0.0607
15878SOL    HW148212   2.393   3.957   0.608  0.1683  1.3142 -0.6670
15878SOL    HW248213   2.254   4.016   0.621 -0.8453 -1.1438  0.2847
15879SOL     OW48214   6.244   0.085   0.102 -0.6983 -0.0512 -0.3878
15879SOL    HW148215   6.155   0.078   0.068 -1.1597  3.5363 -0.3581
15879SOL    HW248216   6.233   0.129   0.187  1.0976  1.8252 -1.0377
15880SOL     OW48217   5.189   6.056   1.887 -0.4623  0.2957  0.1771
15880SOL    HW148218   5.095   6.043   1.887 -0.3591 -0.5664  0.8209
15880SOL    HW248219   5.225   5.970   1.906  0.4689  0.5598 -0.3278
15881SOL     OW48220   9.538   8.369   0.734  0.7740  0.0974 -0.2252
15881SOL    HW148221   9.596   8.297   0.708  0.7238  0.3139 -0.9699
15881SOL    HW248222   9.495   8.395   0.652 -1.0891 -0.6742  0.4615
15882SOL     OW48223   7.793   2.962   7.239  0.2611 -0.5008  0.2558
15882SOL    HW148224   7.824   2.884   7.285 -0.1433 -0.0191  1.3845
15882SOL    HW248225   7.706   2.978   7.275 -0.2536 -0.3458 -1.0079
15883SOL     OW48226   4.279   2.637   7.329  0.5307  0.2651 -0.2353
15883SOL    HW148227   4.328   2.558   7.353  0.3600  0.8433  2.2507
15883SOL    HW248228   4.198   2.632   7.378 -0.2913  1.1532 -1.4282
15884SOL     OW48229   0.846   4.681   1.111  0.7094 -0.7668 -0.6000
15884SOL    HW148230   0.844   4.592   1.077 -1.0217 -0.4559 -1.4042
15884SOL    HW248231   0.776   4.683   1.176 -0.0391  0.2928 -1.4020
15885SOL     OW48232   1.084   3.521   3.633 -0.4421 -0.3870 -0.4249
15885SOL    HW148233   1.033   3.444   3.658 -0.7180 -0.0602  0.0117
15885SOL    HW248234   1.093   3.572   3.713 -2.3595  1.2725 -1.1694
15886SOL     OW48235   8.364   4.326   4.534 -0.4832 -0.2388  0.4762
15886SOL    HW148236   8.451   4.295   4.510 -0.0209 -0.4770  2.3430
15886SOL    HW248237   8.361   4.416   4.503 -0.2062 -0.7242 -1.0476
15887SOL     OW48238   1.334   6.017   4.070  0.2071 -0.3038 -0.1113
15887SOL    HW148239   1.344   6.040   3.978  0.8017 -0.2700 -0.0451
15887SOL    HW248240   1.271   5.945   4.071 -1.4483  1.0896 -0.3504
15888SOL     OW48241   6.933   8.686   6.405 -0.1595  0.6513 -0.3268
15888SOL    HW148242   6.912   8.756   6.343  1.9127  2.1191  0.5170
15888SOL    HW248243   6.950   8.731   6.488  3.2596 -0.5363 -0.2117
15889SOL     OW48244   7.235   5.964   3.211  0.0334 -0.2309 -0.1220
15889SOL    HW148245   7.303   6.027   3.238  0.9722 -1.0729 -0.4547
15889SOL    HW248246   7.219   5.986   3.119 -0.0863 -0.0879 -0.0680
15890SOL     OW48247   8.462   7.143   6.638  0.5362 -1.0910  0.8384
15890SOL    HW148248   8.482   7.236   6.650  0.3128 -0.9048 -0.1826
15890SOL    HW248249   8.542   7.097   6.662  1.2679 -0.5207 -0.4549
15891SOL     OW48250   0.201   2.517   8.259 -0.3597  0.3415  0.1776
15891SOL    HW148251   0.206   2.513   8.354  1.7745 -0.1888  0.0941
15891SOL    HW248252   0.241   2.602   8.237 -1.8238  0.9534 -0.2214
15892SOL     OW48253   2.561   3.558   0.557  0.2990  0.0298  0.4795
15892SOL    HW148254   2.622   3.631   0.545  0.2981 -0.1481 -0.7030
15892SOL    HW248255   2.488   3.577   0.498  0.2692 -0.8846  0.2026
15893SOL     OW48256   2.958   1.144   0.225 -0.1921  0.6480 -0.1373
15893SOL    HW148257   2.996   1.228   0.199  0.6044  0.6054  0.8282
15893SOL    HW248258   2.924   1.107   0.144  0.3178  1.4669 -0.7414
15894SOL     OW48259   9.392   2.641   3.106 -0.1765 -0.1385 -0.4882
15894SOL    HW148260   9.441   2.682   3.178  0.5831 -1.1316 -0.4169
15894SOL    HW248261   9.303   2.631   3.141  0.3356 -1.2243  0.5992
15895SOL     OW48262   3.731   5.486   9.936 -0.1091  0.3379  0.4620
15895SOL    HW148263   3.670   5.556   9.957  0.4275  0.9994 -0.1220
15895SOL    HW248264   3.787   5.479  10.013 -0.2639  0.4407  0.5836
15896SOL     OW48265   5.540   5.234   5.222  0.1701  0.2742  0.2251
15896SOL    HW148266   5.447   5.247   5.240 -0.1099 -1.9791  0.6268
15896SOL    HW248267   5.578   5.216   5.308  0.7150 -0.2979 -0.1367
15897SOL     OW48268   2.140   0.518   4.139  0.3012  0.1902  0.1739
15897SOL    HW148269   2.222   0.561   4.117 -0.1425  1.6985  1.3081
15897SOL    HW248270   2.167   0.435   4.179  1.1914 -0.1617 -1.0684
15898SOL     OW48271   8.628   1.302   2.262 -0.5653  0.8917 -1.1695
15898SOL    HW148272   8.582   1.221   2.284 -1.3273  0.3493 -4.2521
15898SOL    HW248273   8.574   1.371   2.300 -0.5402  0.0353  0.4993
15899SOL     OW48274   2.594   3.875   4.523  0.3855 -0.5290 -0.8054
15899SOL    HW148275   2.531   3.840   4.586 -0.8684  0.0910 -1.6651
15899SOL    HW248276   2.658   3.805   4.511 -0.9532 -1.7755 -0.9856
15900SOL     OW48277   2.884   4.475   0.505 -0.1198  0.3415 -0.5137
15900SOL    HW148278   2.909   4.431   0.586  1.1460  0.3162 -0.8926
15900SOL    HW248279   2.824   4.414   0.462  0.9825 -0.6915 -0.6554
15901SOL     OW48280   5.532   7.091   6.478  0.0135 -0.2300  0.1523
15901SOL    HW148281   5.541   7.159   6.545 -0.3211 -0.0682  0.0335
15901SOL    HW248282   5.610   7.036   6.489 -0.3557 -0.5857  1.1017
15902SOL     OW48283   2.424   8.421   6.818 -0.3071  0.0116  0.0377
15902SOL    HW148284   2.446   8.381   6.733 -3.3200 -1.8477 -0.0210
15902SOL    HW248285   2.393   8.509   6.795  0.6365  0.2094 -0.5457
15903SOL     OW48286   7.960   6.200   9.783 -0.0886  0.3953 -0.5274
15903SOL    HW148287   7.962   6.179   9.876 -0.4451  0.7587 -0.4334
15903SOL    HW248288   8.045   6.240   9.765 -0.3783  1.2082 -0.1367
15904SOL     OW48289   7.538   5.463   3.630 -0.7124  0.2274 -0.2361
15904SOL    HW148290   7.619   5.414   3.624 -0.9469 -0.1371 -0.5096
15904SOL    HW248291   7.474   5.410   3.582 -0.9205  0.9041 -0.7203
15905SOL     OW48292   6.441   5.818   9.288  0.0610 -0.0296  0.1202
15905SOL    HW148293   6.497   5.763   9.232  0.4296 -2.3452  2.5348
15905SOL    HW248294   6.489   5.823   9.371 -2.8760 -1.5388  2.0751
15906SOL     OW48295   8.181   9.954   1.396  0.2982  0.5192  0.6223
15906SOL    HW148296   8.228  10.022   1.444 -0.6826  1.3816  0.4064
15906SOL    HW248297   8.180   9.879   1.455  0.4664  1.0459  1.3110
15907SOL     OW48298   4.356   7.925   2.809 -0.1271 -0.5152 -0.1202
15907SOL    HW148299   4.312   7.858   2.757  0.1184  0.4942 -1.7020
15907SOL    HW248300   4.285   7.974   2.851 -0.3898 -0.5761 -0.4948
15908SOL     OW48301   4.241   7.501   4.427  0.3412  0.4629 -0.5794
15908SOL    HW148302   4.322   7.537   4.392  0.4185  0.9282  0.0779
15908SOL    HW248303   4.172   7.549   4.380  0.4453  0.7372 -0.4546
15909SOL     OW48304   3.857   5.270   1.611 -0.4525  0.1564  0.1559
15909SOL    HW148305   3.815   5.196   1.567 -2.2727  0.8420  0.6403
15909SOL    HW248306   3.948   5.244   1.620 -1.1451 -2.2847  0.8124
15910SOL     OW48307   1.853   9.327   7.100 -0.2106  0.1768  0.3748
15910SOL    HW148308   1.920   9.387   7.067 -1.1873  1.1680  0.1103
15910SOL    HW248309   1.795   9.383   7.152 -0.2960 -0.8411  1.4106
15911SOL     OW48310   4.488   5.403   2.893  0.2030  0.2305 -0.1016
15911SOL    HW148311   4.571   5.355   2.894 -0.6242 -1.2727 -0.6830
15911SOL    HW248312   4.432   5.356   2.955 -0.0497  1.6002  0.7708
15912SOL     OW48313   6.066   8.714   9.495 -0.0710  0.1841 -0.3473
15912SOL    HW148314   6.109   8.632   9.520 -0.0641 -0.6382 -2.8428
15912SOL    HW248315   6.102   8.735   9.409  0.0985  2.9749  0.2960
15913SOL     OW48316   9.458   4.285   4.163 -0.7961  0.1447 -0.4451
15913SOL    HW148317   9.426   4.357   4.109 -1.7605 -0.0271 -0.1316
15913SOL    HW248318   9.490   4.220   4.101 -1.7084  0.0356 -0.8114
15914SOL     OW48319   1.488   5.672   9.474  0.2468  0.1434 -0.3615
15914SOL    HW148320   1.395   5.688   9.459 -0.0637 -1.0994  0.0740
15914SOL    HW248321   1.512   5.606   9.408  0.5411 -0.3230  0.1996
15915SOL     OW48322   9.417   1.783   0.474  0.0115 -0.3281  0.3023
15915SOL    HW148323   9.347   1.847   0.492  0.1139 -0.2870  0.5521
15915SOL    HW248324   9.442   1.750   0.560  1.1925  0.6053  0.3529
15916SOL     OW48325   9.051   7.078   1.866  0.0509 -0.0501  0.3575
15916SOL    HW148326   9.086   7.073   1.955 -0.6582  0.0850  0.6526
15916SOL    HW248327   8.989   7.151   1.869 -2.7302 -2.2440  0.7465
15917SOL     OW48328   3.353   6.034   1.814  0.0557  0.6713 -0.0962
15917SOL    HW148329   3.436   6.081   1.813  0.2439  0.5812  2.6842
15917SOL    HW248330   3.354   5.981   1.735  2.9473  0.2144  0.1354
15918SOL     OW48331   0.289   5.968   9.173 -0.4857  0.0861  0.1717
15918SOL    HW148332   0.373   5.944   9.211 -0.7011 -1.7641 -0.4359
15918SOL    HW248333   0.310   5.998   9.085 -0.5654 -2.0192 -0.6133
15919SOL     OW48334   2.643   5.272   3.207  0.3631  0.4239 -0.6918
15919SOL    HW148335   2.559   5.275   3.252  0.3196 -0.2016 -0.7168
15919SOL    HW248336   2.695   5.210   3.257 -0.0639 -1.1436 -2.0988
15920SOL     OW48337   8.608   0.529   6.800  0.0450 -0.4808  0.4601
15920SOL    HW148338   8.686   0.490   6.760 -0.7177 -0.8475 -0.7141
15920SOL    HW248339   8.554   0.555   6.726 -0.3782  0.9809  1.2559
15921SOL     OW48340   0.475   2.719   5.533 -0.2442  0.1170  0.1241
15921SOL    HW148341   0.487   2.801   5.580 -0.5541 -0.5210  1.3824
15921SOL    HW248342   0.489   2.651   5.600 -1.0651 -0.8245 -0.6194
15922SOL     OW48343   0.613   0.408   7.157 -0.4010  0.2078  0.0283
15922SOL    HW148344   0.653   0.493   7.143  1.4940 -0.7411 -0.5838
15922SOL    HW248345   0.662   0.369   7.229 -1.2844 -0.3513  0.3465
15923SOL     OW48346   4.546   5.489   5.879 -0.1248  0.3874  0.3606
15923SOL    HW148347   4.628   5.482   5.830 -0.3298  0.3889  0.0140
15923SOL    HW248348   4.568   5.458   5.967 -0.3563 -2.1501 -0.3955
15924SOL     OW48349   2.292   3.947   9.377  0.4249  0.0485  0.2849
15924SOL    HW148350   2.225   3.914   9.316 -1.0077  0.4733  1.5674
15924SOL    HW248351   2.357   3.988   9.321  0.1276 -1.2429 -1.0809
15925SOL     OW48352   4.740   3.504   4.186 -0.2232  0.1034 -0.7642
15925SOL    HW148353   4.650   3.505   4.154 -0.9842  1.0425  1.2389
15925SOL    HW248354   4.749   3.419   4.230  0.1279 -0.3097 -1.6281
15926SOL     OW48355   9.740   4.142   8.071 -0.5149  0.1539  0.4433
15926SOL    HW148356   9.659   4.096   8.094  0.0194 -1.2507 -0.3441
15926SOL    HW248357   9.781   4.163   8.155 -1.8874  1.2787  0.8579
15927SOL     OW48358   3.167   7.415   3.502  0.0787  0.0941 -0.1219
15927SOL    HW148359   3.199   7.325   3.512 -3.2556 -1.1944  0.1929
15927SOL    HW248360   3.113   7.430   3.579 -1.9113  1.1859 -1.6235
15928SOL     OW48361   1.209   7.497   4.020 -0.1312  0.5899 -0.2006
15928SOL    HW148362   1.137   7.561   4.016  0.7318  1.5591 -0.6502
15928SOL    HW248363   1.165   7.414   4.040 -1.5197  0.9191 -1.6497
15929SOL     OW48364   2.228   8.877   1.837 -0.6242 -0.5533 -0.3756
15929SOL    HW148365   2.220   8.886   1.742 -1.7414  0.8178 -0.1856
15929SOL    HW248366   2.247   8.966   1.868 -1.0462 -0.8363  0.7435
15930SOL     OW48367   9.109   5.024   0.895 -0.0171  0.4506  0.4266
15930SOL    HW148368   9.183   5.041   0.836  0.3878  0.3846  0.9092
15930SOL    HW248369   9.035   5.008   0.837  0.0729  1.7185 -0.0613
15931SOL     OW48370   3.829   3.292   0.569  0.0685  1.0349 -0.2519
15931SOL    HW148371   3.818   3.323   0.479  0.3190  1.2232 -0.2182
15931SOL    HW248372   3.923   3.291   0.583 -0.0031  2.2309  0.4338
15932SOL     OW48373   4.983   9.840   8.324 -0.2530  0.2070 -0.0897
15932SOL    HW148374   5.075   9.812   8.327  0.7724  2.9073 -2.0282
15932SOL    HW248375   4.954   9.836   8.415  2.0162 -0.1042  0.6947
15933SOL     OW48376   5.965   7.940   0.559 -0.0867 -0.3854 -0.4351
15933SOL    HW148377   5.907   7.865   0.570  0.4162 -0.8095 -0.6097
15933SOL    HW248378   5.935   7.982   0.478 -0.3133 -0.4556 -0.3857
15934SOL     OW48379   8.992   5.083   3.228  0.1420 -0.3349 -0.0819
15934SOL    HW148380   9.002   4.989   3.210  2.4591 -0.2028  0.1584
15934SOL    HW248381   8.966   5.121   3.144 -0.0562 -1.0882 -0.3678
15935SOL     OW48382   5.961   3.900   9.292 -0.1664  0.1721  0.0436
15935SOL    HW148383   5.895   3.854   9.344 -1.0238 -0.8334 -1.8253
15935SOL    HW248384   5.952   3.992   9.316 -0.3802 -0.2694  1.7729
15936SOL     OW48385   1.760   4.310   4.916 -0.5409 -0.3667 -0.0477
15936SOL    HW148386   1.681   4.348   4.877  0.8765  1.7647 -0.9898
15936SOL    HW248387   1.795   4.254   4.846  0.8153  1.7444 -1.1545
15937SOL     OW48388   3.008   0.598   4.115  0.1870  0.4250  0.1043
15937SOL    HW148389   3.010   0.533   4.044  3.5174  1.1283 -0.6458
15937SOL    HW248390   2.992   0.681   4.071  0.1605  0.6191  0.4807
15938SOL     OW48391   6.985  -0.031   2.515  0.3231  0.4188 -0.4560
15938SOL    HW148392   7.070  -0.021   2.472  0.5385  1.7529  0.2271
15938SOL    HW248393   6.962   0.058   2.543 -1.8988  0.3143 -1.7338
15939SOL     OW48394   5.447   5.657   9.895 -0.1787  0.0443  0.1596
15939SOL    HW148395   5.447   5.736   9.948  1.2058 -0.5533  1.1094
15939SOL    HW248396   5.371   5.667   9.837 -0.6098  1.5890  0.9349
15940SOL     OW48397   2.573   1.180   5.453 -0.5178  0.6685  0.0615
15940SOL    HW148398   2.657   1.159   5.412 -0.5712  1.1641 -0.3190
15940SOL    HW248399   2.520   1.101   5.441  0.4464 -0.2919  1.8261
15941SOL     OW48400   6.901   2.647   7.330  0.4891  0.5021  0.6752
15941SOL    HW148401   6.952   2.717   7.370  0.4771  0.4449  0.7890
15941SOL    HW248402   6.819   2.691   7.303  0.4949  0.5392  0.7173
15942SOL     OW48403   2.478   6.973   4.938 -0.2378  0.0834  0.1778
15942SOL    HW148404   2.498   6.880   4.950 -1.1514 -0.0876  0.4396
15942SOL    HW248405   2.520   7.017   5.012 -0.6388 -0.2441  0.6078
15943SOL     OW48406   3.521   2.750   8.487  0.1059 -0.2826  0.4921
15943SOL    HW148407   3.523   2.796   8.571 -0.9944  0.7601 -0.0268
15943SOL    HW248408   3.610   2.717   8.476  0.3670 -0.1350  1.8926
15944SOL     OW48409   5.032   0.344   1.204  0.1783  1.0665  0.2082
15944SOL    HW148410   5.031   0.248   1.203 -1.1874  0.9972  1.8236
15944SOL    HW248411   5.043   0.369   1.113 -1.7738 -0.6710 -0.5907
15945SOL     OW48412   6.245   6.538   1.047  0.0858  0.2216  0.3496
15945SOL    HW148413   6.152   6.556   1.060 -0.4630 -2.3957  0.6008
15945SOL    HW248414   6.265   6.578   0.962 -1.4365  0.2904 -0.0132
15946SOL     OW48415   7.349   9.945   4.495 -0.1052 -0.4306  0.2699
15946SOL    HW148416   7.299   9.864   4.499 -1.8069  0.6160  1.4653
15946SOL    HW248417   7.321   9.995   4.572  0.6699  1.4230 -0.5851
15947SOL     OW48418   7.538   3.073   9.062 -0.2883  0.3909  0.0316
15947SOL    HW148419   7.522   3.064   8.968 -0.1850  3.9789 -0.4707
15947SOL    HW248420   7.633   3.085   9.069 -0.4246  1.3344  0.4153
15948SOL     OW48421   5.615   4.894   1.030 -0.5508 -0.1757  0.4174
15948SOL    HW148422   5.692   4.900   1.086  0.1835  1.6349 -0.6943
15948SOL    HW248423   5.555   4.961   1.063 -0.8109 -0.2307  0.0739
15949SOL     OW48424   9.244   0.082   6.113  0.1671  0.5667 -0.0237
15949SOL    HW148425   9.201   0.129   6.041  0.2449 -0.5840 -0.8608
15949SOL    HW248426   9.286   0.150   6.165 -0.5841  1.4958 -0.6136
15950SOL     OW48427   2.110   4.378   4.936 -0.1830 -0.2448  0.3489
15950SOL    HW148428   2.119   4.384   5.031 -1.2732 -0.5614  0.4814
15950SOL    HW248429   2.078   4.289   4.920 -0.2280 -0.1192 -0.3025
15951SOL     OW48430   6.679   0.598   1.248  0.1765  0.2701  0.2455
15951SOL    HW148431   6.739   0.657   1.294 -0.6290 -0.0525  1.7969
15951SOL    HW248432   6.595   0.645   1.248 -0.2210 -0.4130  0.5686
15952SOL     OW48433   0.199   9.938   5.729  0.4576  0.0586  0.5175
15952SOL    HW148434   0.145   9.875   5.681 -1.2437  0.6161  1.6097
15952SOL    HW248435   0.160  10.023   5.709  1.1818  0.5250  1.0341
15953SOL     OW48436   4.868   5.212   6.646  0.0057 -0.0555  0.7645
15953SOL    HW148437   4.856   5.125   6.686 -0.3923 -0.5134 -0.3181
15953SOL    HW248438   4.787   5.227   6.598  0.2926  0.6870  0.5059
15954SOL     OW48439   0.762   5.243   8.880 -0.4735 -0.6958  0.0296
15954SOL    HW148440   0.673   5.219   8.852 -1.1627  0.1613  1.3577
15954SOL    HW248441   0.758   5.338   8.890  1.2991 -0.3168 -2.1385
15955SOL     OW48442   3.447   8.296   2.824  0.5313  0.2194 -0.0417
15955SOL    HW148443   3.518   8.253   2.775  0.6476  0.0111  0.3009
15955SOL    HW248444   3.400   8.347   2.759  1.1463  0.5556 -0.2308
15956SOL     OW48445   6.146   1.005   2.153 -0.0708  0.4075 -0.0241
15956SOL    HW148446   6.199   1.031   2.228 -0.7031  2.8283 -0.3029
15956SOL    HW248447   6.114   0.918   2.174  0.1584  0.8207  2.2937
15957SOL     OW48448   4.413   0.905   7.828  0.1114 -0.5217 -0.5176
15957SOL    HW148449   4.425   0.938   7.917 -1.1328 -0.8115 -0.2145
15957SOL    HW248450   4.485   0.843   7.815  0.3533 -0.4129  0.2581
15958SOL     OW48451   5.719   1.096   6.629 -0.1643 -0.0714 -0.0096
15958SOL    HW148452   5.793   1.148   6.597  0.1334  0.4777  1.4751
15958SOL    HW248453   5.647   1.159   6.635 -0.1345 -0.0916  0.6439
15959SOL     OW48454   5.271   0.912   2.279  0.0356 -0.0831 -0.7169
15959SOL    HW148455   5.304   0.828   2.248 -0.4257 -0.7048  0.4109
15959SOL    HW248456   5.349   0.963   2.299  0.3581  0.3932 -2.9398
15960SOL     OW48457   6.175   2.952   6.452 -0.0220 -0.0997 -0.0693
15960SOL    HW148458   6.215   2.882   6.400 -0.1839 -0.5786  0.4432
15960SOL    HW248459   6.218   2.947   6.537  0.2607  0.7033 -0.1596
15961SOL     OW48460   5.438   7.448   7.408  0.3976  0.0300  0.1251
15961SOL    HW148461   5.510   7.445   7.345  0.0499 -0.9797 -0.2486
15961SOL    HW248462   5.481   7.441   7.493  0.7723 -0.1681 -0.0770
15962SOL     OW48463   4.462   0.439   4.325  0.1207  0.8722 -0.6163
15962SOL    HW148464   4.369   0.447   4.307 -0.1067 -0.6920 -0.2940
15962SOL    HW248465   4.495   0.383   4.255  0.4765  0.0195  0.2108
15963SOL     OW48466   1.946   3.305   2.456 -0.5008  0.6541  0.2661
15963SOL    HW148467   2.038   3.280   2.466 -0.8698 -1.0108 -0.2565
15963SOL    HW248468   1.908   3.295   2.543 -0.4548  0.1824  0.2330
15964SOL     OW48469   6.328   1.413   2.292  0.4007 -0.1252  0.8561
15964SOL    HW148470   6.358   1.333   2.248 -0.3977  0.0587 -0.0683
15964SOL    HW248471   6.282   1.462   2.224 -1.6499 -0.2202  2.0754
15965SOL     OW48472   7.865   6.401   9.578 -0.1895  0.1489  0.1016
15965SOL    HW148473   7.901   6.356   9.502  0.6244  2.1004 -0.7303
15965SOL    HW248474   7.771   6.404   9.562 -0.1356 -0.3343 -0.3278
15966SOL     OW48475   5.383   0.815   9.047 -0.2894  0.4109 -0.0718
15966SOL    HW148476   5.367   0.900   9.007 -1.8898  0.5980  0.8573
15966SOL    HW248477   5.302   0.765   9.031  0.8247 -1.1590 -1.0868
15967SOL     OW48478   8.530   2.398   8.814 -0.2553 -0.0538 -0.0743
15967SOL    HW148479   8.562   2.317   8.852 -0.2724  0.0134  0.0852
15967SOL    HW248480   8.439   2.380   8.792  0.2955 -0.7449 -1.9579
15968SOL     OW48481   5.529   7.404   9.861  0.2638 -0.0745  0.2414
15968SOL    HW148482   5.601   7.375   9.917  1.0024 -0.7395 -1.0091
15968SOL    HW248483   5.472   7.453   9.920  2.2094  1.3137  1.1089
15969SOL     OW48484   4.256   0.596   8.763  0.1931 -0.2124  0.8435
15969SOL    HW148485   4.340   0.555   8.743 -0.0662 -1.5290  2.1984
15969SOL    HW248486   4.273   0.648   8.841 -0.2635 -0.6217  1.2275
15970SOL     OW48487   2.821   7.903   0.453 -0.3245  0.4050  0.8220
15970SOL    HW148488   2.827   7.999   0.446 -0.4017  0.3518 -0.0623
15970SOL    HW248489   2.816   7.873   0.362 -1.0174 -0.3944  1.1167
15971SOL     OW48490   4.619   7.411   2.382  0.0256 -0.0994  1.0053
15971SOL    HW148491   4.670   7.484   2.417  0.0027 -0.1636  1.1726
15971SOL    HW248492   4.678   7.369   2.320 -0.7461  1.4803 -0.9293
15972SOL     OW48493   5.327   8.710   1.640  0.3302  0.0095  0.0605
15972SOL    HW148494   5.406   8.760   1.663  0.0880 -0.3440  1.8364
15972SOL    HW248495   5.260   8.777   1.624  0.8187  0.2965 -0.8442
15973SOL     OW48496   5.911   4.014   2.938  0.7876 -0.1121 -0.2545
15973SOL    HW148497   5.915   3.925   2.971 -1.8999  0.1979  1.2380
15973SOL    HW248498   5.909   4.004   2.842 -0.7816 -1.7948 -0.1079
15974SOL     OW48499   3.199   1.842   9.474  0.1800  0.6110 -0.0563
15974SOL    HW148500   3.263   1.772   9.460  0.0416  0.5992 -0.6471
15974SOL    HW248501   3.159   1.821   9.559  0.6556  0.3830  0.1178
15975SOL     OW48502   4.629   4.974   2.896 -0.1920  0.1849 -0.2687
15975SOL    HW148503   4.613   4.881   2.910 -1.5552  0.3216 -0.7623
15975SOL    HW248504   4.671   4.979   2.810 -1.6465  0.1213 -1.0134
15976SOL     OW48505   5.326   3.096   5.637  0.1813  0.3164  0.3617
15976SOL    HW148506   5.315   3.001   5.629  1.3183  0.1078  1.0307
15976SOL    HW248507   5.241   3.132   5.612  0.2401 -0.7783 -1.6485
15977SOL     OW48508   3.455   4.626   9.192 -0.0766 -0.3005  0.2584
15977SOL    HW148509   3.535   4.679   9.186  0.1261 -0.1942  2.9768
15977SOL    HW248510   3.486   4.539   9.216 -0.7907  0.0013  2.4193
15978SOL     OW48511   4.713   4.926   2.304  0.1916  0.0728  0.1191
15978SOL    HW148512   4.695   4.832   2.305 -3.1567  0.5791 -0.1304
15978SOL    HW248513   4.690   4.955   2.392  2.4577  0.5383  0.6035
15979SOL     OW48514   0.696   1.043   1.222  0.4406 -0.0771  0.0460
15979SOL    HW148515   0.720   0.990   1.145 -1.8514 -1.0099 -0.1276
15979SOL    HW248516   0.600   1.038   1.225  0.1633  3.1632  0.7179
15980SOL     OW48517   3.640   4.395   3.714  0.0584  0.5721 -0.4019
15980SOL    HW148518   3.692   4.471   3.736 -2.4475  2.4402 -0.5251
15980SOL    HW248519   3.603   4.366   3.797 -2.0643  1.9685 -0.7766
15981SOL     OW48520   8.933   8.039   6.514 -0.3047 -0.0591 -0.6127
15981SOL    HW148521   8.941   7.961   6.570 -1.2413  0.9074  0.9552
15981SOL    HW248522   9.006   8.095   6.539  0.6854 -0.6204 -2.1252
15982SOL     OW48523   1.119   4.971   6.104 -0.3050  0.3777  0.2033
15982SOL    HW148524   1.055   4.949   6.172  0.8477 -0.5214  1.0298
15982SOL    HW248525   1.192   4.911   6.119  0.0652  0.2757 -1.7317
15983SOL     OW48526   0.328   5.163   8.298 -0.2147  0.1690 -0.2523
15983SOL    HW148527   0.400   5.195   8.352 -1.0923  2.7272 -0.4697
15983SOL    HW248528   0.370   5.135   8.217  0.6880  0.0582  0.2367
15984SOL     OW48529   5.717   3.109   4.912 -0.2049  0.1475  0.0714
15984SOL    HW148530   5.689   3.050   4.982 -0.4132 -1.3796 -1.2438
15984SOL    HW248531   5.636   3.134   4.868  0.1240 -1.9513 -1.9275
15985SOL     OW48532   8.045   8.592   1.267 -0.1317  0.2143  0.1082
15985SOL    HW148533   8.123   8.537   1.275  0.2709  0.6665 -0.6390
15985SOL    HW248534   7.974   8.538   1.302  0.4116 -0.4282  0.2390
15986SOL     OW48535   1.143   2.204   1.512 -0.0292 -0.3143  0.2910
15986SOL    HW148536   1.139   2.291   1.553  1.4698 -0.0799  0.0060
15986SOL    HW248537   1.185   2.149   1.578  0.0685 -0.5480  0.0329
15987SOL     OW48538   0.885   6.341   3.808 -0.0000  0.3019 -0.5991
15987SOL    HW148539   0.794   6.367   3.818 -0.3714 -1.5669  2.4257
15987SOL    HW248540   0.927   6.415   3.764 -2.5338  2.1761 -0.1032
15988SOL     OW48541   0.837   5.096   1.353 -0.2275  0.0558  0.0580
15988SOL    HW148542   0.909   5.100   1.416 -1.4370  0.1560  1.4689
15988SOL    HW248543   0.872   5.045   1.280  0.9884 -0.6522  1.1010
15989SOL     OW48544   7.474   6.996   8.121  0.6372 -0.0259 -0.6978
15989SOL    HW148545   7.401   7.057   8.116  0.7442  0.3637  1.6478
15989SOL    HW248546   7.515   7.014   8.205  1.2343 -2.6943 -0.3269
15990SOL     OW48547   1.990   0.952   2.179  0.1282 -0.0386  0.3312
15990SOL    HW148548   1.954   0.903   2.252 -0.6860 -1.6994 -1.1073
15990SOL    HW248549   1.980   1.044   2.205 -0.9409 -0.5581  1.9199
15991SOL     OW48550   3.194   0.253   9.096 -0.8179 -0.5650 -0.7789
15991SOL    HW148551   3.237   0.333   9.065  0.0526 -0.0820  1.5012
15991SOL    HW248552   3.103   0.263   9.069 -0.4441  0.5747 -1.6740
15992SOL     OW48553   5.268   6.820   5.125 -0.0182  0.7753 -0.2166
15992SOL    HW148554   5.306   6.732   5.116 -3.0743 -0.6370 -0.9290
15992SOL    HW248555   5.340   6.874   5.156  1.5741 -2.3752  2.2453
15993SOL     OW48556   5.985   0.971   2.532 -0.1282  0.0325 -0.2113
15993SOL    HW148557   6.072   1.001   2.508  0.0177  0.1665  0.4653
15993SOL    HW248558   5.956   1.032   2.600  0.0185 -1.1054  0.9212
15994SOL     OW48559   7.974   6.196   5.590 -0.1664 -0.0566 -0.4178
15994SOL    HW148560   7.978   6.285   5.624  0.6604 -0.9293  1.9661
15994SOL    HW248561   7.918   6.202   5.512  0.6310  2.6704 -0.8824
15995SOL     OW48562   5.028   8.661   6.949  0.7547 -0.3373 -0.1662
15995SOL    HW148563   4.992   8.631   6.865 -1.3941  0.8470  0.2436
15995SOL    HW248564   5.051   8.581   6.996 -0.0653 -1.1130 -1.0477
15996SOL     OW48565   8.584   9.800   3.084  0.0363  0.0067 -0.2006
15996SOL    HW148566   8.647   9.816   3.014 -0.7297  0.6990 -0.7632
15996SOL    HW248567   8.608   9.715   3.120  0.5993 -0.2425 -1.1405
15997SOL     OW48568   5.106   8.439   9.553  0.0346  0.2784  0.2333
15997SOL    HW148569   5.190   8.478   9.578  1.1143 -0.8460 -1.4288
15997SOL    HW248570   5.073   8.496   9.484  0.6287 -0.5658 -0.7788
15998SOL     OW48571   8.637   0.371   2.795 -0.0100  0.0108  0.1134
15998SOL    HW148572   8.603   0.434   2.858  0.0743  0.9596 -0.7633
15998SOL    HW248573   8.697   0.422   2.740  1.6669 -1.2880  0.6700
15999SOL     OW48574   0.079   5.439   0.264 -0.0817  0.2346  0.0925
15999SOL    HW148575   0.143   5.380   0.225 -0.7840 -1.0860  0.8594
15999SOL    HW248576   0.034   5.479   0.189 -0.2397 -0.9468 -0.4635
16000SOL     OW48577   3.892   0.800   2.561  0.3545 -0.0558  0.0583
16000SOL    HW148578   3.815   0.754   2.528  0.2932  0.4581 -0.5234
16000SOL    HW248579   3.873   0.813   2.654  0.5949 -1.6353  0.3636
16001SOL     OW48580   1.528   3.122   3.165  0.0308  0.3181 -0.1474
16001SOL    HW148581   1.485   3.204   3.141  0.1647  0.8965  1.4428
16001SOL    HW248582   1.508   3.062   3.094  1.2631  2.1591 -2.1658
16002SOL     OW48583   0.565   2.382   3.083 -0.0265  0.8079 -0.1014
16002SOL    HW148584   0.507   2.386   3.159 -1.2028  1.8781 -0.9903
16002SOL    HW248585   0.644   2.427   3.111 -0.0632  0.3485  0.7851
16003SOL     OW48586   7.066   9.987   4.262 -0.3108 -0.2618 -0.3534
16003SOL    HW148587   7.003   9.931   4.217  0.8102  0.0280 -2.3723
16003SOL    HW248588   7.101   9.931   4.332 -1.3373 -1.0837 -0.4684
16004SOL     OW48589   9.694   5.960   4.706 -0.0920 -0.4336 -0.5269
16004SOL    HW148590   9.656   5.953   4.794 -0.1085  0.3328 -0.4628
16004SOL    HW248591   9.631   6.014   4.657  1.7790  2.6344  0.1493
16005SOL     OW48592   1.347   5.415   7.991  0.2861  0.3241  0.2675
16005SOL    HW148593   1.261   5.427   7.950 -0.1571  0.0034  1.0952
16005SOL    HW248594   1.378   5.504   8.007  0.3461  0.4517 -0.5014
16006SOL     OW48595   4.700   4.860   7.931 -0.3974 -0.1400 -0.0267
16006SOL    HW148596   4.768   4.915   7.970  0.1409 -1.2290  0.6303
16006SOL    HW248597   4.741   4.820   7.855 -0.4539 -0.3997  0.0755
16007SOL     OW48598   9.479   8.745   3.048 -0.5578  0.4435 -0.2912
16007SOL    HW148599   9.425   8.666   3.036 -0.4176  0.1666  0.7768
16007SOL    HW248600   9.415   8.814   3.066 -0.6426  0.4346 -0.5581
16008SOL     OW48601   8.048   8.985   0.724  0.7876 -0.4393  0.2670
16008SOL    HW148602   8.108   8.991   0.649  1.1333 -2.9651  0.2612
16008SOL    HW248603   8.064   8.898   0.761 -1.2840 -0.2941  1.6656
16009SOL     OW48604   4.633   6.296   3.851  0.7453  0.1824 -0.3482
16009SOL    HW148605   4.679   6.217   3.879 -1.4052 -1.3905 -1.0440
16009SOL    HW248606   4.556   6.265   3.804 -1.3413  2.6217  1.1390
16010SOL     OW48607   2.606   2.795   3.128 -0.5991  0.0710 -0.3029
16010SOL    HW148608   2.603   2.803   3.223 -0.1516 -1.3889 -0.1505
16010SOL    HW248609   2.668   2.862   3.100  0.8537 -0.8469  0.6231
16011SOL     OW48610   8.318   4.175   3.099  0.5131 -0.0717 -0.1500
16011SOL    HW148611   8.335   4.268   3.111  0.2746  0.0014 -0.3659
16011SOL    HW248612   8.305   4.141   3.188 -1.8232  0.5805 -0.1814
16012SOL     OW48613   2.316   6.734   4.095 -0.3060 -0.6434 -0.0326
16012SOL    HW148614   2.384   6.736   4.162 -0.3856 -1.4040  0.0793
16012SOL    HW248615   2.318   6.821   4.056  0.9685 -0.7783 -0.2794
16013SOL     OW48616   3.512   6.666   8.691  0.5925  0.0229 -0.1977
16013SOL    HW148617   3.432   6.655   8.743  1.5141  0.4709  1.3831
16013SOL    HW248618   3.483   6.714   8.614 -0.4839  1.2952  0.9418
16014SOL     OW48619   7.619   7.950   5.946  0.5825 -0.3433  0.9013
16014SOL    HW148620   7.532   7.956   5.986  0.7746 -0.1353  1.2866
16014SOL    HW248621   7.613   7.874   5.888 -0.0634  0.0682  0.4143
16015SOL     OW48622   4.443   6.230   1.706 -0.3273 -0.2232 -0.2519
16015SOL    HW148623   4.349   6.222   1.720 -0.4752  2.5747  1.1138
16015SOL    HW248624   4.482   6.186   1.782 -0.7296  1.9815  1.3323
16016SOL     OW48625   0.828   5.817   7.552 -0.3954 -0.2091  0.1276
16016SOL    HW148626   0.771   5.824   7.476  1.1125  0.1353 -0.9992
16016SOL    HW248627   0.887   5.744   7.532  0.2356  0.0945  0.8081
16017SOL     OW48628   7.480   7.757   8.543 -0.0052 -0.2921 -0.0047
16017SOL    HW148629   7.426   7.692   8.587 -1.8326 -0.3394 -2.1349
16017SOL    HW248630   7.555   7.708   8.509 -1.5359 -1.4751 -1.9068
16018SOL     OW48631   3.790   7.724   3.937 -0.0589 -0.0433 -0.2627
16018SOL    HW148632   3.769   7.703   3.846 -1.1296 -0.3377  0.0427
16018SOL    HW248633   3.775   7.642   3.984  1.3911 -0.1559  0.0507
16019SOL     OW48634   0.656   1.400   6.764 -0.6199 -0.3565  0.5185
16019SOL    HW148635   0.656   1.365   6.853 -0.3203 -2.5464 -0.2920
16019SOL    HW248636   0.578   1.456   6.761 -0.3066  0.2649  2.3020
16020SOL     OW48637   2.688   5.511   4.113  0.2104 -0.0206 -0.4655
16020SOL    HW148638   2.666   5.483   4.202 -1.4070  1.5354 -0.3274
16020SOL    HW248639   2.767   5.565   4.124 -0.3155  0.6510  0.1332
16021SOL     OW48640   4.540   6.921   7.785 -0.0145  0.5543  0.0444
16021SOL    HW148641   4.609   6.854   7.786  0.2421  0.7767 -1.2939
16021SOL    HW248642   4.558   6.973   7.707 -1.0127  1.3554  0.3260
16022SOL     OW48643   9.301   3.868   4.779  0.1213  0.1091 -0.1393
16022SOL    HW148644   9.233   3.919   4.733 -0.0430 -0.1550 -0.1945
16022SOL    HW248645   9.366   3.932   4.806  0.6102  0.1878 -1.4255
16023SOL     OW48646   4.805   9.024   4.796  0.4252 -0.2105 -0.1529
16023SOL    HW148647   4.787   8.990   4.708  0.3524  0.2249 -0.3060
16023SOL    HW248648   4.734   8.988   4.850 -0.2712  0.5751 -0.5308
16024SOL     OW48649   5.763   3.545   8.388  0.4562  0.1461 -0.0939
16024SOL    HW148650   5.703   3.567   8.318  0.7628  1.0689 -0.0868
16024SOL    HW248651   5.787   3.454   8.372  1.6727  0.7525 -2.0657
16025SOL     OW48652   2.490   7.583   8.394 -0.0162 -0.2485  0.2526
16025SOL    HW148653   2.518   7.610   8.481  0.7993  4.4370 -1.1651
16025SOL    HW248654   2.395   7.594   8.395 -0.0562 -0.6034  0.6362
16026SOL     OW48655   3.744   7.543   7.950  0.2316  0.1656 -0.1700
16026SOL    HW148656   3.690   7.523   7.874 -1.7018  1.1485  0.8491
16026SOL    HW248657   3.711   7.628   7.981 -0.3011 -0.9739  2.7464
16027SOL     OW48658   0.175   5.917   9.787 -0.4316  0.0615  0.5729
16027SOL    HW148659   0.216   5.854   9.727  0.8674 -1.8431  3.2452
16027SOL    HW248660   0.248   5.963   9.828 -1.3293  2.2452 -0.1376
16028SOL     OW48661   1.903   6.884   5.079  0.4170 -0.3336 -0.5890
16028SOL    HW148662   1.997   6.895   5.094  0.1382  2.2095 -0.2694
16028SOL    HW248663   1.887   6.791   5.095  2.6889 -0.6307  0.3709
16029SOL     OW48664   3.948   9.574   2.634  0.3036 -0.0006 -0.3949
16029SOL    HW148665   4.011   9.583   2.562  1.8360 -2.9832  0.4173
16029SOL    HW248666   3.990   9.618   2.708 -0.1035  0.8359 -0.6473
16030SOL     OW48667   5.922   0.302   7.271  0.1441  0.4470  0.5768
16030SOL    HW148668   5.897   0.343   7.354  2.7174  0.8037  1.2526
16030SOL    HW248669   5.963   0.373   7.221 -0.3708 -0.0309 -0.5587
16031SOL     OW48670   3.240   4.774   2.657  0.4298  0.1422 -0.3331
16031SOL    HW148671   3.298   4.779   2.733  0.6896  0.4682 -0.5524
16031SOL    HW248672   3.182   4.849   2.666 -0.7287 -0.8066  0.5015
16032SOL     OW48673   3.675   9.499   2.533  0.7623  0.1647 -0.9208
16032SOL    HW148674   3.707   9.431   2.474  1.1615 -0.0968 -0.4196
16032SOL    HW248675   3.751   9.519   2.589 -0.2001 -1.1644  0.9624
16033SOL     OW48676   3.653   0.184   2.577 -0.5041 -0.3431  0.0260
16033SOL    HW148677   3.584   0.248   2.595 -0.7337 -0.2673 -1.0920
16033SOL    HW248678   3.607   0.102   2.559 -0.3268 -0.2141 -1.0511
16034SOL     OW48679   4.063   1.350   6.646 -0.2696 -0.2854 -0.2808
16034SOL    HW148680   4.077   1.435   6.688  0.4010 -0.1976 -0.6708
16034SOL    HW248681   4.098   1.360   6.558 -0.8441 -0.7495 -0.5705
16035SOL     OW48682   8.570   8.940   8.591  0.4312 -0.1438  0.2418
16035SOL    HW148683   8.515   9.018   8.594  0.1878 -0.3370  1.0212
16035SOL    HW248684   8.602   8.937   8.501 -0.3851  0.2785 -0.0736
16036SOL     OW48685   3.239   7.945   3.587 -0.4736  0.6583  0.0487
16036SOL    HW148686   3.236   7.903   3.673  0.8019  0.8677  0.2233
16036SOL    HW248687   3.260   8.037   3.605  1.9648  0.2982 -0.5254
16037SOL     OW48688   9.909   3.266   0.378  0.3745 -0.0001  0.5178
16037SOL    HW148689   9.868   3.252   0.463  2.5117  0.3682  1.6762
16037SOL    HW248690   9.925   3.360   0.373 -2.0064  0.3938 -1.4634
16038SOL     OW48691   2.793   3.152   2.453  0.4928 -0.2614 -0.7207
16038SOL    HW148692   2.807   3.079   2.513  3.9244 -0.8325 -1.9820
16038SOL    HW248693   2.768   3.110   2.370 -2.4962  0.4091 -0.2567
16039SOL     OW48694   2.891   7.206   5.359 -0.6731  0.3720 -0.2284
16039SOL    HW148695   2.875   7.236   5.449  1.1546 -0.0503  0.2920
16039SOL    HW248696   2.952   7.270   5.323  0.0074 -0.4102 -0.5224
16040SOL     OW48697   9.782   1.698   0.868 -0.4740  0.2311 -0.8736
16040SOL    HW148698   9.725   1.755   0.919 -1.4324 -0.9656 -0.5489
16040SOL    HW248699   9.791   1.619   0.923  1.0132  0.1476 -1.1856
16041SOL     OW48700   1.798   9.329   1.359 -0.3572  0.1485  0.7395
16041SOL    HW148701   1.708   9.337   1.391 -0.9202 -1.3617 -0.3204
16041SOL    HW248702   1.846   9.291   1.433 -1.2105 -1.4940  0.5045
16042SOL     OW48703   8.454   3.185   6.502  0.1442 -0.2625  0.3383
16042SOL    HW148704   8.422   3.173   6.413  1.0105 -0.2519  0.0222
16042SOL    HW248705   8.493   3.272   6.502  2.4616 -1.2129 -0.0137
16043SOL     OW48706   2.912   4.533   9.491 -0.1627  0.4983  0.3588
16043SOL    HW148707   2.832   4.586   9.487 -0.9908 -0.7445 -0.0600
16043SOL    HW248708   2.930   4.524   9.585 -1.4798 -0.5806  0.5408
16044SOL     OW48709   4.823   6.431   5.299  0.5461  0.4581 -0.5442
16044SOL    HW148710   4.876   6.352   5.308 -0.4270 -0.2057 -0.5338
16044SOL    HW248711   4.859   6.492   5.364  1.8260  0.3351 -1.1127
16045SOL     OW48712   9.982   2.190   5.468 -0.2210 -0.1081  0.0242
16045SOL    HW148713   9.998   2.100   5.497 -0.0358  0.7280  2.7956
16045SOL    HW248714   9.890   2.206   5.489  0.0381  0.6860  0.5718
16046SOL     OW48715   2.299   8.056   8.307 -0.1169  0.5785 -0.0519
16046SOL    HW148716   2.315   8.050   8.401 -0.6224  0.5433  0.0387
16046SOL    HW248717   2.337   7.976   8.271 -4.3929 -2.2136  0.7851
16047SOL     OW48718   7.955   5.928   0.753  0.2704 -0.0419  0.0087
16047SOL    HW148719   7.931   5.874   0.679 -0.3349  1.0915 -0.6585
16047SOL    HW248720   7.920   5.882   0.829  0.4935 -0.9814 -0.4491
16048SOL     OW48721   8.904   7.132   0.254 -0.1522 -0.3808  0.4617
16048SOL    HW148722   8.915   7.150   0.160 -0.3844  1.4574  0.7520
16048SOL    HW248723   8.989   7.155   0.292 -0.1974 -0.7056  0.7542
16049SOL     OW48724   0.487   9.555   9.121  1.2399 -0.6306  0.3309
16049SOL    HW148725   0.469   9.612   9.196 -3.3804 -0.2623 -0.7058
16049SOL    HW248726   0.501   9.469   9.160 -0.9064 -0.4326  1.7806
16050SOL     OW48727   0.333   8.160   2.686  0.3436 -0.3111 -0.3782
16050SOL    HW148728   0.385   8.096   2.735 -0.9341  0.7395  2.5497
16050SOL    HW248729   0.396   8.228   2.661  0.9577 -0.6681  0.1777
16051SOL     OW48730   9.502   2.422   2.751 -0.1550  0.3914  0.4579
16051SOL    HW148731   9.560   2.346   2.748 -0.5636  0.0632  0.6268
16051SOL    HW248732   9.560   2.498   2.752  0.2539  0.0954 -0.1442
16052SOL     OW48733   1.711   0.568   7.443 -0.2041  0.0111  0.3329
16052SOL    HW148734   1.635   0.524   7.405  0.7088 -1.1735 -0.1708
16052SOL    HW248735   1.782   0.553   7.380  0.1718  2.1846  0.1676
16053SOL     OW48736   8.233   5.056   6.922  0.2812  0.2710 -0.5820
16053SOL    HW148737   8.171   5.128   6.935 -1.2472 -0.8355 -1.4043
16053SOL    HW248738   8.178   4.980   6.903  1.7009 -1.5917  2.0405
16054SOL     OW48739   0.157   4.498   8.076  0.4186  0.1770  0.4279
16054SOL    HW148740   0.181   4.413   8.113  0.4018  0.8833  2.1184
16054SOL    HW248741   0.061   4.495   8.069  0.5501 -0.9543 -2.1687
16055SOL     OW48742   7.456   2.785   2.562 -0.0756 -0.3597  0.1509
16055SOL    HW148743   7.450   2.765   2.655 -0.1614  0.3769  0.3089
16055SOL    HW248744   7.390   2.730   2.520  0.4218 -1.1897  0.4428
16056SOL     OW48745   0.870   7.980   7.614  0.0245  0.4129 -0.0973
16056SOL    HW148746   0.810   8.052   7.594  0.3634  0.2916 -1.6193
16056SOL    HW248747   0.945   7.994   7.556  0.6943 -0.4249  0.5448
16057SOL     OW48748   8.134   5.380   0.945 -0.1059 -0.1420  0.1549
16057SOL    HW148749   8.227   5.404   0.946  0.1455 -1.0445 -0.4146
16057SOL    HW248750   8.125   5.323   0.869 -0.6330 -1.9348  1.5059
16058SOL     OW48751   5.690   9.258   7.780 -0.1488  0.2529 -0.2234
16058SOL    HW148752   5.677   9.178   7.831  2.9876 -1.7490 -2.2430
16058SOL    HW248753   5.606   9.273   7.737 -0.8228 -1.9911  0.1857
16059SOL     OW48754   6.784   2.682   7.935 -0.2334 -0.2747  0.3859
16059SOL    HW148755   6.843   2.728   7.875  1.1032 -1.7249  0.5348
16059SOL    HW248756   6.842   2.633   7.993 -1.5426 -4.1356 -1.2914
16060SOL     OW48757   1.685   5.139   5.773  0.1618 -0.0297  0.0727
16060SOL    HW148758   1.679   5.150   5.678  0.9004 -0.2220 -0.0013
16060SOL    HW248759   1.748   5.205   5.801 -0.1565  0.1184  0.4519
16061SOL     OW48760   1.316   4.480   5.013 -0.0040  0.1325 -0.5347
16061SOL    HW148761   1.257   4.406   5.028  0.1054  0.0245 -0.6429
16061SOL    HW248762   1.257   4.554   4.999 -0.1587  0.6635  2.3189
16062SOL     OW48763   3.600   1.956   6.058 -0.4054  0.1828 -0.2869
16062SOL    HW148764   3.530   1.895   6.036 -0.4479  0.5695 -1.2851
16062SOL    HW248765   3.604   2.017   5.983  1.1357  0.0248 -0.3829
16063SOL     OW48766   8.283   0.040   9.075 -0.2649  0.4279 -0.1488
16063SOL    HW148767   8.236  -0.005   9.145  0.7998  0.7614  0.8152
16063SOL    HW248768   8.321   0.117   9.118 -1.6587  2.0327 -1.6444
16064SOL     OW48769   9.433   3.834   6.467  0.1573  0.3434  0.0130
16064SOL    HW148770   9.492   3.826   6.542  1.0868 -1.2789 -0.8214
16064SOL    HW248771   9.479   3.892   6.406 -0.2150  0.9927  0.3463
16065SOL     OW48772   4.669   6.020   2.634 -0.1254 -0.2869  0.0640
16065SOL    HW148773   4.724   6.025   2.556 -0.1365  1.1479  0.1245
16065SOL    HW248774   4.581   6.004   2.601  0.0628 -0.9031 -0.1396
16066SOL     OW48775   0.146   9.554   9.196  0.2684  0.2483 -0.0370
16066SOL    HW148776   0.219   9.521   9.144 -0.0405  0.1858 -0.4378
16066SOL    HW248777   0.160   9.517   9.283  0.1274 -0.6424 -0.3867
16067SOL     OW48778   3.257   3.695   2.877  0.7613  0.1641 -0.0263
16067SOL    HW148779   3.196   3.654   2.938 -0.5325  3.1369  0.8466
16067SOL    HW248780   3.211   3.695   2.793  0.6386  0.1144  0.0409
16068SOL     OW48781   9.133   7.601   5.137  0.2330  0.2318 -0.0529
16068SOL    HW148782   9.088   7.659   5.074  0.1367  0.2500  0.0321
16068SOL    HW248783   9.081   7.609   5.217  0.6067  0.5451  0.1592
16069SOL     OW48784   9.830   8.703   4.037 -0.2777  0.3974  0.2106
16069SOL    HW148785   9.810   8.797   4.032 -0.9963  0.3483  1.5582
16069SOL    HW248786   9.900   8.697   4.102 -0.1210  0.0170  0.0075
16070SOL     OW48787   9.762   4.133   0.054  0.2808  0.5666 -0.4934
16070SOL    HW148788   9.843   4.176   0.027 -0.0575  2.2392  0.9799
16070SOL    HW248789   9.785   4.041   0.064  1.6964  0.8183 -1.1945
16071SOL     OW48790   0.352   2.942   4.591 -0.4815  0.4145 -0.2481
16071SOL    HW148791   0.273   2.960   4.643 -0.8379  0.7097 -0.8926
16071SOL    HW248792   0.321   2.937   4.501  0.3776  1.5006 -0.6272
16072SOL     OW48793   6.555   7.602   6.667 -0.1569 -0.3602  0.2080
16072SOL    HW148794   6.506   7.619   6.586  1.1763  0.0057 -0.5556
16072SOL    HW248795   6.497   7.546   6.719 -1.6319  0.5800 -0.3682
16073SOL     OW48796   6.083   8.379   6.249  0.0594 -0.6484 -0.1065
16073SOL    HW148797   6.012   8.341   6.301  0.5057  0.2781  1.2155
16073SOL    HW248798   6.162   8.337   6.282  0.6090  1.5994  1.6547
16074SOL     OW48799   2.718   6.638   0.135  0.2260 -0.1225 -0.2703
16074SOL    HW148800   2.716   6.557   0.185 -0.3875 -0.2580 -0.5000
16074SOL    HW248801   2.742   6.706   0.198 -0.8248 -0.2450  0.2785
16075SOL     OW48802   0.121   3.450   7.408  0.6770  0.1270 -0.4795
16075SOL    HW148803   0.040   3.435   7.359  1.0366 -1.2578 -0.6895
16075SOL    HW248804   0.093   3.450   7.500  0.2978  0.6928 -0.5898
16076SOL     OW48805   0.506   9.275   0.943  0.1727 -0.5353  0.2954
16076SOL    HW148806   0.493   9.306   0.853 -1.9988 -0.9512  0.4092
16076SOL    HW248807   0.536   9.185   0.934 -3.0056 -1.6669 -0.1114
16077SOL     OW48808   3.701   6.443   1.352 -0.4742 -0.3102  0.2194
16077SOL    HW148809   3.724   6.413   1.264 -1.8334 -0.7192 -0.0162
16077SOL    HW248810   3.749   6.525   1.363  0.5063 -0.7686 -0.4975
16078SOL     OW48811   1.122   9.017   4.910 -0.1939  0.2174 -0.2662
16078SOL    HW148812   1.062   8.956   4.954  0.9729 -1.2192 -0.5537
16078SOL    HW248813   1.120   8.991   4.818 -0.4188  1.2930 -0.5767
16079SOL     OW48814   3.946   1.854   7.411 -0.3509 -0.0104  0.0010
16079SOL    HW148815   3.918   1.920   7.348  0.9278  0.6249  0.0732
16079SOL    HW248816   3.923   1.892   7.496  2.5773  1.5356  0.2116
16080SOL     OW48817   2.887   3.041   1.558 -0.7933 -0.1512 -0.1037
16080SOL    HW148818   2.976   3.016   1.586  0.1451  1.4886 -1.4523
16080SOL    HW248819   2.862   2.972   1.497 -0.0356 -0.1168 -0.4701
16081SOL     OW48820   4.243   1.862   9.784  0.6034 -0.1179  0.2720
16081SOL    HW148821   4.284   1.947   9.801  1.3908 -0.4954  0.3107
16081SOL    HW248822   4.210   1.833   9.869  2.8286 -1.1166  0.8681
16082SOL     OW48823   7.496   8.202   2.647 -0.4754 -0.4313  0.0607
16082SOL    HW148824   7.461   8.113   2.642 -3.1054  0.5327 -0.5832
16082SOL    HW248825   7.497   8.232   2.556 -0.5296  0.4758  0.3429
16083SOL     OW48826   7.011   8.785   8.845 -0.6397 -0.3371  0.0517
16083SOL    HW148827   7.061   8.705   8.827  0.5987 -0.4635  3.3673
16083SOL    HW248828   6.920   8.757   8.843 -0.2285 -1.8658  1.1010
16084SOL     OW48829   7.100   4.132   5.056 -0.0870  0.3533  0.2792
16084SOL    HW148830   7.157   4.189   5.108  0.0601  0.5064 -0.0469
16084SOL    HW248831   7.011   4.158   5.083 -0.0064 -0.2991  1.2246
16085SOL     OW48832   8.539   6.434   5.284  0.1705 -0.4210  0.2418
16085SOL    HW148833   8.457   6.416   5.239  0.4589  0.0461 -0.4984
16085SOL    HW248834   8.586   6.350   5.283 -1.1295 -1.2426  2.5161
16086SOL     OW48835   6.334   9.164   6.168 -0.0689  0.1325 -0.4691
16086SOL    HW148836   6.398   9.131   6.105 -1.5518  0.1824 -2.0690
16086SOL    HW248837   6.273   9.091   6.180  0.0809  0.1948  0.7900
16087SOL     OW48838   6.809   8.492   3.924 -0.1345 -0.4908 -0.9650
16087SOL    HW148839   6.830   8.401   3.903  1.0672 -0.7210  1.0224
16087SOL    HW248840   6.819   8.538   3.841  1.7382 -1.7667 -1.5167
16088SOL     OW48841   2.014   1.664   8.738  0.1117  0.0880  0.0438
16088SOL    HW148842   2.073   1.666   8.813 -0.0654 -0.8791  0.2341
16088SOL    HW248843   1.937   1.618   8.770 -0.2511  0.2759 -0.5402
16089SOL     OW48844   7.683   2.148   3.565  0.1724 -0.0553  0.2701
16089SOL    HW148845   7.641   2.198   3.495  0.9536 -0.6624 -0.6435
16089SOL    HW248846   7.634   2.173   3.644 -1.7266 -0.5262 -0.7013
16090SOL     OW48847   6.129   5.133   5.343  0.1826 -0.5324 -0.0736
16090SOL    HW148848   6.055   5.074   5.326  0.3056 -1.7697  3.0736
16090SOL    HW248849   6.096   5.196   5.406  1.5632 -0.5917  0.7406
16091SOL     OW48850   6.404   7.808   2.724  0.0983 -0.0234  0.3693
16091SOL    HW148851   6.476   7.845   2.672 -2.0357  4.5882  0.2119
16091SOL    HW248852   6.445   7.783   2.807  2.0738  1.7056 -0.0024
16092SOL     OW48853   2.635   2.553   8.555 -0.8513 -0.3784 -0.0064
16092SOL    HW148854   2.572   2.545   8.627 -0.2197 -2.8139  0.3520
16092SOL    HW248855   2.601   2.496   8.487  0.9066 -1.7747  0.1992
16093SOL     OW48856   9.606   9.125   5.307 -0.4642  0.0198 -0.0868
16093SOL    HW148857   9.648   9.169   5.233  1.7873 -1.6910  0.0563
16093SOL    HW248858   9.622   9.182   5.382  1.5547 -0.4932 -0.0778
16094SOL     OW48859   9.262   5.739   0.725 -0.1741  0.8668  0.0132
16094SOL    HW148860   9.188   5.738   0.787 -0.1574 -1.1555  0.0702
16094SOL    HW248861   9.333   5.696   0.772  0.2659  0.5257 -0.9415
16095SOL     OW48862   8.632   8.688   9.887  0.0198 -0.1636  0.2102
16095SOL    HW148863   8.586   8.668   9.968  1.7993  0.3195  1.3796
16095SOL    HW248864   8.707   8.627   9.886  0.2185  0.0686 -0.9019
16096SOL     OW48865   1.941   2.122   7.912  0.3067 -0.1000 -0.2203
16096SOL    HW148866   1.868   2.061   7.921  0.4455 -0.4997 -1.5859
16096SOL    HW248867   1.924   2.189   7.978 -0.7356 -0.7343  0.1810
16097SOL     OW48868   6.352   9.642   2.576  0.5302  0.7178  0.2365
16097SOL    HW148869   6.396   9.705   2.520  1.5687  0.6397  0.9352
16097SOL    HW248870   6.413   9.628   2.649  0.5909 -1.5119 -0.1768
16098SOL     OW48871   1.828   7.871   3.824 -0.9244 -0.1060 -0.3559
16098SOL    HW148872   1.845   7.963   3.806  1.6420 -0.2755  0.6511
16098SOL    HW248873   1.768   7.871   3.898 -1.3395  0.7432 -0.6871
16099SOL     OW48874   4.392   6.373   1.286 -0.1966 -0.4409 -0.9707
16099SOL    HW148875   4.468   6.344   1.335  0.0416  1.5139 -0.1003
16099SOL    HW248876   4.392   6.319   1.207  1.0690 -1.6618 -0.1680
16100SOL     OW48877   6.053   6.108   2.998  0.1029  0.7402 -0.5620
16100SOL    HW148878   6.139   6.141   2.971 -0.5421  1.4868 -1.7635
16100SOL    HW248879   6.049   6.020   2.961  0.1684  0.8779 -0.8999
16101SOL     OW48880   9.240   1.896   2.927  0.3360  0.0788  0.1522
16101SOL    HW148881   9.156   1.924   2.890 -1.3884 -2.3460  1.8441
16101SOL    HW248882   9.292   1.869   2.851 -1.3272 -0.5367 -0.8317
16102SOL     OW48883   2.902   6.348   8.486 -0.2745 -0.0452  0.1413
16102SOL    HW148884   2.847   6.324   8.412  0.8176  1.7173 -1.3068
16102SOL    HW248885   2.989   6.315   8.463  0.1378  0.7652  0.4945
16103SOL     OW48886   6.591   2.022   4.041 -0.0630  0.2535  0.1071
16103SOL    HW148887   6.574   1.969   4.119  2.1642  0.7549  0.9829
16103SOL    HW248888   6.604   1.957   3.971  0.6273 -0.3101  0.7387
16104SOL     OW48889   4.380   2.739   6.019 -0.5758 -0.5603  0.5485
16104SOL    HW148890   4.404   2.651   5.991 -3.3686 -0.9138 -1.1882
16104SOL    HW248891   4.453   2.794   5.993  0.8823 -2.2109  0.9648
16105SOL     OW48892   7.507   1.066   0.495  1.0157 -0.1486 -0.1590
16105SOL    HW148893   7.451   1.004   0.447  0.8771  0.1938 -0.4483
16105SOL    HW248894   7.594   1.027   0.493  0.1807 -2.8930  3.9491
16106SOL     OW48895   7.899   7.602   5.267  0.7766 -0.1684  0.0622
16106SOL    HW148896   7.838   7.545   5.313  0.6918 -1.2972 -1.4077
16106SOL    HW248897   7.934   7.659   5.336  0.0219 -1.2234  1.3691
16107SOL     OW48898   2.929   6.511   1.566  0.0103 -0.2330  0.2197
16107SOL    HW148899   2.906   6.446   1.633  2.8922 -0.4973  1.0992
16107SOL    HW248900   2.972   6.581   1.615 -0.7878  1.1530 -1.0218
16108SOL     OW48901   7.446   2.863   2.071 -0.1574 -0.5238 -0.5940
16108SOL    HW148902   7.363   2.895   2.106  0.2341 -0.3297  0.1644
16108SOL    HW248903   7.475   2.933   2.012 -1.5599 -1.5070 -2.5548
16109SOL     OW48904   1.691   2.143   9.323 -0.7380  0.0142  0.0339
16109SOL    HW148905   1.661   2.232   9.306 -1.1324 -0.1049  0.0948
16109SOL    HW248906   1.642   2.089   9.261 -0.7464 -0.1991  0.2237
16110SOL     OW48907   3.345   1.477   9.394  0.1799 -0.0135 -0.3368
16110SOL    HW148908   3.345   1.487   9.299 -0.8482  1.0539 -0.2446
16110SOL    HW248909   3.284   1.405   9.410  1.9080 -1.6118 -0.5667
16111SOL     OW48910   6.955   7.878   5.984  0.3287 -0.0449  0.7275
16111SOL    HW148911   7.011   7.905   5.911  0.5507  0.8343  1.2054
16111SOL    HW248912   6.900   7.809   5.948  0.7842  0.0281 -0.1306
16112SOL     OW48913   1.076   2.344   8.205  0.5652  0.0633 -0.1324
16112SOL    HW148914   1.080   2.392   8.122 -0.9472 -0.6410 -0.6553
16112SOL    HW248915   1.162   2.357   8.244  0.4693  2.5990 -0.5592
16113SOL     OW48916   2.768   5.984   0.705 -0.2117  0.1700 -0.2130
16113SOL    HW148917   2.781   6.011   0.796 -0.1385 -1.8792  0.4374
16113SOL    HW248918   2.820   5.904   0.696  0.0793  0.5299 -2.1873
16114SOL     OW48919   5.746   1.825   8.695 -0.1970 -0.4032 -0.0093
16114SOL    HW148920   5.689   1.899   8.712  0.4522  0.1052 -0.0253
16114SOL    HW248921   5.687   1.757   8.662 -0.6667  0.4506 -1.0174
16115SOL     OW48922   2.638   5.999   3.316  0.2167  0.3710 -0.1831
16115SOL    HW148923   2.715   6.035   3.360 -0.2969 -0.4769  1.4913
16115SOL    HW248924   2.564   6.043   3.356 -0.3397 -1.3558  0.7868
16116SOL     OW48925   2.672   0.073   4.081  0.0191  0.2938  0.1565
16116SOL    HW148926   2.702   0.051   4.169  1.6958  0.9884 -0.1951
16116SOL    HW248927   2.741   0.039   4.024 -0.1711  1.3984 -0.7555
16117SOL     OW48928   9.739   5.047   2.928 -0.3026 -0.4576 -0.3556
16117SOL    HW148929   9.786   4.989   2.987 -0.7794 -0.5117 -0.0210
16117SOL    HW248930   9.797   5.122   2.916 -0.0249 -0.6397 -0.1544
16118SOL     OW48931   3.478   5.793   1.537  0.2497  0.4728  0.0878
16118SOL    HW148932   3.505   5.758   1.453  2.0646  1.1239  0.3501
16118SOL    HW248933   3.506   5.885   1.535 -0.2132  0.6590  1.1689
16119SOL     OW48934   7.803   2.437   5.627  0.2651  0.1809 -0.3695
16119SOL    HW148935   7.712   2.414   5.605 -0.0409 -0.3031  1.3065
16119SOL    HW248936   7.828   2.499   5.559 -1.2549  0.1681 -0.9903
16120SOL     OW48937   0.336   1.179   7.293 -0.2955 -0.8938 -0.2391
16120SOL    HW148938   0.315   1.183   7.200  0.8541  1.1748 -0.4872
16120SOL    HW248939   0.405   1.114   7.300  0.7563  0.0843 -1.1381
16121SOL     OW48940   5.007   7.632   5.546  0.0797 -0.1973  0.4102
16121SOL    HW148941   4.965   7.687   5.613 -2.1620 -1.0955 -0.1499
16121SOL    HW248942   4.936   7.575   5.515  1.6823 -1.5580 -0.9170
16122SOL     OW48943   7.448   3.440   6.486 -0.1070 -0.0098 -0.1499
16122SOL    HW148944   7.460   3.534   6.473 -2.7636  0.4033 -0.1191
16122SOL    HW248945   7.533   3.402   6.465  0.8822  2.3306 -0.7006
16123SOL     OW48946   4.508   9.090   9.394  0.0135 -0.1065 -0.1313
16123SOL    HW148947   4.599   9.120   9.386  0.2737 -0.4042  1.3300
16123SOL    HW248948   4.509   9.002   9.355  0.3947 -0.1669  0.0031
16124SOL     OW48949   9.256   5.047   7.793  0.2939 -0.1451  0.1272
16124SOL    HW148950   9.340   5.079   7.826 -0.6932  0.5983  2.1158
16124SOL    HW248951   9.218   5.122   7.747  0.0842  0.0056  0.5400
16125SOL     OW48952   5.372   1.348   7.875 -0.1762 -0.5531 -1.0155
16125SOL    HW148953   5.301   1.296   7.836 -0.1327 -1.8321  0.5294
16125SOL    HW248954   5.350   1.352   7.968  1.3536 -0.2687 -0.6423
16126SOL     OW48955   9.287   8.750   9.028 -0.4524 -0.1474  0.4452
16126SOL    HW148956   9.311   8.701   9.107  0.6956 -2.7603 -1.3470
16126SOL    HW248957   9.191   8.750   9.028 -0.4730  0.4908  2.1461
16127SOL     OW48958   6.820   5.502   2.097 -0.6755 -0.0283 -0.2617
16127SOL    HW148959   6.851   5.545   2.177 -1.6702  0.8972 -0.3538
16127SOL    HW248960   6.892   5.445   2.071  0.1375  0.5704  0.6199
16128SOL     OW48961   5.186   3.815   3.211  0.1865 -0.5932 -0.3367
16128SOL    HW148962   5.163   3.898   3.170 -2.8654 -0.0388  2.1083
16128SOL    HW248963   5.280   3.805   3.196 -0.1054  1.1115 -4.3855
16129SOL     OW48964   2.468   4.818   3.020 -0.2119 -0.2483  0.1646
16129SOL    HW148965   2.515   4.888   2.976 -1.6812  0.0420 -1.0363
16129SOL    HW248966   2.381   4.819   2.980 -0.9814 -1.2954  1.7033
16130SOL     OW48967   9.155   5.860   3.007  0.0889 -0.2701  0.2983
16130SOL    HW148968   9.222   5.793   2.991  1.6687  1.2485  0.3156
16130SOL    HW248969   9.074   5.810   3.017  1.3653 -2.2779  1.3826
16131SOL     OW48970   4.831   9.242   0.837 -0.3083 -0.1710  0.3761
16131SOL    HW148971   4.847   9.310   0.903  0.0042 -0.3057  0.4412
16131SOL    HW248972   4.829   9.289   0.754 -2.1806  0.2257  0.5890
16132SOL     OW48973   9.435   6.387   7.133  0.2003  0.3850  0.3982
16132SOL    HW148974   9.450   6.378   7.039  1.8137 -1.5669  0.7851
16132SOL    HW248975   9.376   6.315   7.155 -0.2893  0.9234  0.8849
16133SOL     OW48976   4.864   1.923   1.267  0.4040  0.5390  0.3404
16133SOL    HW148977   4.773   1.899   1.249  0.4065 -0.4436  1.4982
16133SOL    HW248978   4.906   1.923   1.181 -0.5424  0.3212 -0.1304
16134SOL     OW48979   2.832   6.320   2.762 -0.0955  0.2994  0.1956
16134SOL    HW148980   2.894   6.278   2.822  0.3029  1.2609  0.4776
16134SOL    HW248981   2.791   6.247   2.716  0.8437 -0.3897  0.4000
16135SOL     OW48982   7.490   9.464   0.034 -0.5205 -0.2142 -0.1280
16135SOL    HW148983   7.442   9.430   0.110 -0.7573 -0.6956 -0.4888
16135SOL    HW248984   7.535   9.388  -0.002  0.3631  0.1945  0.0791
16136SOL     OW48985   6.463   7.845   4.033  0.2715 -0.0751 -0.2269
16136SOL    HW148986   6.409   7.918   4.062 -0.5453  0.3831 -2.7250
16136SOL    HW248987   6.521   7.882   3.966 -0.0048 -1.6400 -1.3870
16137SOL     OW48988   3.532   0.205   5.663 -0.8476  0.1373  0.1291
16137SOL    HW148989   3.579   0.127   5.693 -0.1218 -0.3745 -2.1478
16137SOL    HW248990   3.440   0.185   5.680 -0.6201 -0.8929  0.2539
16138SOL     OW48991   5.454   1.250   3.759 -0.3999 -0.3118  0.1169
16138SOL    HW148992   5.360   1.258   3.740 -0.2510  0.0557 -0.4631
16138SOL    HW248993   5.462   1.164   3.801 -1.3366  0.5884  2.3181
16139SOL     OW48994   9.107   8.383   0.052 -0.1617  0.0266  0.1149
16139SOL    HW148995   9.125   8.467   0.094 -0.3655 -0.6549  1.6330
16139SOL    HW248996   9.093   8.322   0.125  1.6055 -1.6939 -0.8805
16140SOL     OW48997   0.962   2.941   6.988 -0.1035 -0.3304 -0.2219
16140SOL    HW148998   0.978   3.019   6.935 -0.7693 -0.7342 -1.0414
16140SOL    HW248999   0.910   2.972   7.062  1.3451  0.3450  0.5491
16141SOL     OW49000   8.924   6.964   1.651 -0.5553  0.5102 -0.1384
16141SOL    HW149001   8.963   6.985   1.736 -0.9627  0.7974 -0.0149
16141SOL    HW249002   8.863   7.037   1.635 -1.1823 -0.0204 -0.2286
16142SOL     OW49003   9.486   6.685   2.481 -0.7076  0.0655 -0.2571
16142SOL    HW149004   9.560   6.745   2.474 -0.8128  0.1480 -0.6975
16142SOL    HW249005   9.490   6.652   2.571 -1.8527  2.2748  0.6862
16143SOL     OW49006   4.960  -0.010   5.342 -0.0476  0.5264 -0.2526
16143SOL    HW149007   5.027   0.036   5.291  0.1652 -0.8210 -1.2480
16143SOL    HW249008   4.887  -0.021   5.281 -0.5792  0.6457  0.3571
16144SOL     OW49009   2.856   8.235   3.564 -0.3520  0.3702  0.2013
16144SOL    HW149010   2.896   8.322   3.561 -0.2719  0.3257 -0.1044
16144SOL    HW249011   2.842   8.212   3.472 -1.6463  0.6390  0.3037
16145SOL     OW49012   2.816   9.877   0.098 -1.0569  0.2821 -0.1156
16145SOL    HW149013   2.824   9.796   0.148  0.2967  2.4239  3.5668
16145SOL    HW249014   2.726   9.907   0.115 -0.8488  0.6120  0.4477
16146SOL     OW49015   5.970   0.279   2.258 -0.4835  0.1695  0.1706
16146SOL    HW149016   5.886   0.300   2.299 -0.3753  0.3140  0.3230
16146SOL    HW249017   6.028   0.260   2.332 -0.7116 -1.2047  0.0330
16147SOL     OW49018   1.330   0.468   4.991 -0.1513 -0.0924  0.0763
16147SOL    HW149019   1.256   0.526   5.010  1.0344  2.1357 -1.6155
16147SOL    HW249020   1.399   0.496   5.052 -0.2468 -1.2848  0.7663
16148SOL     OW49021   1.527   2.640   3.671  0.2954  0.0523  0.2072
16148SOL    HW149022   1.596   2.703   3.693 -0.6297  1.5485 -1.0423
16148SOL    HW249023   1.499   2.605   3.756 -0.0652  2.3044  1.0816
16149SOL     OW49024   1.373   2.015   6.036  0.1898  0.9315  0.3342
16149SOL    HW149025   1.429   1.947   6.073 -1.0884  0.0998  0.8097
16149SOL    HW249026   1.366   2.080   6.105 -0.5051  0.3796  0.8018
16150SOL     OW49027   7.478   1.382   1.175  0.6507  0.2842  0.0661
16150SOL    HW149028   7.425   1.444   1.125  0.0930  0.6866  1.1139
16150SOL    HW249029   7.418   1.344   1.238  0.2843 -3.4605 -2.2500
16151SOL     OW49030   0.278   9.526   2.786  0.1278  0.0937  0.2693
16151SOL    HW149031   0.223   9.604   2.776 -0.5550 -0.4134  0.0439
16151SOL    HW249032   0.355   9.558   2.833  1.0932  1.4676 -2.0865
16152SOL     OW49033   9.158   2.253   5.981 -0.6356 -0.1546 -0.5208
16152SOL    HW149034   9.246   2.278   5.956 -1.2596  2.4668 -0.3421
16152SOL    HW249035   9.126   2.325   6.036 -3.0644 -0.7448 -1.0160
16153SOL     OW49036   2.944   6.142   5.573  0.0799 -0.6393 -0.4061
16153SOL    HW149037   2.871   6.097   5.530  0.3978 -1.5619 -0.0083
16153SOL    HW249038   3.002   6.072   5.602  0.5417  0.0229  0.3336
16154SOL     OW49039   6.683   7.354   1.197  0.1832  0.0998 -0.5878
16154SOL    HW149040   6.773   7.386   1.201  0.6219 -1.1747  0.5401
16154SOL    HW249041   6.667   7.317   1.284  0.1137 -3.7452 -2.0575
16155SOL     OW49042   8.593   0.710   8.893 -0.0222 -0.3193 -0.1136
16155SOL    HW149043   8.628   0.755   8.816 -0.2547 -0.1427 -0.1193
16155SOL    HW249044   8.581   0.619   8.866  1.1280 -0.5529  0.1131
16156SOL     OW49045   1.970   0.197   4.144 -0.5474 -0.3028 -0.1550
16156SOL    HW149046   1.931   0.285   4.141 -1.1541 -0.5358  0.6736
16156SOL    HW249047   2.058   0.211   4.180 -0.7789 -0.0742  0.3287
16157SOL     OW49048   7.819   1.431   6.528  0.8052  0.1704  0.0150
16157SOL    HW149049   7.876   1.420   6.451  1.3136 -0.5498  0.4764
16157SOL    HW249050   7.748   1.369   6.513  0.1634  1.0111 -0.5212
16158SOL     OW49051   7.326   0.031   3.084  0.3260  0.4055 -0.8580
16158SOL    HW149052   7.418   0.053   3.098  0.8085 -1.4870 -0.8501
16158SOL    HW249053   7.327  -0.056   3.044 -1.4695  0.2768 -0.7314
16159SOL     OW49054   5.348   8.823   9.541  0.0384  0.2920  0.9712
16159SOL    HW149055   5.351   8.783   9.454  1.8722 -0.7442  1.4540
16159SOL    HW249056   5.268   8.875   9.541 -0.7825 -0.8756 -0.8168
16160SOL     OW49057   6.494   6.123   2.616 -0.0593  0.0114  0.4296
16160SOL    HW149058   6.435   6.072   2.671  0.9956 -0.9556  0.7023
16160SOL    HW249059   6.437   6.170   2.555 -1.1882  0.4190  1.7691
16161SOL     OW49060   7.681   0.486   6.436 -0.6613  0.8584 -0.1098
16161SOL    HW149061   7.626   0.560   6.412 -1.1545  0.0438 -1.6454
16161SOL    HW249062   7.620   0.417   6.461 -0.2945  0.4521 -0.3037
16162SOL     OW49063   1.846   9.276   7.472 -0.3938 -0.0757  0.2080
16162SOL    HW149064   1.881   9.321   7.395 -0.4608  1.1655  0.8689
16162SOL    HW249065   1.859   9.183   7.454  0.3051  0.2264 -0.9523
16163SOL     OW49066   3.823   1.373   9.464 -0.5986  0.6597 -0.2376
16163SOL    HW149067   3.767   1.305   9.426  1.0679 -0.8207 -0.1927
16163SOL    HW249068   3.911   1.352   9.432 -0.0386  2.9651 -0.4034
16164SOL     OW49069   1.861   3.010   4.599 -0.3048  0.3800 -0.3612
16164SOL    HW149070   1.841   2.958   4.677  1.0554 -1.7013 -1.3290
16164SOL    HW249071   1.834   3.099   4.623 -0.4416 -0.2720  2.2705
16165SOL     OW49072   4.968   8.828   9.016  0.1354  0.8959  0.0430
16165SOL    HW149073   4.999   8.850   9.103  4.2395 -1.0832 -0.6746
16165SOL    HW249074   4.988   8.735   9.005  1.8338  1.4837 -3.6401
16166SOL     OW49075   8.426   3.035   5.779 -0.5532  0.1391 -0.1029
16166SOL    HW149076   8.383   3.090   5.714 -0.9285  0.3416  0.3083
16166SOL    HW249077   8.461   2.961   5.730 -3.9302 -1.6344 -0.1211
16167SOL     OW49078   0.018   0.380   6.609  0.8311  0.4497 -0.0531
16167SOL    HW149079  -0.068   0.393   6.650  1.2330  1.4458  0.4905
16167SOL    HW249080   0.073   0.347   6.679  0.3516 -2.4684 -0.9330
16168SOL     OW49081   7.666   0.851   6.122  0.9411  0.1946  0.4510
16168SOL    HW149082   7.739   0.882   6.175  0.2006  3.4391 -0.2075
16168SOL    HW249083   7.683   0.885   6.035 -1.1960  0.8421  0.2292
16169SOL     OW49084   0.390   2.566   8.703  0.4398 -0.0464 -0.1844
16169SOL    HW149085   0.372   2.562   8.797  0.1004 -1.6069 -0.2855
16169SOL    HW249086   0.306   2.547   8.661  0.6226  0.4838 -0.8066
16170SOL     OW49087   1.213   4.238   5.131 -0.6033  0.5271  0.5042
16170SOL    HW149088   1.232   4.184   5.208 -1.1658  2.0142  1.7290
16170SOL    HW249089   1.195   4.174   5.062  0.6939 -0.8541  1.3790
16171SOL     OW49090   3.941   0.135   7.556 -0.1940 -0.3091 -0.1408
16171SOL    HW149091   3.977   0.219   7.587  1.2730 -0.3989 -1.5190
16171SOL    HW249092   4.016   0.076   7.553 -1.2793 -1.8404  1.2040
16172SOL     OW49093   7.895   4.208   0.757 -0.7327 -0.4777 -0.2416
16172SOL    HW149094   7.859   4.124   0.728 -1.1545 -0.2343 -0.4493
16172SOL    HW249095   7.860   4.271   0.694 -0.2397 -0.1783 -0.2170
16173SOL     OW49096   5.187   8.760   8.723 -0.1523  0.4416 -0.7096
16173SOL    HW149097   5.235   8.704   8.785  0.6521  0.2718 -1.4765
16173SOL    HW249098   5.253   8.789   8.660 -0.5779  2.1663 -0.4112
16174SOL     OW49099   0.075   6.579   8.859  0.1070  0.0349  0.0368
16174SOL    HW149100   0.144   6.637   8.828 -0.8106  0.8722 -0.4867
16174SOL    HW249101   0.085   6.579   8.954  1.1873 -0.3232 -0.0646
16175SOL     OW49102   9.659   2.713   8.135 -0.0390  0.1739  0.5207
16175SOL    HW149103   9.686   2.646   8.198 -2.8909 -0.2716  1.4164
16175SOL    HW249104   9.673   2.671   8.049  3.1618  0.5084  0.7669
16176SOL     OW49105   1.718   5.171   4.781  0.1383 -0.6663 -0.0747
16176SOL    HW149106   1.784   5.103   4.793 -0.6374 -1.6243 -1.0649
16176SOL    HW249107   1.641   5.138   4.828 -0.5252 -0.9183 -1.2940
16177SOL     OW49108   3.579   3.107   8.570 -0.3339 -0.2344  0.1532
16177SOL    HW149109   3.650   3.145   8.518  0.8323  0.1898  1.9427
16177SOL    HW249110   3.619   3.033   8.615 -1.1549 -0.2729  0.8451
16178SOL     OW49111   7.124   6.036   1.406 -0.2278  0.5728 -0.9668
16178SOL    HW149112   7.143   5.943   1.391 -0.0463  0.9783 -3.6603
16178SOL    HW249113   7.139   6.048   1.500  1.3842 -1.7474 -0.8278
16179SOL     OW49114   5.389   7.080   5.499  0.1386  0.0195  0.4684
16179SOL    HW149115   5.307   7.078   5.449  0.8317 -0.6097 -0.6986
16179SOL    HW249116   5.418   7.171   5.494  0.5855 -0.1717 -0.9795
16180SOL     OW49117   8.559   3.369   9.188 -0.4252  0.1061 -0.4313
16180SOL    HW149118   8.567   3.437   9.122 -0.2855  0.8982  0.3837
16180SOL    HW249119   8.518   3.295   9.143 -2.1445  1.3077 -0.9134
16181SOL     OW49120   0.400   6.002   9.912 -0.2199  0.4567 -0.2764
16181SOL    HW149121   0.413   5.907   9.914 -2.2797  0.1195 -0.0495
16181SOL    HW249122   0.447   6.034   9.989  1.7464 -0.1519 -1.1652
16182SOL     OW49123   8.707   8.912   0.635 -0.4484 -0.9620 -0.2871
16182SOL    HW149124   8.743   8.894   0.722 -1.2044  0.3962  0.3441
16182SOL    HW249125   8.782   8.945   0.584 -0.5935  1.2442  0.8223
16183SOL     OW49126   7.673   7.115   4.797 -0.6697 -1.0700  0.0780
16183SOL    HW149127   7.718   7.073   4.724  1.0880  0.2894  0.3053
16183SOL    HW249128   7.730   7.188   4.822 -3.0766  0.9049  0.3030
16184SOL     OW49129   4.044   1.980   6.570 -0.3984 -0.4701  0.3356
16184SOL    HW149130   4.103   1.905   6.562 -1.0910 -0.8996 -0.9823
16184SOL    HW249131   4.087   2.049   6.520 -0.4717 -0.4275  0.3319
16185SOL     OW49132   7.251   6.107   2.391  0.3587  0.0749 -0.2388
16185SOL    HW149133   7.318   6.127   2.455  1.0916 -2.1226 -0.2249
16185SOL    HW249134   7.177   6.076   2.443  0.6407 -0.8819 -0.3924
16186SOL     OW49135   2.907   9.798   3.509 -0.6303 -0.0933  0.3592
16186SOL    HW149136   2.981   9.779   3.451 -0.4131  0.5313  0.4291
16186SOL    HW249137   2.830   9.770   3.460 -0.2704 -2.0092  0.8085
16187SOL     OW49138   2.285   7.746   9.150 -0.3210  0.2333 -0.2793
16187SOL    HW149139   2.259   7.835   9.127 -0.2757  0.5383  0.7921
16187SOL    HW249140   2.379   7.753   9.169  0.2577 -0.5317 -2.5117
16188SOL     OW49141   4.589   0.833   7.570  0.0390  0.3084 -0.2316
16188SOL    HW149142   4.675   0.833   7.612  0.4264 -1.6310 -0.9285
16188SOL    HW249143   4.597   0.896   7.499  0.1529  1.7746  1.0236
16189SOL     OW49144   2.414   7.505   4.809 -0.1801 -0.0043  0.0355
16189SOL    HW149145   2.396   7.416   4.778  0.9724  0.1695 -1.2057
16189SOL    HW249146   2.330   7.536   4.842 -0.6738 -1.4344  0.2211
16190SOL     OW49147   7.777   9.864   9.043  0.1070  0.1064  0.0735
16190SOL    HW149148   7.849   9.885   9.102  0.2095 -1.3145  0.5023
16190SOL    HW249149   7.814   9.871   8.955  0.8287 -0.7768  0.2961
16191SOL     OW49150   4.937   3.246   5.049  0.1847 -1.2146 -0.2869
16191SOL    HW149151   5.017   3.230   5.101  1.5985  2.5758 -0.9330
16191SOL    HW249152   4.948   3.193   4.971  1.9593 -1.0148 -0.2164
16192SOL     OW49153   1.382   6.337   8.779 -0.1214  0.1089  0.5082
16192SOL    HW149154   1.287   6.348   8.788 -0.3736 -1.6760  0.4225
16192SOL    HW249155   1.413   6.328   8.869  0.0663  1.1615  0.5685
16193SOL     OW49156   5.304   0.891   0.699 -0.3820  0.6403  0.6432
16193SOL    HW149157   5.381   0.944   0.679  0.8734 -1.0393  0.7407
16193SOL    HW249158   5.251   0.895   0.620  0.6345  0.4891 -0.0730
16194SOL     OW49159   5.161   1.079   3.106 -0.3934  0.5305  0.3254
16194SOL    HW149160   5.243   1.048   3.144 -0.1373  0.5241 -0.2202
16194SOL    HW249161   5.148   1.166   3.145  1.4888  1.9155 -1.8359
16195SOL     OW49162   0.441   2.856   9.116 -0.2375 -0.4508 -0.2310
16195SOL    HW149163   0.387   2.903   9.179  1.8763 -0.7262  1.9282
16195SOL    HW249164   0.473   2.924   9.057 -2.8151 -0.2844 -1.5562
16196SOL     OW49165   7.806   5.998   6.298  0.0664 -0.2772 -0.0444
16196SOL    HW149166   7.752   5.939   6.351 -1.8674 -0.7634 -2.3646
16196SOL    HW249167   7.773   5.986   6.209  1.3840  2.4023 -0.9900
16197SOL     OW49168   9.487   0.563   9.820 -0.0128 -0.0104 -0.6912
16197SOL    HW149169   9.563   0.619   9.841  0.7745 -1.5039  0.7148
16197SOL    HW249170   9.506   0.480   9.864 -0.9413 -1.5648 -3.0387
16198SOL     OW49171   4.058   9.408   9.137  0.2392  1.1222  0.5728
16198SOL    HW149172   4.007   9.481   9.103 -0.8968 -0.5912 -1.6350
16198SOL    HW249173   4.084   9.359   9.059  0.3367 -1.2195  1.9966
16199SOL     OW49174   9.239   8.278   4.719  0.2559  1.1947  0.3000
16199SOL    HW149175   9.289   8.204   4.753 -1.1811 -1.2997 -2.5266
16199SOL    HW249176   9.305   8.343   4.695  2.2328 -1.4149 -2.0805
16200SOL     OW49177   4.050   9.426   4.539  0.0568  0.1670  0.0508
16200SOL    HW149178   4.121   9.485   4.565  1.1565 -1.5686  1.1362
16200SOL    HW249179   4.079   9.339   4.566 -2.0285 -0.7517 -0.4504
16201SOL     OW49180   9.040   5.239   1.046 -0.0697 -0.3998  0.1562
16201SOL    HW149181   9.074   5.171   0.988  1.2574 -0.4917  1.0058
16201SOL    HW249182   9.006   5.191   1.122 -0.2559 -0.1850  0.2087
16202SOL     OW49183   2.313   5.776   3.584  0.4090 -0.0649  0.3215
16202SOL    HW149184   2.265   5.851   3.619 -0.8593  0.1248 -1.6512
16202SOL    HW249185   2.297   5.706   3.647  1.2514  1.1523  1.9750
16203SOL     OW49186   6.994   7.401   9.772  0.2306  0.1056  0.4540
16203SOL    HW149187   7.072   7.355   9.803 -1.7416 -3.4161  0.7158
16203SOL    HW249188   6.969   7.355   9.692 -1.7297  0.9236  0.5383
16204SOL     OW49189   8.527   2.779   9.957 -0.0871  0.0528 -0.1574
16204SOL    HW149190   8.498   2.690   9.937 -1.0188  0.4647 -0.7021
16204SOL    HW249191   8.475   2.804  10.034 -0.4515  0.4198 -0.5145
16205SOL     OW49192   6.047   1.172   2.928  0.0032  0.2077 -0.3126
16205SOL    HW149193   6.073   1.102   2.868 -1.4249 -0.4600 -0.1723
16205SOL    HW249194   6.031   1.248   2.871  1.0662  0.2979 -0.5113
16206SOL     OW49195   4.875   4.375   2.620  0.5279  1.0489 -0.2869
16206SOL    HW149196   4.814   4.406   2.687 -0.3539 -2.8984  1.0317
16206SOL    HW249197   4.956   4.357   2.668  0.5222  0.0067 -0.6392
16207SOL     OW49198   3.482   2.502   1.677  0.6220 -0.2579  0.2712
16207SOL    HW149199   3.544   2.517   1.606  0.4423 -0.2281  0.1197
16207SOL    HW249200   3.483   2.583   1.728 -1.1420  0.7472 -1.1533
16208SOL     OW49201   7.701   0.917   0.266  0.4359 -0.3692  0.1166
16208SOL    HW149202   7.741   0.938   0.350  0.5455  0.1803 -0.0641
16208SOL    HW249203   7.673   0.826   0.274  1.1300 -0.5579  0.4817
16209SOL     OW49204   9.833   9.000   5.104  0.0306 -0.2804 -0.8603
16209SOL    HW149205   9.825   8.973   5.195 -0.5351 -0.1855 -0.8771
16209SOL    HW249206   9.919   8.968   5.077  0.7568  0.8187  0.0650
16210SOL     OW49207   9.850   0.446   3.458  0.2306  0.0490 -0.5098
16210SOL    HW149208   9.884   0.433   3.370  0.9760  0.0053 -0.2250
16210SOL    HW249209   9.765   0.401   3.458  0.0305  0.4061 -1.3163
16211SOL     OW49210   7.964   6.435   6.986  0.2880 -0.1321 -0.7280
16211SOL    HW149211   8.031   6.449   7.052 -0.1918 -0.9716 -0.0344
16211SOL    HW249212   7.980   6.502   6.920  1.3536  0.1295 -0.2209
16212SOL     OW49213   2.685   1.054   4.096 -0.8113  0.2815 -0.3142
16212SOL    HW149214   2.625   1.034   4.168 -0.7162  1.3513  0.0800
16212SOL    HW249215   2.629   1.063   4.019 -1.0215  0.1186 -0.1793
16213SOL     OW49216   9.458   4.638   6.078  0.3621 -0.2499 -0.0274
16213SOL    HW149217   9.553   4.651   6.081  0.1024  1.8344  0.6185
16213SOL    HW249218   9.428   4.695   6.007 -0.3973 -1.0126 -0.3278
16214SOL     OW49219   3.297   3.071   3.960 -0.4095  0.4561 -0.4608
16214SOL    HW149220   3.253   3.066   3.875 -0.7935  0.7154 -0.2816
16214SOL    HW249221   3.226   3.085   4.023 -0.1786 -0.1656 -0.0461
16215SOL     OW49222   7.938   4.429   4.152  0.1489  0.2609  0.5046
16215SOL    HW149223   7.867   4.387   4.103  0.1212  1.6280 -0.6889
16215SOL    HW249224   8.018   4.386   4.119  0.1351  1.2061 -0.8398
16216SOL     OW49225   1.955   2.221   6.058  0.1854 -0.1197  0.5414
16216SOL    HW149226   1.947   2.126   6.050 -1.1567  0.0262 -0.1421
16216SOL    HW249227   2.039   2.241   6.017  0.4476 -1.0065  0.6308
16217SOL     OW49228   8.388   2.198   4.648 -0.3419 -0.6319 -0.1787
16217SOL    HW149229   8.473   2.241   4.642 -0.7744  0.2986  0.1430
16217SOL    HW249230   8.409   2.109   4.676  0.4869 -0.1856  0.7292
16218SOL     OW49231   1.787   5.551   5.582  0.0593 -0.2505  0.0872
16218SOL    HW149232   1.697   5.577   5.563  0.3337  2.0522  1.5352
16218SOL    HW249233   1.792   5.459   5.554 -2.2562  0.0007 -1.4757
16219SOL     OW49234   5.866   8.338   5.222 -0.0021  0.0785 -0.2273
16219SOL    HW149235   5.808   8.261   5.226 -1.0995  0.8216 -1.1352
16219SOL    HW249236   5.924   8.320   5.148  1.0946 -0.7567  0.8053
16220SOL     OW49237   6.296   7.417   1.746 -0.3463  0.8368 -0.1283
16220SOL    HW149238   6.361   7.347   1.760 -0.8818  0.6166  1.5150
16220SOL    HW249239   6.268   7.441   1.834 -1.3919  1.9924 -0.7477
16221SOL     OW49240   2.158   1.244   8.538 -0.1108  0.5175 -0.0069
16221SOL    HW149241   2.220   1.317   8.545  1.5545 -0.8840  0.4003
16221SOL    HW249242   2.190   1.192   8.465 -1.2158  0.1168 -0.2215
16222SOL     OW49243   1.558   9.456   5.216 -0.1561 -0.0865  0.2086
16222SOL    HW149244   1.545   9.361   5.213 -1.8692  0.1182  0.0593
16222SOL    HW249245   1.520   9.483   5.300  2.3136  0.2530  1.3182
16223SOL     OW49246   6.594   2.174   7.745  0.1469  0.3382  0.1581
16223SOL    HW149247   6.571   2.126   7.666 -3.3940 -0.4147  1.4615
16223SOL    HW249248   6.573   2.265   7.726 -0.6258  0.1681  0.1649
16224SOL     OW49249   4.334   2.233   6.499  0.6913  0.1127 -0.1660
16224SOL    HW149250   4.383   2.262   6.423  1.1291  2.8993  1.0550
16224SOL    HW249251   4.390   2.255   6.574  0.0981 -2.1440  1.0547
16225SOL     OW49252   1.461   2.814   4.567 -0.7778 -0.4936 -0.5453
16225SOL    HW149253   1.457   2.902   4.606 -1.6942 -0.8416  0.2167
16225SOL    HW249254   1.509   2.826   4.486  0.2203  0.4843  0.1540
16226SOL     OW49255   9.102   2.770   2.792  0.0485  0.3281 -0.2304
16226SOL    HW149256   9.169   2.730   2.847  0.4430 -1.3834 -1.8578
16226SOL    HW249257   9.135   2.857   2.773  1.4828 -0.2249 -0.3871
16227SOL     OW49258   9.971   1.165   0.369 -0.4008  0.2011  0.5604
16227SOL    HW149259   9.965   1.243   0.315  2.1706 -0.3523 -0.7013
16227SOL    HW249260   9.917   1.100   0.325 -0.5345  0.5544  0.2003
16228SOL     OW49261   6.430   8.213   9.530 -0.4074  0.0936 -0.1220
16228SOL    HW149262   6.449   8.259   9.449 -0.6942  2.1368  0.9132
16228SOL    HW249263   6.389   8.131   9.502 -0.5610  0.7815 -2.0215
16229SOL     OW49264   8.708   2.802   0.892  0.6415  0.1189 -0.2887
16229SOL    HW149265   8.677   2.892   0.883  0.6200  0.0509 -0.9082
16229SOL    HW249266   8.669   2.772   0.975  0.7715  0.7229 -0.0039
16230SOL     OW49267   8.596   4.220   0.195 -0.2859  0.4206  0.5212
16230SOL    HW149268   8.612   4.314   0.189  0.3384  0.2269 -2.7241
16230SOL    HW249269   8.501   4.212   0.188 -0.2329  0.8035 -1.1344
16231SOL     OW49270   4.835   3.539   2.347  0.0728 -0.3312  0.0643
16231SOL    HW149271   4.866   3.560   2.436  1.3287 -1.1247 -0.1644
16231SOL    HW249272   4.901   3.480   2.312  1.0445  2.0009 -2.3972
16232SOL     OW49273   5.065   0.665   9.466  0.1243  0.3980  1.0621
16232SOL    HW149274   5.032   0.742   9.421 -0.0284  0.8522  1.9304
16232SOL    HW249275   5.110   0.615   9.398 -0.1797  1.0151  0.3936
16233SOL     OW49276   1.741   8.989   8.268 -0.0386 -0.2903  0.2262
16233SOL    HW149277   1.731   8.917   8.205  0.2080  0.8878 -1.2125
16233SOL    HW249278   1.836   8.994   8.283 -0.0222 -0.0609  0.0576
16234SOL     OW49279   7.261   5.430   6.350  0.5442  0.5381 -0.0141
16234SOL    HW149280   7.346   5.461   6.382  0.6043 -0.7156  1.1013
16234SOL    HW249281   7.282   5.369   6.280  0.7869 -2.1066  2.2046
16235SOL     OW49282   6.077   9.402   6.218  0.1015  0.0675  0.0071
16235SOL    HW149283   6.080   9.311   6.188 -0.6075 -0.3247  1.0457
16235SOL    HW249284   6.146   9.446   6.168  1.9378 -1.5125  0.9824
16236SOL     OW49285   2.889   3.198   2.856  0.3069  0.1584  0.0546
16236SOL    HW149286   2.910   3.128   2.794 -0.0472  0.1014 -0.0067
16236SOL    HW249287   2.942   3.272   2.827  2.0924 -0.6081  1.2245
16237SOL     OW49288   2.826   2.918   1.239 -0.4100  0.7146  0.2491
16237SOL    HW149289   2.919   2.918   1.260  0.1810  0.0237 -2.0829
16237SOL    HW249290   2.802   3.010   1.233 -0.3633  0.9328  2.5903
16238SOL     OW49291   4.550   4.725   5.545 -0.1842 -0.3263 -0.3829
16238SOL    HW149292   4.625   4.767   5.586 -0.5264 -0.0038 -0.0824
16238SOL    HW249293   4.587   4.651   5.497  0.4452  0.3853 -1.0257
16239SOL     OW49294   4.962   2.774   2.017  0.0634  0.6057  0.5022
16239SOL    HW149295   4.930   2.818   2.096  1.1042  0.9122  0.7662
16239SOL    HW249296   4.956   2.841   1.948  0.4999  0.7800  0.6349
16240SOL     OW49297   4.377   2.476   2.687 -0.2554  0.1581  0.0436
16240SOL    HW149298   4.459   2.523   2.699  0.7180 -2.0451  3.9758
16240SOL    HW249299   4.394   2.413   2.617  1.8297 -0.8196  1.3328
16241SOL     OW49300   9.915   0.939   4.442 -0.3005 -0.6161  0.7042
16241SOL    HW149301   9.992   0.906   4.396 -0.5598 -1.0397  0.5695
16241SOL    HW249302   9.944   1.021   4.482 -0.1329 -0.0877 -0.4463
16242SOL     OW49303   7.400   9.060   0.849  0.2034  0.5226  0.8151
16242SOL    HW149304   7.384   8.991   0.913 -0.5046 -1.7925 -1.6732
16242SOL    HW249305   7.331   9.048   0.784  2.7052  0.6092 -2.0539
16243SOL     OW49306   6.699   7.317   5.799  0.2813 -0.1927 -0.1807
16243SOL    HW149307   6.706   7.298   5.706 -1.6234 -2.0537 -0.0290
16243SOL    HW249308   6.606   7.335   5.813  0.5991  0.4312  1.2972
16244SOL     OW49309   3.345   1.211   7.351  0.5118 -0.1007  0.2512
16244SOL    HW149310   3.284   1.211   7.277  0.7884  0.4176  0.0176
16244SOL    HW249311   3.417   1.155   7.323  2.0251  2.3169 -1.0857
16245SOL     OW49312   6.533   8.091   3.716 -0.3183 -0.1008 -0.6350
16245SOL    HW149313   6.589   8.101   3.639 -1.0420  0.3820 -1.1017
16245SOL    HW249314   6.478   8.016   3.696  0.1316 -0.5643 -0.1807
16246SOL     OW49315   1.665   0.821   6.352  0.1193  0.0798  0.6417
16246SOL    HW149316   1.711   0.828   6.436 -2.4733  2.3494  2.0396
16246SOL    HW249317   1.601   0.752   6.365  0.9868 -0.9213 -0.2155
16247SOL     OW49318   3.777   8.595   4.030 -0.2457 -0.0216 -0.9912
16247SOL    HW149319   3.849   8.544   3.993 -0.4187 -0.3621 -0.8653
16247SOL    HW249320   3.787   8.584   4.125  0.8356  1.7132 -0.8464
16248SOL     OW49321   6.079   1.711   1.840 -0.5629 -0.6923 -0.1760
16248SOL    HW149322   6.048   1.625   1.810  0.4412 -0.6639 -1.3391
16248SOL    HW249323   6.058   1.771   1.769  0.5538 -0.3521 -0.2319
16249SOL     OW49324   4.465   5.288   8.439 -0.2428  0.0359 -0.4429
16249SOL    HW149325   4.435   5.230   8.509 -2.8258  3.2477  1.4288
16249SOL    HW249326   4.519   5.353   8.483 -1.0469  1.5276 -1.5607
16250SOL     OW49327   5.951   3.624   1.442  0.4582  0.3160  0.0077
16250SOL    HW149328   6.038   3.595   1.468  0.4989 -0.6122 -1.1054
16250SOL    HW249329   5.916   3.669   1.519  1.1910 -0.9151  1.0806
16251SOL     OW49330   3.727   9.713   9.466  0.1312 -0.0643  0.2390
16251SOL    HW149331   3.709   9.670   9.383 -0.6947  2.1339 -0.8072
16251SOL    HW249332   3.788   9.784   9.443  0.1723  0.3548  1.5720
16252SOL     OW49333   2.421   5.680   4.315 -0.6494  0.6872 -0.1320
16252SOL    HW149334   2.465   5.745   4.370  0.2596 -0.4614  0.5737
16252SOL    HW249335   2.387   5.615   4.378 -0.2827 -0.2422 -0.8610
16253SOL     OW49336   1.609   9.212   2.921  0.2572  0.3037  0.6501
16253SOL    HW149337   1.604   9.147   2.991 -0.1805 -0.0972  0.2570
16253SOL    HW249338   1.554   9.176   2.851  1.8617 -0.0322 -0.4982
16254SOL     OW49339   7.984   1.453   4.437 -0.6631  0.5191  0.2719
16254SOL    HW149340   7.994   1.389   4.366 -1.3353 -1.9647  2.2510
16254SOL    HW249341   7.978   1.537   4.393  0.3898 -0.7342 -2.5076
16255SOL     OW49342   5.412   0.595   6.843  0.1746  0.1389 -0.6088
16255SOL    HW149343   5.417   0.685   6.811 -0.0405 -0.4070 -2.2808
16255SOL    HW249344   5.357   0.550   6.780 -0.4303 -0.9919  0.6721
16256SOL     OW49345   2.653   8.044   2.963  0.3325  0.5200 -0.0456
16256SOL    HW149346   2.717   8.115   2.959  0.8138  0.0517 -1.2893
16256SOL    HW249347   2.617   8.040   2.875  2.6405 -2.8220 -1.0765
16257SOL     OW49348   5.316   2.257   2.798  0.0878  0.3889 -0.3381
16257SOL    HW149349   5.231   2.213   2.791 -0.0280  0.6541 -0.6120
16257SOL    HW249350   5.338   2.252   2.891 -0.5812  0.9852 -0.1417
16258SOL     OW49351   0.045   2.534   9.642  0.0235 -0.0397 -0.3673
16258SOL    HW149352  -0.009   2.567   9.714  1.6818  1.1018  0.4213
16258SOL    HW249353   0.054   2.609   9.583  1.3561  0.0383 -0.0928
16259SOL     OW49354   5.848   3.366   2.855 -0.1676  0.3229  0.3424
16259SOL    HW149355   5.795   3.434   2.896  0.6922  0.7657  0.7412
16259SOL    HW249356   5.847   3.295   2.920  1.6412  1.2295  1.4432
16260SOL     OW49357   0.075   0.305   8.821 -0.4068  0.5066 -0.4910
16260SOL    HW149358   0.149   0.268   8.867 -1.1840 -0.7422 -0.2025
16260SOL    HW249359   0.037   0.368   8.882 -0.2558  0.3149 -0.2002
16261SOL     OW49360   6.084   7.390   4.059 -0.1694  0.0050 -0.0060
16261SOL    HW149361   6.099   7.326   3.989  2.2406  0.1783  0.2680
16261SOL    HW249362   6.086   7.474   4.014  1.1868  0.1049  0.2052
16262SOL     OW49363   2.184   2.803   8.822 -0.4313  0.0982  0.1916
16262SOL    HW149364   2.253   2.860   8.857 -1.4407  0.1833  2.1647
16262SOL    HW249365   2.184   2.727   8.880 -2.4478  0.4192  0.6697
16263SOL     OW49366   9.572   9.272   9.490  0.5717 -0.2528  0.0630
16263SOL    HW149367   9.481   9.256   9.518  0.6333  0.7571  0.8974
16263SOL    HW249368   9.612   9.316   9.565  1.6565 -0.3513 -0.4481
16264SOL     OW49369   0.856   3.238   6.025  0.2268  0.3237 -0.2032
16264SOL    HW149370   0.851   3.155   6.072  2.4116  0.9527  1.3103
16264SOL    HW249371   0.788   3.232   5.957 -1.5943 -1.5094  1.6474
16265SOL     OW49372   2.536   1.704   1.120 -0.0250  0.1274 -0.4368
16265SOL    HW149373   2.557   1.784   1.169  2.4350 -0.1967 -0.8240
16265SOL    HW249374   2.510   1.734   1.033 -0.5656  0.5436 -0.1365
16266SOL     OW49375   9.271   5.106   0.203  0.1315 -0.5417  0.3580
16266SOL    HW149376   9.324   5.123   0.280 -1.1271 -1.3939  1.4521
16266SOL    HW249377   9.181   5.102   0.236 -0.6447  0.8526 -1.4272
16267SOL     OW49378   6.025   0.137   6.007  0.2298  0.2813  0.1929
16267SOL    HW149379   6.031   0.221   6.053 -2.9293  1.1295 -0.7492
16267SOL    HW249380   5.990   0.077   6.073  1.8396 -0.2093  0.6616
16268SOL     OW49381   7.622   4.241   5.355 -0.3966 -0.1498 -0.0575
16268SOL    HW149382   7.622   4.146   5.360  0.8262 -0.1692  0.0036
16268SOL    HW249383   7.656   4.270   5.440  1.9692  0.2114 -1.0459
16269SOL     OW49384   8.383   9.831   2.886 -0.8572  0.1594  0.0603
16269SOL    HW149385   8.444   9.830   2.812 -0.0382 -1.4795  0.7241
16269SOL    HW249386   8.439   9.829   2.963 -1.7343 -0.3928  0.6966
16270SOL     OW49387   6.574   3.983   8.534  0.3567 -0.1700  0.4062
16270SOL    HW149388   6.492   3.978   8.485  1.3338 -2.6770 -1.1782
16270SOL    HW249389   6.550   3.959   8.624 -1.0506  2.0676  0.7155
16271SOL     OW49390   7.941   5.508   1.433 -0.1344 -0.3050  0.3887
16271SOL    HW149391   7.962   5.593   1.394  0.5028 -1.1598 -1.2540
16271SOL    HW249392   7.846   5.501   1.425 -0.0136 -0.5372 -1.3154
16272SOL     OW49393   7.233   9.005   3.433 -0.0776  0.5976 -0.2580
16272SOL    HW149394   7.167   8.944   3.465  0.1102  0.6303  0.2022
16272SOL    HW249395   7.284   8.955   3.370  0.4261  0.1011  0.5222
16273SOL     OW49396   7.745   5.431   4.322  0.3116  0.1635  0.2675
16273SOL    HW149397   7.769   5.523   4.313 -1.2153  0.5513 -0.2767
16273SOL    HW249398   7.680   5.429   4.392  0.0177 -0.4273 -0.0063
16274SOL     OW49399   2.866   6.578   3.428  0.2586 -0.0559 -0.1336
16274SOL    HW149400   2.816   6.499   3.409 -1.3105  0.1602  2.6153
16274SOL    HW249401   2.917   6.557   3.506 -0.7745  1.7948  1.1352
16275SOL     OW49402   6.785   2.865   1.935  0.7166 -0.0518 -0.0651
16275SOL    HW149403   6.783   2.960   1.943  1.5941 -0.0841  0.7218
16275SOL    HW249404   6.747   2.833   2.016  0.3645 -0.3805 -0.3548
16276SOL     OW49405   9.316   9.256   9.532 -0.1463  0.4033  0.2949
16276SOL    HW149406   9.273   9.330   9.574 -0.6904 -0.4188  1.2480
16276SOL    HW249407   9.243   9.201   9.501  0.2457  0.2949 -0.4512
16277SOL     OW49408   3.574   7.325   3.050 -0.0253 -0.6042 -0.0847
16277SOL    HW149409   3.578   7.368   2.965 -1.6929 -0.7523 -0.2740
16277SOL    HW249410   3.557   7.397   3.112 -2.4397 -0.8579 -0.3568
16278SOL     OW49411   4.329   8.776   1.387 -0.2513 -0.1793 -0.0038
16278SOL    HW149412   4.328   8.840   1.316  1.0160  0.7642  0.7938
16278SOL    HW249413   4.328   8.828   1.467  1.6702 -1.1014  0.6750
16279SOL     OW49414   7.119   1.191   0.406  0.0397  0.8080 -0.3793
16279SOL    HW149415   7.114   1.125   0.338  0.1803 -2.1100  2.2117
16279SOL    HW249416   7.193   1.246   0.381  1.6381 -1.6361 -1.3975
16280SOL     OW49417   3.786   7.193   5.289 -0.3083 -0.0162 -0.6446
16280SOL    HW149418   3.830   7.109   5.277 -1.2352 -0.2534 -2.6988
16280SOL    HW249419   3.701   7.183   5.248 -0.8534  1.6098 -0.0119
16281SOL     OW49420   0.681   9.893   9.621 -0.1278  0.6263 -0.1834
16281SOL    HW149421   0.665   9.981   9.655 -0.6675  0.3330  0.3537
16281SOL    HW249422   0.594   9.862   9.594  0.3222  0.9863 -2.2372
16282SOL     OW49423   7.614   3.844   3.754 -0.7966  0.2205 -0.4124
16282SOL    HW149424   7.641   3.761   3.714 -1.3299 -1.1086  1.8057
16282SOL    HW249425   7.669   3.910   3.711  2.1560 -1.6872  0.1081
16283SOL     OW49426   5.514   8.519   7.034  0.4916 -0.0478  0.1666
16283SOL    HW149427   5.437   8.510   7.090 -1.0208  1.6234 -1.5032
16283SOL    HW249428   5.549   8.430   7.027 -1.6144 -0.9770  0.5805
16284SOL     OW49429   8.881   9.449   8.733 -0.1401 -0.1310  0.0716
16284SOL    HW149430   8.843   9.379   8.680  0.9649 -0.2939 -0.5546
16284SOL    HW249431   8.845   9.435   8.821 -3.2203  1.0786 -0.9040
16285SOL     OW49432   5.489   1.388   4.702 -0.0836  0.0825  0.3125
16285SOL    HW149433   5.584   1.402   4.697 -0.2131  0.6526 -0.7561
16285SOL    HW249434   5.457   1.460   4.756  0.0937 -0.1689  0.7617
16286SOL     OW49435   2.432   0.245   1.346  0.3099  0.9169  0.4949
16286SOL    HW149436   2.375   0.212   1.416 -0.0588  0.1500 -0.1470
16286SOL    HW249437   2.497   0.298   1.391  1.6439 -1.6092  1.7508
16287SOL     OW49438   3.565   2.929   2.206  0.2610  0.2282  0.3286
16287SOL    HW149439   3.657   2.934   2.229  0.4722 -0.7453 -0.2674
16287SOL    HW249440   3.542   3.019   2.181  1.5041  0.1788 -1.1613
16288SOL     OW49441   0.315   6.765   8.903 -0.2241  0.4506 -0.4503
16288SOL    HW149442   0.300   6.796   8.993 -0.5933 -0.7881 -0.0704
16288SOL    HW249443   0.388   6.703   8.911  1.2809  2.0119 -1.3788
16289SOL     OW49444   1.304   8.013   5.907  0.1234  0.2218 -0.1612
16289SOL    HW149445   1.293   7.921   5.933  1.7333 -0.0046 -0.2225
16289SOL    HW249446   1.253   8.062   5.971 -1.2259 -0.7288 -0.4455
16290SOL     OW49447   7.994   1.064   9.895 -0.2154  0.2377 -0.4646
16290SOL    HW149448   7.930   1.006   9.936 -0.4559  0.1651 -0.9318
16290SOL    HW249449   8.046   1.006   9.839  0.7320  0.1698  0.4426
16291SOL     OW49450   0.674   4.120   0.505 -0.0108  0.3608  0.3727
16291SOL    HW149451   0.737   4.067   0.456 -0.2101  0.7518 -0.3276
16291SOL    HW249452   0.715   4.206   0.512 -0.1574  0.4163  0.5420
16292SOL     OW49453   5.250   2.400   5.135 -0.0126  0.0880  0.6423
16292SOL    HW149454   5.213   2.445   5.059 -0.1784 -0.5644  0.3222
16292SOL    HW249455   5.321   2.456   5.164 -0.8033  1.0214  0.8376
16293SOL     OW49456   8.981   8.275   5.095  0.0003 -0.0498  0.4742
16293SOL    HW149457   9.076   8.281   5.103  0.1875 -0.8941 -0.7757
16293SOL    HW249458   8.962   8.314   5.009 -0.3786 -2.6800 -0.7507
16294SOL     OW49459   8.948   2.348   8.742 -0.0005 -0.1221  0.5850
16294SOL    HW149460   9.012   2.386   8.803  1.0466 -0.6561 -0.1677
16294SOL    HW249461   8.899   2.424   8.709 -2.6977  0.0501  4.2490
16295SOL     OW49462   3.551   4.349   0.622 -0.1385  0.2363 -0.2237
16295SOL    HW149463   3.556   4.442   0.601  1.1623  0.1819 -0.2437
16295SOL    HW249464   3.537   4.345   0.716 -0.6748  0.4431 -0.2896
16296SOL     OW49465   7.254   9.958   7.795 -0.3101  0.3333  0.5009
16296SOL    HW149466   7.275   9.869   7.822  0.9379  0.8142  1.2383
16296SOL    HW249467   7.191   9.948   7.723 -1.1078 -1.0954  1.3416
16297SOL     OW49468   8.767   9.239   8.584  0.1775  0.1718 -0.1179
16297SOL    HW149469   8.751   9.182   8.658 -0.0838  0.4282  0.0269
16297SOL    HW249470   8.680   9.263   8.553  0.2808 -0.4407 -0.9033
16298SOL     OW49471   1.918   9.690   7.128  0.5623 -0.1826 -0.1838
16298SOL    HW149472   1.945   9.640   7.051  1.2834 -0.1933  0.0691
16298SOL    HW249473   1.845   9.743   7.098 -0.2660 -1.4312 -0.4522
16299SOL     OW49474   8.972   6.659   9.578 -0.4187  0.2367 -0.4716
16299SOL    HW149475   8.970   6.710   9.659  0.8047 -1.1320  0.4774
16299SOL    HW249476   9.062   6.668   9.547 -0.7429  0.3216 -1.3961
16300SOL     OW49477   4.026   8.656   9.314 -0.6203  0.3565  0.1572
16300SOL    HW149478   4.059   8.719   9.379  2.0288 -3.0090  2.4684
16300SOL    HW249479   3.955   8.610   9.359 -1.5520  0.6782 -0.9460
16301SOL     OW49480   0.672   4.585   9.416  0.1608  0.1497  0.0004
16301SOL    HW149481   0.746   4.558   9.471  0.8624 -0.2906 -1.1077
16301SOL    HW249482   0.690   4.677   9.394 -0.2820  0.4199  0.7415
16302SOL     OW49483   6.257   3.636   4.654 -0.3036  0.3468  0.0578
16302SOL    HW149484   6.313   3.579   4.707 -2.6157 -1.3989  0.8269
16302SOL    HW249485   6.232   3.581   4.579 -0.3954  1.3470 -0.6688
16303SOL     OW49486   4.382   6.643   1.113 -0.4526  0.3313 -0.4161
16303SOL    HW149487   4.300   6.645   1.162  0.2261  0.6106  0.7439
16303SOL    HW249488   4.450   6.629   1.180  0.5780  1.5089 -1.1675
16304SOL     OW49489   3.747   2.577   4.157  0.5069  0.0239  0.6497
16304SOL    HW149490   3.825   2.601   4.106  0.3815 -0.8021  0.0533
16304SOL    HW249491   3.679   2.635   4.123  0.1091 -1.3596 -1.0674
16305SOL     OW49492   2.943   5.846   1.437 -0.3313  0.0997  0.1811
16305SOL    HW149493   2.973   5.935   1.418  1.1571  0.2729  2.8467
16305SOL    HW249494   3.009   5.790   1.398 -0.9007  0.1294 -0.8866
16306SOL     OW49495   3.315   0.204   8.396 -0.2712 -0.4410 -0.2294
16306SOL    HW149496   3.242   0.246   8.351 -0.2626 -1.5377 -1.3132
16306SOL    HW249497   3.306   0.232   8.487 -0.8227  1.0951 -0.7234
16307SOL     OW49498   0.996   6.173   6.653  0.1882  0.1338 -0.0889
16307SOL    HW149499   1.011   6.213   6.567 -0.2122 -0.5680 -0.4961
16307SOL    HW249500   0.915   6.214   6.684  0.7570  0.9741  0.3211
16308SOL     OW49501   3.516   5.060   9.973  0.1419  0.6691  0.5737
16308SOL    HW149502   3.576   5.063   9.899 -2.6948  0.2783 -1.9307
16308SOL    HW249503   3.537   4.977  10.017  0.2521 -0.4071 -1.3638
16309SOL     OW49504   5.238   8.803   4.698 -0.0873 -0.0184 -0.0520
16309SOL    HW149505   5.161   8.805   4.754 -0.4821 -0.7268 -0.5468
16309SOL    HW249506   5.311   8.790   4.758 -0.3240  0.8980  0.4410
16310SOL     OW49507   8.876   6.920   8.953 -0.0645 -0.7002  0.1744
16310SOL    HW149508   8.794   6.897   8.909  0.0844 -0.1399 -0.4044
16310SOL    HW249509   8.937   6.851   8.926 -0.3617 -1.1794  0.6921
16311SOL     OW49510   6.255   6.375   2.084 -0.0756  0.7117  0.3773
16311SOL    HW149511   6.215   6.290   2.067  2.7851 -0.1998 -2.9164
16311SOL    HW249512   6.314   6.360   2.158 -0.3170  0.1534  0.4618
16312SOL     OW49513   7.158   9.108   4.651 -1.3269 -0.2271  0.3266
16312SOL    HW149514   7.096   9.116   4.724  0.7882 -0.2699  2.2558
16312SOL    HW249515   7.203   9.192   4.648 -0.2399 -0.7897  0.1913
16313SOL     OW49516   4.318   7.127   0.038 -0.5298 -0.3394 -0.0576
16313SOL    HW149517   4.353   7.185   0.106 -0.4093 -1.2952  0.7141
16313SOL    HW249518   4.392   7.070   0.015 -0.9205 -0.8253 -0.1078
16314SOL     OW49519   1.030   4.389   6.250 -0.1083  0.3827  0.1140
16314SOL    HW149520   0.948   4.342   6.265  0.6723 -2.0249 -2.2685
16314SOL    HW249521   1.009   4.454   6.183 -0.0823 -0.2747 -0.5405
16315SOL     OW49522   6.442   3.499   3.600 -0.2311 -0.5545  0.1166
16315SOL    HW149523   6.387   3.424   3.576  0.5591 -0.8928 -0.6983
16315SOL    HW249524   6.434   3.559   3.526 -1.2477  0.4086  0.9832
16316SOL     OW49525   9.768   0.076   1.660 -0.0525 -0.0399 -0.2782
16316SOL    HW149526   9.795   0.137   1.591 -0.5032  0.0450 -0.3813
16316SOL    HW249527   9.673   0.073   1.653 -0.2037  0.8237  1.0494
16317SOL     OW49528   2.384   5.024   5.092 -0.1237  0.7383 -0.0414
16317SOL    HW149529   2.429   5.103   5.121 -0.8931  0.9049  0.7656
16317SOL    HW249530   2.417   4.956   5.150 -1.0696  0.9121  0.7301
16318SOL     OW49531   6.462   7.105   3.665  0.6530 -0.0520  0.3912
16318SOL    HW149532   6.467   7.194   3.629 -0.1175  0.3842  1.3251
16318SOL    HW249533   6.458   7.117   3.760 -1.6373 -0.9343  0.4727
16319SOL     OW49534   6.795   5.678   8.927  0.4602 -0.2099  0.0904
16319SOL    HW149535   6.706   5.712   8.926  0.3154 -0.3500  2.3672
16319SOL    HW249536   6.846   5.742   8.879 -0.4410  1.3161  1.1006
16320SOL     OW49537   2.503   7.115   0.755  0.1554  0.2920  0.0893
16320SOL    HW149538   2.552   7.034   0.766 -0.2960  0.1141  0.8467
16320SOL    HW249539   2.562   7.183   0.788 -0.1262  0.0676  1.0973
16321SOL     OW49540   8.370   4.270   1.956  0.0731 -0.0201  0.3670
16321SOL    HW149541   8.294   4.283   1.900  0.5838  1.0692 -0.0942
16321SOL    HW249542   8.332   4.251   2.042 -0.7372  1.0111  0.2656
16322SOL     OW49543   0.550   5.517   5.028 -0.1210  0.2035  0.1825
16322SOL    HW149544   0.577   5.427   5.012  1.1336  0.2837  1.5496
16322SOL    HW249545   0.578   5.565   4.950 -0.2203 -0.4742 -0.2788
16323SOL     OW49546   3.524   6.183   0.645  0.0712 -0.0585 -0.3031
16323SOL    HW149547   3.448   6.129   0.667  0.9533 -0.8859  0.8392
16323SOL    HW249548   3.546   6.159   0.555 -3.1396  2.8187 -2.0688
16324SOL     OW49549   8.938   9.911   6.188 -0.4877 -0.2377 -0.1924
16324SOL    HW149550   8.888   9.895   6.109 -2.5837 -0.2160  1.0685
16324SOL    HW249551   8.885   9.876   6.259  0.8873  0.5529  1.3156
16325SOL     OW49552   7.304   8.709   1.776  0.2125  0.1665  0.1562
16325SOL    HW149553   7.243   8.682   1.844  0.0232 -0.5676 -0.2899
16325SOL    HW249554   7.269   8.672   1.695  0.8729  0.3241 -0.2179
16326SOL     OW49555   3.536   0.841   1.807  0.8579  0.3102  0.2189
16326SOL    HW149556   3.549   0.749   1.830  1.6537  0.2543 -0.3994
16326SOL    HW249557   3.448   0.862   1.838  0.6738 -0.6546  0.3647
16327SOL     OW49558   1.481   7.861   8.024 -0.3993 -0.8099  0.2759
16327SOL    HW149559   1.428   7.883   7.948  1.8548 -1.1865 -1.5381
16327SOL    HW249560   1.486   7.943   8.074 -0.5923 -0.0771 -0.8661
16328SOL     OW49561   0.075   0.427   0.381  0.1298 -0.5187  0.3313
16328SOL    HW149562   0.056   0.504   0.328  0.8441 -0.8898 -0.4890
16328SOL    HW249563  -0.009   0.403   0.420 -0.6310 -0.8414 -1.4544
16329SOL     OW49564   6.776   7.138   5.988 -0.4168  0.1550  0.0903
16329SOL    HW149565   6.868   7.156   5.969 -0.6377  1.3763  0.0880
16329SOL    HW249566   6.727   7.205   5.940 -1.2499  0.1624  0.9073
16330SOL     OW49567   8.588   0.105   1.570  0.1204 -0.1681  0.3858
16330SOL    HW149568   8.557   0.107   1.479 -0.1356 -0.1455  0.4740
16330SOL    HW249569   8.657   0.038   1.570  0.4819  0.2002  0.0612
16331SOL     OW49570   6.178   1.212   7.245  0.0437 -0.2118 -0.2067
16331SOL    HW149571   6.194   1.129   7.290  0.2805 -0.8778 -1.4610
16331SOL    HW249572   6.211   1.279   7.305  0.0654 -1.0385  0.7280
16332SOL     OW49573   3.505   9.493   6.029 -0.4215 -0.0608 -0.3646
16332SOL    HW149574   3.463   9.574   5.998 -2.0868  0.1945  2.2749
16332SOL    HW249575   3.590   9.521   6.062  1.1262 -0.2425 -3.7488
16333SOL     OW49576   4.681   5.343   5.261 -0.2046  0.6305 -0.1996
16333SOL    HW149577   4.647   5.255   5.248 -0.5220  0.7380 -0.1104
16333SOL    HW249578   4.628   5.379   5.332  0.8638  0.3982  0.7425
16334SOL     OW49579   4.823   6.092   3.899 -0.1349 -0.2899 -0.3261
16334SOL    HW149580   4.813   6.031   3.826  1.2097 -1.2682  0.2476
16334SOL    HW249581   4.916   6.114   3.899 -0.2717  0.3547  0.5762
16335SOL     OW49582   4.717   1.409   7.909 -0.1521 -0.1163 -0.3367
16335SOL    HW149583   4.733   1.431   7.817 -0.2378 -0.9708 -0.5617
16335SOL    HW249584   4.622   1.395   7.914 -0.4194  1.6110  0.2690
16336SOL     OW49585   0.929   3.137   1.383  0.2942  0.0079  0.4947
16336SOL    HW149586   0.916   3.045   1.405  0.8979 -0.0404  0.6519
16336SOL    HW249587   0.998   3.167   1.442  0.2989  0.4858  0.2536
16337SOL     OW49588   7.648   8.833   7.157  0.1166 -0.3011  0.1919
16337SOL    HW149589   7.736   8.840   7.120 -0.2598  0.2145 -0.6333
16337SOL    HW249590   7.593   8.809   7.083 -0.7812  1.5172  0.2012
16338SOL     OW49591   9.641   2.506   7.917 -0.6982  0.4099  0.1908
16338SOL    HW149592   9.601   2.420   7.932 -2.5629  1.1350 -0.3232
16338SOL    HW249593   9.735   2.488   7.910 -1.0584 -1.6102 -0.1029
16339SOL     OW49594   4.354   4.549   7.795 -0.1391  0.3111 -0.6722
16339SOL    HW149595   4.423   4.543   7.729 -0.2142 -0.1901 -0.7085
16339SOL    HW249596   4.390   4.609   7.861  1.1626 -1.4151  0.2720
16340SOL     OW49597   6.407   8.367   5.696  0.5949 -0.0015 -0.4550
16340SOL    HW149598   6.315   8.390   5.685  0.6227  0.2521 -0.1735
16340SOL    HW249599   6.432   8.326   5.614  0.0128 -0.7938 -0.2519
16341SOL     OW49600   7.071   1.276   4.062  0.4573 -0.0687 -0.0609
16341SOL    HW149601   7.119   1.193   4.061  0.8764  0.1721 -0.3479
16341SOL    HW249602   7.080   1.309   3.973 -2.8130 -1.4505 -1.0617
16342SOL     OW49603   5.880   4.161   0.292 -0.4843  0.2650  0.2088
16342SOL    HW149604   5.826   4.240   0.295 -1.8857 -0.6736  0.8671
16342SOL    HW249605   5.968   4.191   0.317 -0.4356  1.9832 -1.7019
16343SOL     OW49606   3.404   0.716   8.013  0.0329 -0.1437  0.4113
16343SOL    HW149607   3.329   0.775   8.004  0.1272 -0.2200 -1.2033
16343SOL    HW249608   3.475   0.762   7.968  0.3871 -0.9968  0.0897
16344SOL     OW49609   3.880   6.734   8.290  0.2575 -0.4024  0.1457
16344SOL    HW149610   3.971   6.757   8.309  0.2871  0.5215 -0.9863
16344SOL    HW249611   3.874   6.736   8.194 -1.3027  1.0883  0.2146
16345SOL     OW49612   2.799   9.387   0.349  0.5279  0.3525 -0.3324
16345SOL    HW149613   2.801   9.291   0.348 -2.5198  0.0999  2.0201
16345SOL    HW249614   2.849   9.411   0.427  0.7876  0.6650 -0.5916
16346SOL     OW49615   1.104   2.895   6.479  0.2225  0.0877 -0.0963
16346SOL    HW149616   1.105   2.928   6.389  2.9108 -0.6931 -0.4434
16346SOL    HW249617   1.041   2.823   6.477  2.1590 -1.7115 -2.1655
16347SOL     OW49618   4.563   8.234   3.363  0.2536 -0.4168 -0.0575
16347SOL    HW149619   4.481   8.214   3.317 -0.3088 -1.4414  1.3088
16347SOL    HW249620   4.626   8.171   3.329  0.6477  0.6934 -1.4750
16348SOL     OW49621   9.816   0.015   6.347  0.0314 -0.6749  0.0200
16348SOL    HW149622   9.788  -0.014   6.433  0.0565  0.6033  0.4842
16348SOL    HW249623   9.898   0.062   6.363  1.4957 -2.6980 -1.0599
16349SOL     OW49624   8.866   8.948   2.529 -0.0521 -0.1073 -0.1727
16349SOL    HW149625   8.883   8.978   2.440  0.7380  1.5815  0.5002
16349SOL    HW249626   8.872   8.852   2.524  0.8886 -0.0047 -1.7419
16350SOL     OW49627   8.702   5.686   1.359 -0.5434 -0.4654 -0.1728
16350SOL    HW149628   8.767   5.753   1.334 -1.6260  0.5422 -0.3633
16350SOL    HW249629   8.725   5.610   1.306 -0.0942  0.1876 -0.9483
16351SOL     OW49630   0.389   4.196   3.546  0.8819 -0.3468 -0.3685
16351SOL    HW149631   0.395   4.291   3.551  1.1266 -0.3558 -0.5031
16351SOL    HW249632   0.479   4.165   3.554  0.9046 -0.5232 -1.1996
16352SOL     OW49633   5.390   3.620   2.772 -0.8758  0.0212  0.4278
16352SOL    HW149634   5.367   3.711   2.789 -2.2487 -0.3288  0.5162
16352SOL    HW249635   5.397   3.580   2.859  2.1155  0.5553  0.5280
16353SOL     OW49636   9.176   2.751   4.951  0.2235  0.5125 -0.4202
16353SOL    HW149637   9.180   2.664   4.911  2.0066  0.2056  0.3224
16353SOL    HW249638   9.096   2.750   5.003 -0.6416 -0.0717 -1.7100
16354SOL     OW49639   4.284   3.197   4.327 -0.2388  0.5714 -0.1600
16354SOL    HW149640   4.285   3.200   4.423 -0.1233 -3.0514  0.1067
16354SOL    HW249641   4.334   3.274   4.300  0.1541  1.4472  2.6778
16355SOL     OW49642   6.888   5.158   4.623 -0.2372 -0.2579  0.0148
16355SOL    HW149643   6.913   5.251   4.632  0.1018 -0.4466  1.3128
16355SOL    HW249644   6.862   5.133   4.711 -1.8218 -1.0003 -0.6404
16356SOL     OW49645   6.735   4.931   3.774 -0.2067  0.3590 -0.2821
16356SOL    HW149646   6.785   5.004   3.811  1.5193 -0.5678 -0.7047
16356SOL    HW249647   6.679   4.972   3.707 -0.9473  1.5790  1.0334
16357SOL     OW49648   5.390   2.329   8.101  0.3082 -0.4872  0.8827
16357SOL    HW149649   5.476   2.371   8.106  0.2231 -0.2902  0.6812
16357SOL    HW249650   5.389   2.284   8.017 -0.7446  1.6368 -0.3223
16358SOL     OW49651   0.371   1.537   9.668  0.1882 -0.5045  0.3691
16358SOL    HW149652   0.406   1.609   9.616  2.0600 -1.1198  0.6819
16358SOL    HW249653   0.278   1.533   9.645  0.7639 -0.2592 -2.3732
16359SOL     OW49654   9.598   7.517   0.999 -0.5267  0.3406 -0.3936
16359SOL    HW149655   9.647   7.437   1.017 -1.4582 -0.4706 -1.3132
16359SOL    HW249656   9.631   7.581   1.062 -1.4827 -1.4456  2.0781
16360SOL     OW49657   3.620   4.565   6.923  0.4037 -0.4176 -0.1781
16360SOL    HW149658   3.549   4.525   6.874  1.9867 -1.8364 -1.4563
16360SOL    HW249659   3.698   4.549   6.869  1.9192 -0.2480  1.8401
16361SOL     OW49660   7.712   1.094   9.536  0.0116  0.2006  0.0379
16361SOL    HW149661   7.769   1.154   9.584 -0.4423  1.6988 -1.2062
16361SOL    HW249662   7.739   1.007   9.564  1.2605  0.9576  1.2842
16362SOL     OW49663   9.035   8.133   0.209 -0.0792 -0.1403 -0.3477
16362SOL    HW149664   8.951   8.129   0.256  0.6204 -0.7937  0.8692
16362SOL    HW249665   9.095   8.082   0.262  0.8824 -0.4564 -1.6975
16363SOL     OW49666   1.428   0.937   3.767 -0.2050  0.0716 -0.1646
16363SOL    HW149667   1.340   0.913   3.738  0.0526 -0.3822 -0.5721
16363SOL    HW249668   1.460   0.859   3.811 -0.3443  0.5370  0.7873
16364SOL     OW49669   3.897   1.494   0.339 -0.0353  0.4091 -0.0497
16364SOL    HW149670   3.951   1.561   0.382 -0.7350  0.3100  1.0234
16364SOL    HW249671   3.922   1.499   0.247 -0.1538  2.2271 -0.0182
16365SOL     OW49672   8.765   5.649   6.598 -0.3328  0.2583 -0.5649
16365SOL    HW149673   8.763   5.698   6.680  1.6340  1.0465 -0.9326
16365SOL    HW249674   8.782   5.715   6.530  2.2321 -0.8257 -1.0921
16366SOL     OW49675   7.476   5.107   1.291 -0.0985 -0.4303 -0.0994
16366SOL    HW149676   7.569   5.098   1.273 -0.2553 -2.1871 -0.2202
16366SOL    HW249677   7.461   5.050   1.367 -0.9953  0.2286  0.2395
16367SOL     OW49678   0.814   8.383   6.092 -0.0226 -0.1968  0.1390
16367SOL    HW149679   0.875   8.427   6.151 -1.5773 -0.1800  1.8456
16367SOL    HW249680   0.796   8.299   6.135 -1.7688  0.1331  0.1167
16368SOL     OW49681   8.155   0.550   2.566  0.0511  0.3242 -0.1726
16368SOL    HW149682   8.188   0.625   2.516  2.0777 -0.4921 -0.1407
16368SOL    HW249683   8.095   0.506   2.505  0.7282  0.6108 -1.0710
16369SOL     OW49684   9.157   4.617   1.607  0.3110 -0.5497  0.0489
16369SOL    HW149685   9.070   4.627   1.646  0.0078 -2.5519 -0.0083
16369SOL    HW249686   9.155   4.530   1.567  1.9083 -0.0837 -1.1100
16370SOL     OW49687   2.277   3.124   4.324  0.0179  0.4022 -0.6318
16370SOL    HW149688   2.218   3.065   4.369  0.3083  0.4986 -0.1227
16370SOL    HW249689   2.321   3.069   4.259  1.1201 -0.2102  0.5972
16371SOL     OW49690   3.071   6.876   5.464 -0.2824  0.1109 -0.1936
16371SOL    HW149691   3.079   6.944   5.531 -0.1186 -0.6491  0.5801
16371SOL    HW249692   3.096   6.795   5.509 -1.4365 -0.6177 -0.8086
16372SOL     OW49693   8.718   2.374   4.956  0.0999  0.1825 -0.3180
16372SOL    HW149694   8.791   2.312   4.954  0.8781  0.9865  1.0112
16372SOL    HW249695   8.760   2.460   4.956 -0.9653  0.8254 -3.1736
16373SOL     OW49696   6.401   2.786   4.879  0.1518  0.0449 -0.7872
16373SOL    HW149697   6.347   2.857   4.846 -0.9171  0.8727  2.3872
16373SOL    HW249698   6.489   2.824   4.888 -0.3456  0.9147  0.6058
16374SOL     OW49699   2.089   8.551   0.793  0.2728  0.2487 -0.4462
16374SOL    HW149700   2.117   8.514   0.709  0.9892  0.3497 -0.2593
16374SOL    HW249701   2.082   8.645   0.777 -1.2745  0.0831 -0.8457
16375SOL     OW49702   5.521   5.986   1.317 -0.3776 -0.1501  0.0372
16375SOL    HW149703   5.597   5.932   1.295 -2.4444 -3.2509 -0.0981
16375SOL    HW249704   5.523   5.994   1.413  0.4956  0.4735 -0.0238
16376SOL     OW49705   3.761   9.121   6.156 -0.3076 -0.3644  0.1195
16376SOL    HW149706   3.796   9.131   6.068  0.0900  0.9673  0.4006
16376SOL    HW249707   3.812   9.050   6.195 -0.4090 -0.8792 -0.6758
16377SOL     OW49708   3.551   2.892   9.197  0.1711  0.2470  0.2343
16377SOL    HW149709   3.508   2.940   9.267 -0.9132 -0.6266  0.2064
16377SOL    HW249710   3.512   2.926   9.117  0.6207  0.4946  0.1216
16378SOL     OW49711   8.932   0.222   7.366  0.2303 -0.2572  0.5174
16378SOL    HW149712   8.995   0.171   7.419  0.5327 -0.7794 -0.3231
16378SOL    HW249713   8.879   0.156   7.323  0.0310  0.1648  0.1126
16379SOL     OW49714   1.758   7.099   1.575 -0.0856  0.5663  0.5155
16379SOL    HW149715   1.731   7.045   1.650  0.8965 -1.0841 -0.2713
16379SOL    HW249716   1.850   7.119   1.593  0.5906 -1.0613 -0.8880
16380SOL     OW49717   9.425   9.073   5.876 -0.2757 -0.1382 -0.0596
16380SOL    HW149718   9.402   9.117   5.958  1.0530 -0.6947  0.6495
16380SOL    HW249719   9.360   9.103   5.813 -0.9929  0.7356  1.0654
16381SOL     OW49720   8.611   5.992   7.047 -0.1478 -0.4112 -0.5371
16381SOL    HW149721   8.555   5.933   6.997 -1.4782  2.5548 -2.8444
16381SOL    HW249722   8.682   6.015   6.986  0.2825  0.4190  0.2536
16382SOL     OW49723   4.023   3.256   1.813 -0.1342  0.0221 -0.0203
16382SOL    HW149724   4.028   3.171   1.858 -1.4717  0.4668  1.0237
16382SOL    HW249725   4.115   3.283   1.804  0.2163  0.0600  2.7946
16383SOL     OW49726   3.822   4.791   9.497 -0.0495  0.1176 -0.2045
16383SOL    HW149727   3.852   4.829   9.580 -2.9757  0.2976  0.8960
16383SOL    HW249728   3.829   4.696   9.511 -1.6433  0.1111  0.7788
16384SOL     OW49729   2.218   0.612   2.347  0.1934  0.2209 -0.0595
16384SOL    HW149730   2.170   0.555   2.286  1.0488  1.4517 -1.9985
16384SOL    HW249731   2.196   0.578   2.434 -0.2692 -2.3108 -1.0540
16385SOL     OW49732   1.039   3.564   8.701 -0.0263 -0.0458 -0.3208
16385SOL    HW149733   1.050   3.641   8.645  2.2596  0.5206  0.7654
16385SOL    HW249734   0.976   3.591   8.767  1.6051  1.4007  0.7345
16386SOL     OW49735   4.590   6.476   9.940 -0.3449 -0.0527  0.0227
16386SOL    HW149736   4.552   6.420  10.007 -0.7636  1.8798  1.4694
16386SOL    HW249737   4.617   6.415   9.870  1.3638 -2.3207  2.4617
16387SOL     OW49738   5.606   6.729   1.275 -0.4795  0.2411  0.6785
16387SOL    HW149739   5.561   6.794   1.222 -1.9921 -0.0725  1.5236
16387SOL    HW249740   5.697   6.733   1.246 -0.9009  1.4129 -0.5702
16388SOL     OW49741   3.813   6.619   3.644 -0.2076  0.0624  0.3780
16388SOL    HW149742   3.821   6.652   3.734 -0.3757 -1.4437  0.9897
16388SOL    HW249743   3.876   6.670   3.594 -1.2135  2.0149  1.0042
16389SOL     OW49744   2.266   8.058   6.043  0.1106 -0.0408 -0.3613
16389SOL    HW149745   2.317   8.078   5.964 -1.9255 -0.8608 -1.9917
16389SOL    HW249746   2.309   7.981   6.081  1.3224  0.5711 -0.4605
16390SOL     OW49747   8.183   8.902   2.677  0.0846  0.0340  0.0941
16390SOL    HW149748   8.140   8.907   2.591 -1.3440  2.8903  0.8403
16390SOL    HW249749   8.273   8.930   2.660 -0.5161  1.8270 -0.3541
16391SOL     OW49750   4.200   9.642   1.267  0.1476  0.3599  0.1160
16391SOL    HW149751   4.115   9.607   1.239  0.8678 -1.5193  0.0842
16391SOL    HW249752   4.197   9.735   1.245 -2.0284  0.4232  0.4523
16392SOL     OW49753   6.295   3.932   8.356 -0.6926  0.1293  0.6844
16392SOL    HW149754   6.326   3.938   8.266 -1.6393 -2.3611  0.1005
16392SOL    HW249755   6.201   3.951   8.350 -0.8213 -0.3572  1.0815
16393SOL     OW49756   3.250   4.662   2.418 -0.6854  0.5849  0.1961
16393SOL    HW149757   3.234   4.719   2.493  0.4105  0.1334  0.7969
16393SOL    HW249758   3.176   4.678   2.360 -0.6777  2.2282  0.5801
16394SOL     OW49759   6.618   5.205   5.767  0.8308 -0.1026  0.0755
16394SOL    HW149760   6.533   5.161   5.762  0.4313  0.5664  0.7538
16394SOL    HW249761   6.597   5.298   5.775  1.6491  0.1479 -0.5117
16395SOL     OW49762   0.133   5.358   8.113 -0.3937  0.6127 -0.0069
16395SOL    HW149763   0.144   5.436   8.169 -0.6714  1.1259 -0.6492
16395SOL    HW249764   0.157   5.285   8.169 -1.7159  1.0185  1.1439
16396SOL     OW49765   8.650   6.385   1.548  0.2733 -0.3207 -0.2189
16396SOL    HW149766   8.583   6.438   1.504  1.0087  0.9474  0.1177
16396SOL    HW249767   8.730   6.438   1.541  0.9846 -1.2880  0.3675
16397SOL     OW49768   8.173   0.322   1.246  0.0052  0.4380  0.4130
16397SOL    HW149769   8.092   0.338   1.198 -0.9672 -2.3658  0.8791
16397SOL    HW249770   8.225   0.267   1.188  0.8194  0.7769  0.8075
16398SOL     OW49771   2.327   2.737   3.030  0.8404  0.5988  0.2172
16398SOL    HW149772   2.407   2.748   3.080 -0.5490  0.6379  2.6090
16398SOL    HW249773   2.269   2.807   3.061 -1.6857 -2.0428  2.0932
16399SOL     OW49774   1.400   9.158   2.198  0.1550 -0.2042 -0.8796
16399SOL    HW149775   1.351   9.153   2.280  0.2057  0.6421 -0.7934
16399SOL    HW249776   1.450   9.077   2.196  1.2122  0.3616  0.6120
16400SOL     OW49777   3.658   8.352   2.128 -0.0129 -0.0384 -0.4365
16400SOL    HW149778   3.717   8.280   2.106  0.2380  0.3574 -1.0873
16400SOL    HW249779   3.601   8.316   2.195 -0.5470 -1.1713 -1.4539
16401SOL     OW49780   3.074   0.351   0.399  0.1688  0.3841  0.0229
16401SOL    HW149781   2.979   0.355   0.408  0.1713 -1.0451  1.0404
16401SOL    HW249782   3.104   0.437   0.428 -0.7855  0.6966  0.1197
16402SOL     OW49783   1.581   5.487   9.281  0.2186 -0.0921  0.7025
16402SOL    HW149784   1.663   5.501   9.234 -0.8242 -1.4343 -1.7227
16402SOL    HW249785   1.565   5.392   9.274 -1.8737  0.2245  0.4480
16403SOL     OW49786   6.113   4.302   6.646  0.4312  0.7577 -0.6045
16403SOL    HW149787   6.063   4.222   6.634  0.7557  0.7171 -1.7579
16403SOL    HW249788   6.202   4.279   6.622  1.3047  0.5618  2.3641
16404SOL     OW49789   6.367   7.246   0.898 -0.7121 -0.2673 -0.6153
16404SOL    HW149790   6.387   7.259   0.991 -1.4645 -2.2748 -0.1104
16404SOL    HW249791   6.325   7.160   0.895 -0.0934 -0.5470 -2.9133
16405SOL     OW49792   9.457   3.799   9.444 -0.0241 -0.4510  0.0934
16405SOL    HW149793   9.459   3.871   9.506 -1.2132 -0.6251  0.3503
16405SOL    HW249794   9.478   3.722   9.496 -1.7683 -0.7081  0.4777
16406SOL     OW49795   2.919   4.139   6.743 -0.3311 -0.0760 -0.4852
16406SOL    HW149796   3.014   4.137   6.735 -0.3060  0.7341 -0.5247
16406SOL    HW249797   2.897   4.232   6.735 -0.6910  0.5124  4.4394
16407SOL     OW49798   4.414   3.109   9.953 -0.0895  0.1701 -0.4580
16407SOL    HW149799   4.383   3.128   9.865  0.7077 -0.5440 -0.9151
16407SOL    HW249800   4.388   3.018   9.969  1.8839 -0.5305 -0.9512
16408SOL     OW49801   7.023   6.013   7.879  0.0806 -0.3999  0.2340
16408SOL    HW149802   6.980   6.042   7.960  0.2999  0.9467 -0.1037
16408SOL    HW249803   7.117   6.020   7.899  0.1375 -0.7669  0.0994
16409SOL     OW49804   0.662   1.756   0.105 -0.0956 -0.1272  0.2329
16409SOL    HW149805   0.566   1.758   0.113 -0.0704  0.4151  0.4176
16409SOL    HW249806   0.693   1.823   0.166  0.3758  0.0614 -0.2025
16410SOL     OW49807   8.802   9.763   4.020 -0.1734  0.0346  0.2302
16410SOL    HW149808   8.740   9.759   3.947 -0.1427  2.1984  0.0134
16410SOL    HW249809   8.850   9.681   4.015 -1.6387 -0.8133 -0.8501
16411SOL     OW49810   4.242   5.761   0.154 -0.1710 -0.1729 -0.5421
16411SOL    HW149811   4.239   5.845   0.110  0.9095 -1.0077 -2.3018
16411SOL    HW249812   4.295   5.776   0.232 -0.0915  0.7919 -0.7767
16412SOL     OW49813   5.861   2.956   9.594 -0.1944  0.3711 -0.2685
16412SOL    HW149814   5.873   2.973   9.501 -3.5910  1.7569 -0.6004
16412SOL    HW249815   5.869   3.043   9.635  0.3444 -0.0807  0.5978
16413SOL     OW49816   7.431   7.812   9.296  0.2291  0.2799 -0.5521
16413SOL    HW149817   7.438   7.716   9.290  2.1777  0.4949 -3.2877
16413SOL    HW249818   7.394   7.827   9.384 -1.2296 -2.9730 -0.4344
16414SOL     OW49819   4.732   9.444   2.129 -0.3013 -0.8760 -0.2036
16414SOL    HW149820   4.697   9.529   2.102  0.9162  0.1888  1.3499
16414SOL    HW249821   4.746   9.396   2.047 -1.4226  0.2443 -1.0826
16415SOL     OW49822   7.644   1.450   3.116 -0.0789 -0.5339  0.0767
16415SOL    HW149823   7.585   1.492   3.178  1.5556  1.0998  0.6341
16415SOL    HW249824   7.726   1.500   3.123  1.8503 -3.4494  0.3197
16416SOL     OW49825   6.210   0.794   6.040 -0.0947  0.3012  0.0714
16416SOL    HW149826   6.160   0.860   5.992 -0.3520 -0.9245 -1.4394
16416SOL    HW249827   6.147   0.724   6.057  0.9044 -1.0456 -1.4088
16417SOL     OW49828   6.335   7.514   7.629 -0.1183 -0.7415 -0.0348
16417SOL    HW149829   6.295   7.525   7.542 -0.2648  1.1474  0.2405
16417SOL    HW249830   6.334   7.602   7.667  2.3008 -1.0503  0.8725
16418SOL     OW49831   6.852   2.758   3.305 -0.1020 -0.0877  0.3429
16418SOL    HW149832   6.833   2.843   3.266 -0.9957 -0.2138  0.4930
16418SOL    HW249833   6.889   2.778   3.391 -0.2515  0.1442  0.3518
16419SOL     OW49834   3.997   4.911   5.125  0.5607 -0.2536 -0.5050
16419SOL    HW149835   3.999   4.840   5.061 -0.6379 -0.8058  0.0412
16419SOL    HW249836   4.080   4.903   5.172  0.9981 -0.4793 -1.2848
16420SOL     OW49837   5.979   3.677   7.669 -0.2230 -0.2189  0.0444
16420SOL    HW149838   5.957   3.682   7.762 -0.5752  1.4122 -0.0824
16420SOL    HW249839   5.960   3.765   7.635  0.8410 -0.4781 -1.3599
16421SOL     OW49840   4.391   9.778   5.624 -0.2595  0.5292  0.2861
16421SOL    HW149841   4.474   9.826   5.629 -0.9374  1.8253 -0.4069
16421SOL    HW249842   4.343   9.806   5.702 -1.0168  1.7221 -0.5755
16422SOL     OW49843   4.520   4.229   8.681 -0.4927 -0.2911  0.2293
16422SOL    HW149844   4.552   4.184   8.759  1.3773  0.5740  0.0085
16422SOL    HW249845   4.531   4.322   8.701 -0.4390 -0.0417 -0.8852
16423SOL     OW49846   5.373   5.878   7.251 -0.0937  0.5863  0.1797
16423SOL    HW149847   5.343   5.921   7.331  1.1279  1.2585  0.2938
16423SOL    HW249848   5.332   5.791   7.254 -0.4591  0.7844  1.2830
16424SOL     OW49849   3.203   9.478   7.559 -0.7278  0.1341 -0.1675
16424SOL    HW149850   3.263   9.523   7.499 -0.8589  0.8551  0.2228
16424SOL    HW249851   3.259   9.421   7.611 -0.0943  1.9868  1.2993
16425SOL     OW49852   1.678   2.302   8.198 -0.6798 -0.1046  0.4338
16425SOL    HW149853   1.641   2.314   8.285 -1.8676 -2.0442  0.2490
16425SOL    HW249854   1.604   2.275   8.144  0.5720 -1.9166 -0.4708
16426SOL     OW49855   3.770   8.076   6.500  0.4259 -0.2637  0.0241
16426SOL    HW149856   3.736   8.125   6.574  1.0967  1.3617 -0.6898
16426SOL    HW249857   3.865   8.086   6.506  0.5297 -0.8651 -0.5438
16427SOL     OW49858   5.969   5.624   7.790 -0.1507 -0.7539  0.3707
16427SOL    HW149859   5.953   5.655   7.879  0.2828 -0.4114  0.3307
16427SOL    HW249860   6.038   5.558   7.799  0.6549  0.0508  0.1633
16428SOL     OW49861   4.505   3.092   7.868 -0.6838  0.0052 -0.0373
16428SOL    HW149862   4.438   3.132   7.812 -1.3978 -0.6603  0.3258
16428SOL    HW249863   4.462   3.081   7.952 -0.4580 -1.3787 -0.0765
16429SOL     OW49864   6.444   2.235   3.239  0.2065 -0.1219 -0.0775
16429SOL    HW149865   6.382   2.205   3.305  0.4515  1.6238  1.0158
16429SOL    HW249866   6.389   2.280   3.174  0.0745 -0.9137 -0.5244
16430SOL     OW49867   9.392   0.766   2.222 -0.1333 -0.4527 -0.0667
16430SOL    HW149868   9.424   0.718   2.146  1.4443 -0.1844  0.4024
16430SOL    HW249869   9.340   0.838   2.186  0.5182 -0.3878 -0.8819
16431SOL     OW49870   8.461   3.728   2.747 -0.6731  0.3847 -0.6920
16431SOL    HW149871   8.524   3.781   2.697 -1.8786  1.5591 -1.0312
16431SOL    HW249872   8.429   3.787   2.815 -2.9317  0.5510 -1.7998
16432SOL     OW49873   6.677   8.846   1.250  0.0302  0.2407  0.3381
16432SOL    HW149874   6.700   8.774   1.308  0.2876 -1.8967 -2.1918
16432SOL    HW249875   6.691   8.925   1.302  1.1302 -1.4636  2.8159
16433SOL     OW49876   4.009   2.241   4.352 -0.1680 -0.4888 -0.0920
16433SOL    HW149877   4.081   2.292   4.315 -0.2009  1.6005  2.4667
16433SOL    HW249878   3.952   2.222   4.277  1.2836  0.8268 -1.5976
16434SOL     OW49879   1.780   4.960   6.389  0.2223  0.0357 -0.0067
16434SOL    HW149880   1.692   4.956   6.353  0.2824 -0.2220 -0.1298
16434SOL    HW249881   1.792   4.875   6.431 -0.0735  0.5528  1.1550
16435SOL     OW49882   5.307   6.273   2.114  0.2488 -0.3649  0.5948
16435SOL    HW149883   5.272   6.345   2.166 -0.6676 -1.2693  1.2596
16435SOL    HW249884   5.231   6.235   2.070  0.4337 -1.9500  1.5481
16436SOL     OW49885   7.510   9.096   7.554  0.2394 -0.5771 -0.1597
16436SOL    HW149886   7.449   9.048   7.610 -1.7613  0.6562 -1.1620
16436SOL    HW249887   7.507   9.050   7.471  0.4607 -0.3631 -0.2859
16437SOL     OW49888   4.885   6.295   3.049  0.3473 -0.5627  0.1285
16437SOL    HW149889   4.954   6.360   3.038 -1.1794  1.3936  1.3823
16437SOL    HW249890   4.876   6.255   2.963  2.5770 -0.4482 -0.2140
16438SOL     OW49891   0.040   4.657   0.086  0.1272 -0.5444  0.4913
16438SOL    HW149892   0.028   4.750   0.103 -1.3562 -0.3749 -1.2106
16438SOL    HW249893  -0.048   4.621   0.086  0.4977 -1.5510 -0.8504
16439SOL     OW49894   1.993   3.060   7.754  0.4230 -0.4309 -0.1981
16439SOL    HW149895   1.915   3.025   7.710  1.5767  0.0396 -2.8198
16439SOL    HW249896   2.001   3.009   7.834 -1.4109 -1.8905 -0.8828
16440SOL     OW49897   4.040   1.231   8.922  0.0368  0.1151 -0.2418
16440SOL    HW149898   4.036   1.267   9.010  0.4690 -0.6944  0.1158
16440SOL    HW249899   4.100   1.289   8.875  0.8369 -0.1995  0.3658
16441SOL     OW49900   9.113   8.798   5.324  0.2415 -0.2563  0.6471
16441SOL    HW149901   9.074   8.871   5.276 -0.4560 -2.4697 -2.4215
16441SOL    HW249902   9.039   8.753   5.364  0.4915 -0.3295  1.0416
16442SOL     OW49903   6.140   6.943   7.664  0.5143 -0.1721 -0.2325
16442SOL    HW149904   6.109   7.033   7.670 -3.2682 -1.2667 -0.7064
16442SOL    HW249905   6.112   6.914   7.577  0.3180 -2.1911  0.4564
16443SOL     OW49906   1.804   3.076   3.206  0.7103 -0.4356  0.1807
16443SOL    HW149907   1.801   3.029   3.289  0.3192 -1.9959 -0.6935
16443SOL    HW249908   1.713   3.085   3.179  0.9092 -1.5909 -0.9681
16444SOL     OW49909   3.301   2.249   9.290  0.2319 -0.4050  0.4921
16444SOL    HW149910   3.344   2.271   9.207  0.4367  0.4032  0.7976
16444SOL    HW249911   3.226   2.307   9.294 -0.9925 -1.8815 -0.0784
16445SOL     OW49912   3.695   5.362   3.590 -0.4912 -0.0714  0.0039
16445SOL    HW149913   3.655   5.335   3.507  0.4795  0.5282 -0.6764
16445SOL    HW249914   3.747   5.287   3.617  2.2242  0.9698 -1.8967
16446SOL     OW49915   1.746   0.824   6.802  0.2206 -0.1889 -0.0481
16446SOL    HW149916   1.743   0.803   6.895 -0.9966  1.6410  0.3800
16446SOL    HW249917   1.787   0.911   6.798 -0.6866  0.2237 -1.1047
16447SOL     OW49918   2.849   7.569   0.749  0.3173  0.1233 -0.5360
16447SOL    HW149919   2.769   7.593   0.702  0.1788 -1.3861 -1.1264
16447SOL    HW249920   2.846   7.621   0.829 -1.1013  0.3169 -0.6826
16448SOL     OW49921   3.874   1.377   2.989  0.6246  0.3799 -0.2292
16448SOL    HW149922   3.915   1.306   3.038  0.4137  0.6723  0.3726
16448SOL    HW249923   3.860   1.340   2.902  0.4169 -0.3564  0.1079
16449SOL     OW49924   2.599   5.362   8.976  0.1215  0.2513 -0.0818
16449SOL    HW149925   2.598   5.274   8.940 -2.1003  0.3550 -0.4041
16449SOL    HW249926   2.608   5.350   9.071  0.4841 -0.2892 -0.1849
16450SOL     OW49927   4.281   7.221   5.079 -0.0947  0.7265 -0.1844
16450SOL    HW149928   4.285   7.172   5.161 -1.0704  0.9823  0.0296
16450SOL    HW249929   4.188   7.228   5.060  0.0590  1.9002 -0.5776
16451SOL     OW49930   0.274   8.178   7.321 -0.1031 -0.2394 -0.0344
16451SOL    HW149931   0.293   8.159   7.413  1.6222  1.4945  0.0206
16451SOL    HW249932   0.199   8.237   7.323  0.1248  0.0386  0.2698
16452SOL     OW49933   8.033   9.526   4.917 -0.2311 -0.4961  0.3047
16452SOL    HW149934   8.108   9.583   4.899 -1.7521  1.4820 -0.0731
16452SOL    HW249935   8.009   9.546   5.007 -1.3463  0.1684 -0.1268
16453SOL     OW49936   2.090   4.620   6.566 -0.0844  0.4371 -0.2714
16453SOL    HW149937   2.138   4.591   6.644  0.5651  1.0299 -0.4329
16453SOL    HW249938   2.048   4.702   6.593  0.1903  0.6753 -0.5526
16454SOL     OW49939   0.868   9.498   9.589  0.2763  0.0880 -0.1483
16454SOL    HW149940   0.848   9.590   9.575  2.3457  0.2398 -2.8493
16454SOL    HW249941   0.952   9.499   9.636  1.2347 -0.3488 -1.7894
16455SOL     OW49942   7.988   1.648   2.978 -0.0510 -0.6052  0.7981
16455SOL    HW149943   7.955   1.675   2.893 -1.3737  0.8954  1.7245
16455SOL    HW249944   8.043   1.721   3.007  1.2629 -1.5556  0.8166
16456SOL     OW49945   9.964   0.759   8.955 -0.7437 -0.4584  0.1234
16456SOL    HW149946   9.963   0.666   8.976 -0.4635 -0.1331  1.6755
16456SOL    HW249947   9.983   0.762   8.861  0.7141 -1.9100  0.3338
16457SOL     OW49948   8.450   7.428   7.916  0.5508 -0.1456 -0.2145
16457SOL    HW149949   8.409   7.438   7.830 -1.1178 -0.4190  0.5138
16457SOL    HW249950   8.399   7.359   7.958  0.7715  0.6182  1.3454
16458SOL     OW49951   1.115   8.927   9.571  0.4225  0.5846  0.1354
16458SOL    HW149952   1.087   9.005   9.523 -1.6877  0.8668  1.7052
16458SOL    HW249953   1.090   8.854   9.515 -3.5418  0.8248  1.2533
16459SOL     OW49954   5.924   5.965   1.056  0.2547 -0.4704  0.1754
16459SOL    HW149955   5.863   5.931   1.122  0.8998 -1.8026  0.1084
16459SOL    HW249956   5.979   6.027   1.104  0.5054 -1.1853  0.8326
16460SOL     OW49957   7.853   1.950   5.284  0.2599  0.5319  0.0193
16460SOL    HW149958   7.838   2.017   5.351 -2.0908 -0.1067  0.2339
16460SOL    HW249959   7.872   2.000   5.204  0.0780  1.4164  0.5105
16461SOL     OW49960   1.816   9.332   4.994 -0.5329 -0.0457  0.1113
16461SOL    HW149961   1.786   9.249   5.033 -1.2667 -0.3906 -1.1454
16461SOL    HW249962   1.766   9.399   5.039 -0.8089 -0.3776  0.3066
16462SOL     OW49963   6.539   1.812   1.468  0.1362  0.1068 -0.0709
16462SOL    HW149964   6.510   1.880   1.407  2.5375  0.1153 -1.3309
16462SOL    HW249965   6.480   1.738   1.452 -0.2720  0.6643 -1.2677
16463SOL     OW49966   5.232   3.351   9.518 -0.2695  0.0135  0.5883
16463SOL    HW149967   5.219   3.281   9.454  1.1496 -1.5199  1.8642
16463SOL    HW249968   5.249   3.429   9.465 -1.8266 -0.5878 -0.8821
16464SOL     OW49969   9.452   5.757   8.310 -0.5400  0.6271 -0.1799
16464SOL    HW149970   9.539   5.736   8.278 -0.1059  1.2547  0.5688
16464SOL    HW249971   9.420   5.824   8.250  0.0158  1.3403  0.3139
16465SOL     OW49972   4.371   8.358   4.418 -0.0979  0.3878  0.1495
16465SOL    HW149973   4.440   8.406   4.372  0.0705  1.6812  1.6769
16465SOL    HW249974   4.400   8.267   4.416 -0.4416  0.2257 -2.8496
16466SOL     OW49975   3.228   3.315   7.460 -0.1362  0.0490 -0.0967
16466SOL    HW149976   3.241   3.316   7.365  0.7880 -1.9949 -0.0522
16466SOL    HW249977   3.316   3.301   7.496 -0.6710 -0.8073  0.9458
16467SOL     OW49978   6.072   4.306   4.999  0.2620 -0.0077  0.1435
16467SOL    HW149979   6.055   4.399   4.986 -0.5013 -0.3012 -1.0464
16467SOL    HW249980   5.989   4.262   4.979  1.1237 -1.0960 -1.2554
16468SOL     OW49981   8.906   2.315   5.850  0.2196 -0.2695  0.3832
16468SOL    HW149982   8.970   2.291   5.917 -0.8284 -1.1820  1.0897
16468SOL    HW249983   8.908   2.243   5.787 -0.4678 -0.5533  0.6781
16469SOL     OW49984   0.959   8.394   9.754  0.6183 -0.1438 -0.7081
16469SOL    HW149985   0.894   8.435   9.811 -0.6057 -1.0180 -1.4221
16469SOL    HW249986   1.036   8.383   9.810  0.0918  0.7459  0.2203
16470SOL     OW49987   2.621   8.362   3.946 -0.4215  0.6196  0.2472
16470SOL    HW149988   2.637   8.329   3.858  0.0698  1.6565 -0.0578
16470SOL    HW249989   2.562   8.437   3.934  0.2407  1.2283  0.7219
16471SOL     OW49990   6.134   3.927   5.440  0.0809 -0.2033  0.1088
16471SOL    HW149991   6.118   3.833   5.445 -1.1426 -0.4146 -3.9418
16471SOL    HW249992   6.228   3.935   5.425  0.1114 -0.8519 -0.0745
16472SOL     OW49993   4.982   3.558   9.272  0.1218 -0.1334  0.1844
16472SOL    HW149994   4.887   3.556   9.273 -0.0119 -0.9096 -3.1764
16472SOL    HW249995   5.008   3.467   9.259  1.2084  0.2777 -0.7139
16473SOL     OW49996   0.404   8.225   1.189  0.3290  0.9114  0.0716
16473SOL    HW149997   0.451   8.228   1.272  1.1264 -0.4645 -0.3048
16473SOL    HW249998   0.470   8.199   1.125 -0.8088 -0.5648 -0.5606
16474SOL     OW49999   8.824   4.576   6.632  0.3153 -0.4307 -0.0663
16474SOL    HW150000   8.785   4.632   6.700 -1.3045 -1.4392 -0.1133
16474SOL    HW250001   8.779   4.602   6.552  0.1495 -1.2254 -0.2342
16475SOL     OW50002   4.700   8.996   8.786  0.2497  0.2211  0.1497
16475SOL    HW150003   4.757   8.959   8.719  0.5656  0.1531  0.4519
16475SOL    HW250004   4.759   9.049   8.841 -0.1146  0.8039 -0.0076
16476SOL     OW50005   4.809   0.617   5.855 -0.3903 -0.3165  0.1007
16476SOL    HW150006   4.871   0.558   5.811 -0.8230 -0.2862 -0.5735
16476SOL    HW250007   4.836   0.617   5.947  0.6750 -0.2213 -0.1958
16477SOL     OW50008   6.467   3.296   8.608  0.5194  0.4447  0.0464
16477SOL    HW150009   6.540   3.237   8.589 -0.7366 -0.7251 -1.3443
16477SOL    HW250010   6.426   3.259   8.686  0.8297  0.5547  0.2637
16478SOL     OW50011   6.279   9.793   5.189  0.5722 -0.0632  0.4689
16478SOL    HW150012   6.337   9.780   5.264  1.2952  2.8553  0.5565
16478SOL    HW250013   6.242   9.881   5.202 -0.2553  0.0281 -1.9379
16479SOL     OW50014   6.482   8.968   6.813 -0.6864  0.1170 -0.5071
16479SOL    HW150015   6.536   8.896   6.845 -1.6299 -0.4234 -0.1213
16479SOL    HW250016   6.545   9.028   6.772  0.1151 -0.8912 -0.7994
16480SOL     OW50017   3.712   2.053   3.569  0.2975 -0.1962  0.7127
16480SOL    HW150018   3.744   2.141   3.549 -1.7732  0.8963  1.7728
16480SOL    HW250019   3.717   2.047   3.664  0.6070 -1.3234  0.6353
16481SOL     OW50020   7.892   3.127   2.043  0.1853  0.2988 -0.3495
16481SOL    HW150021   7.824   3.123   2.111  1.2098 -2.4073  0.6166
16481SOL    HW250022   7.924   3.217   2.047 -1.5738  0.9316  0.9006
16482SOL     OW50023   2.833   3.595   2.683 -0.4588 -0.2418 -0.3155
16482SOL    HW150024   2.768   3.662   2.705 -0.5371 -0.6869  0.8645
16482SOL    HW250025   2.782   3.525   2.641 -0.1703  1.0525 -3.1008
16483SOL     OW50026   7.451   6.821   7.041 -0.0830 -0.7263  0.0940
16483SOL    HW150027   7.475   6.913   7.032 -2.3026  0.1444  1.9917
16483SOL    HW250028   7.474   6.782   6.957 -0.7689  1.9717 -1.4765
16484SOL     OW50029   4.274   2.361   6.959 -0.0589  0.5180 -0.2562
16484SOL    HW150030   4.214   2.328   7.025 -0.1179  0.5822 -0.2775
16484SOL    HW250031   4.326   2.427   7.004 -0.5671  1.0623 -0.4430
16485SOL     OW50032   3.943   4.728   2.950 -0.8914 -0.6971 -0.0148
16485SOL    HW150033   4.038   4.738   2.952 -0.8689 -0.6777 -0.9528
16485SOL    HW250034   3.927   4.647   2.999 -0.4286 -0.5305  0.4321
16486SOL     OW50035   4.572   8.378   9.374 -0.6095  0.3860  0.7317
16486SOL    HW150036   4.520   8.428   9.438 -1.8750  1.8181 -1.2675
16486SOL    HW250037   4.577   8.290   9.410 -2.2041  0.8792  2.3011
16487SOL     OW50038   0.795   1.187   4.514  0.0951 -0.1723 -0.0649
16487SOL    HW150039   0.878   1.205   4.557 -0.0638  0.2936  0.0550
16487SOL    HW250040   0.750   1.272   4.512  0.2844 -0.0892 -1.5513
16488SOL     OW50041   6.358   2.126   9.650  0.3588  0.2233  0.2189
16488SOL    HW150042   6.278   2.154   9.695 -0.4910 -1.1207 -0.4126
16488SOL    HW250043   6.389   2.204   9.604 -0.1135  0.9696  1.1356
16489SOL     OW50044   4.493   9.878   9.185  0.0848 -0.0159  0.5551
16489SOL    HW150045   4.493   9.830   9.102  1.8435 -0.1757  0.6129
16489SOL    HW250046   4.505   9.970   9.160 -1.0599  0.1492  0.5640
16490SOL     OW50047   3.442   5.737   5.874  1.1946  0.4955  0.4280
16490SOL    HW150048   3.473   5.692   5.795 -0.2246  1.0250 -0.4801
16490SOL    HW250049   3.506   5.807   5.888  0.4551  1.6614 -1.4888
16491SOL     OW50050   7.749   8.555   6.144  0.0739 -0.2058 -0.1506
16491SOL    HW150051   7.735   8.498   6.069  1.5401 -0.3454 -0.3420
16491SOL    HW250052   7.788   8.635   6.108  1.0947 -0.3984  0.4707
16492SOL     OW50053   2.695   7.909   4.114 -0.0881 -0.3378 -0.1698
16492SOL    HW150054   2.667   7.977   4.176  0.3999  0.1692 -0.4991
16492SOL    HW250055   2.647   7.831   4.141  2.0048 -0.8490  2.4884
16493SOL     OW50056   3.574   4.560   1.668  0.0142  0.0725 -0.1855
16493SOL    HW150057   3.616   4.561   1.754  0.1478 -0.2949 -0.2446
16493SOL    HW250058   3.540   4.471   1.659  0.1741  0.0508 -0.5953
16494SOL     OW50059   2.275   3.423   9.023  0.1076 -0.6483 -0.5673
16494SOL    HW150060   2.287   3.392   8.933  0.1833 -0.2739 -0.6858
16494SOL    HW250061   2.204   3.368   9.058  1.4615 -2.2177 -0.1719
16495SOL     OW50062   4.369   4.854   2.125 -0.3480  0.1081 -0.6971
16495SOL    HW150063   4.292   4.797   2.137 -0.0167 -0.5188 -1.4595
16495SOL    HW250064   4.423   4.808   2.061 -0.0286  1.2573 -1.2776
16496SOL     OW50065   3.290   8.239   0.162  0.0998  0.0156  0.1293
16496SOL    HW150066   3.331   8.210   0.080 -1.2072 -0.0829 -0.5107
16496SOL    HW250067   3.362   8.277   0.212  0.8611  0.4521 -1.2342
16497SOL     OW50068   5.563   7.565   6.507  0.0112 -0.3150 -0.2112
16497SOL    HW150069   5.642   7.511   6.506  0.5175  0.3673  0.9538
16497SOL    HW250070   5.542   7.576   6.600 -0.6814  0.6191 -0.4584
16498SOL     OW50071   6.665   5.524   4.167 -0.1020 -0.2274 -0.2813
16498SOL    HW150072   6.605   5.459   4.130  0.0923 -0.0642 -0.8970
16498SOL    HW250073   6.633   5.538   4.256 -0.4027 -0.8476 -0.2822
16499SOL     OW50074   1.374   2.764   3.428 -0.0627 -0.2818  0.2441
16499SOL    HW150075   1.410   2.722   3.506  0.7754 -1.8088 -0.9198
16499SOL    HW250076   1.388   2.858   3.443  0.4393 -0.5636  1.7286
16500SOL     OW50077   9.261   8.488   0.278 -0.2040  0.6105 -0.2115
16500SOL    HW150078   9.289   8.411   0.229  1.9605  1.8308 -1.0525
16500SOL    HW250079   9.238   8.455   0.365 -1.2353 -1.2021 -1.1131
16501SOL     OW50080   5.175   4.499   9.036  0.2554  0.0767 -0.4157
16501SOL    HW150081   5.256   4.550   9.032 -0.8098  1.7761 -0.9742
16501SOL    HW250082   5.202   4.410   9.010  2.0792  0.3824  0.2471
16502SOL     OW50083   5.279   3.784   9.923  0.1950 -0.1077 -0.5343
16502SOL    HW150084   5.255   3.716   9.987 -0.1497 -0.7615 -1.3447
16502SOL    HW250085   5.366   3.758   9.893  0.1775 -0.0387 -0.6416
16503SOL     OW50086   5.048   4.318   8.153 -0.0110 -0.2058  0.4239
16503SOL    HW150087   5.025   4.401   8.196 -1.1573 -0.0237 -0.4821
16503SOL    HW250088   5.134   4.296   8.188  0.4904  1.5646  0.3961
16504SOL     OW50089   7.683   8.383   6.659  0.3360  0.7094  0.0077
16504SOL    HW150090   7.610   8.332   6.626  0.1805  0.6303  0.4588
16504SOL    HW250091   7.740   8.318   6.700  1.8018  0.4435 -2.2773
16505SOL     OW50092   4.161   7.760   8.162 -0.1744 -0.0967 -0.2643
16505SOL    HW150093   4.184   7.806   8.242 -3.6216  2.3082 -0.4356
16505SOL    HW250094   4.224   7.791   8.097 -0.0384  1.3873  0.5349
16506SOL     OW50095   8.619   4.712   9.129  0.5531 -0.4623 -0.0784
16506SOL    HW150096   8.627   4.733   9.036  1.6851  1.0850  0.3187
16506SOL    HW250097   8.528   4.732   9.150  0.8078  1.2597 -0.4229
16507SOL     OW50098   0.789   0.448   4.368 -0.0102  0.3667 -0.1749
16507SOL    HW150099   0.781   0.535   4.406  0.7805  0.3519  0.0556
16507SOL    HW250100   0.859   0.406   4.419  1.4970  0.5361 -1.9620
16508SOL     OW50101   7.441   7.054   4.945  0.3222 -0.0645  0.1315
16508SOL    HW150102   7.504   7.082   4.878  0.3421 -1.0873 -0.2949
16508SOL    HW250103   7.469   6.966   4.969 -1.5089 -0.9555 -0.7904
16509SOL     OW50104   3.815   0.048   3.537 -0.3018  0.3933  0.4270
16509SOL    HW150105   3.900   0.041   3.581 -1.6565  0.7086  3.2706
16509SOL    HW250106   3.828   0.118   3.473  1.6794  0.1353  0.4727
16510SOL     OW50107   0.703   0.315   8.299  0.2466 -0.4130 -0.2216
16510SOL    HW150108   0.628   0.277   8.254  1.0564 -0.6854 -1.3800
16510SOL    HW250109   0.665   0.371   8.367 -0.9779 -1.6891  0.1715
16511SOL     OW50110   5.523   8.111   8.754 -0.3983 -0.9271 -0.5562
16511SOL    HW150111   5.594   8.163   8.790 -0.1078 -2.5088  1.2963
16511SOL    HW250112   5.444   8.148   8.792 -0.5050  0.0826 -1.6951
16512SOL     OW50113   7.965   3.441   1.513  0.1113  0.0304  0.3064
16512SOL    HW150114   7.973   3.347   1.523 -2.5018 -0.2123  0.6500
16512SOL    HW250115   7.957   3.455   1.418  1.3187  0.0425  0.1812
16513SOL     OW50116   7.428   6.118   3.353 -0.0609 -0.1819  0.6449
16513SOL    HW150117   7.503   6.173   3.327 -0.6539 -0.1538 -1.1003
16513SOL    HW250118   7.468   6.040   3.390  0.8243  0.2286  0.5879
16514SOL     OW50119   0.610   8.417   7.005 -0.3666  0.1159  0.1683
16514SOL    HW150120   0.564   8.367   7.072  1.0915 -0.0204  1.1094
16514SOL    HW250121   0.675   8.356   6.970 -1.3634  0.0351 -1.7231
16515SOL     OW50122   0.881   7.664   5.686  0.2134  0.0515  0.3786
16515SOL    HW150123   0.860   7.646   5.594  0.5478  1.2166  0.0549
16515SOL    HW250124   0.849   7.753   5.701  2.2262  0.7659  0.7108
16516SOL     OW50125   0.656   7.618   6.446 -0.0713 -0.7063 -0.0083
16516SOL    HW150126   0.651   7.558   6.521 -2.5429 -1.0732 -0.4018
16516SOL    HW250127   0.598   7.691   6.470  0.9113  0.3140 -0.6273
16517SOL     OW50128   9.917   4.691   5.893 -0.5935 -0.3918 -0.2927
16517SOL    HW150129   9.851   4.707   5.825 -0.4638 -0.6849 -0.4871
16517SOL    HW250130   9.886   4.612   5.938 -1.2631  0.4075  0.7061
16518SOL     OW50131   3.574   5.299   5.307 -0.2703 -0.2869  0.4946
16518SOL    HW150132   3.600   5.244   5.380  0.0301  0.4368  0.9443
16518SOL    HW250133   3.653   5.349   5.285 -1.0302  1.4075  1.3959
16519SOL     OW50134   5.751   1.296   7.155  0.1883 -0.0184 -0.1472
16519SOL    HW150135   5.838   1.290   7.116  0.4085 -0.7020  0.4209
16519SOL    HW250136   5.765   1.271   7.247 -0.0376  2.9647  0.8052
16520SOL     OW50137   7.541   5.772   5.333 -0.0048  0.0992 -0.0661
16520SOL    HW150138   7.593   5.828   5.275  0.2106  2.6367  2.3637
16520SOL    HW250139   7.451   5.780   5.301 -0.0523  2.3142  0.4222
16521SOL     OW50140   4.687   5.749   3.609  0.2825 -0.5034 -0.1066
16521SOL    HW150141   4.735   5.728   3.689  0.8404 -0.2889 -0.3736
16521SOL    HW250142   4.708   5.678   3.549  1.1743  0.1508 -0.5949
16522SOL     OW50143   0.901   9.000   5.642  0.5491  0.7422 -0.5249
16522SOL    HW150144   0.839   8.946   5.692  0.6282  0.3091 -0.8887
16522SOL    HW250145   0.851   9.028   5.565  0.5533  1.0699 -0.4092
16523SOL     OW50146   1.492   4.731   3.764 -0.4795 -0.4505  0.0463
16523SOL    HW150147   1.424   4.702   3.704  0.3045  0.1752 -1.1808
16523SOL    HW250148   1.571   4.738   3.710  0.6316 -1.3651  1.4734
16524SOL     OW50149   1.111   7.742   4.332 -0.0218  0.1901 -0.2072
16524SOL    HW150150   1.152   7.710   4.412  0.0905 -0.9112 -0.6933
16524SOL    HW250151   1.172   7.717   4.262  0.8624  2.8213 -0.5044
16525SOL     OW50152   5.400   0.973   3.151 -0.6771 -0.1711 -0.5581
16525SOL    HW150153   5.435   1.025   3.225 -0.4363 -1.4486  0.2530
16525SOL    HW250154   5.473   0.917   3.126 -0.2853  1.1995 -2.7364
16526SOL     OW50155   5.675   7.409   1.517 -0.0311 -0.1942 -0.3457
16526SOL    HW150156   5.752   7.467   1.519  0.1107 -0.3957  0.4373
16526SOL    HW250157   5.614   7.449   1.579  0.8145 -1.8550  1.6918
16527SOL     OW50158   2.826   5.026   5.241  0.0767 -0.1139  0.3927
16527SOL    HW150159   2.753   5.009   5.300 -0.8622  0.0217 -0.6813
16527SOL    HW250160   2.903   5.034   5.298 -0.7204 -0.3976  1.5334
16528SOL     OW50161   1.846   6.051   1.449  0.7344 -0.2693 -0.1625
16528SOL    HW150162   1.911   6.032   1.516  2.0867 -2.1778 -1.9058
16528SOL    HW250163   1.896   6.060   1.368 -0.8916  1.4454 -1.0651
16529SOL     OW50164   9.948   6.648   7.574 -0.2894  0.4513 -0.4913
16529SOL    HW150165   9.902   6.670   7.655 -0.5970  1.8703 -1.0293
16529SOL    HW250166  10.012   6.718   7.563  0.4180 -0.2601 -0.9636
16530SOL     OW50167   7.582   7.494   0.978 -0.4572  0.5443  0.2793
16530SOL    HW150168   7.615   7.546   1.051 -2.9506  0.0779  1.8727
16530SOL    HW250169   7.615   7.406   0.994  0.4946  0.8009 -0.2054
16531SOL     OW50170   3.549   3.057   2.870 -0.3607  0.0051 -0.2711
16531SOL    HW150171   3.548   3.098   2.957  1.3244  0.9090 -0.6333
16531SOL    HW250172   3.600   2.977   2.882  1.6169  1.1121 -0.7620
16532SOL     OW50173   8.844   5.685   0.337  0.0270 -0.1249  0.3058
16532SOL    HW150174   8.857   5.776   0.312  2.2015 -0.8883 -1.7180
16532SOL    HW250175   8.928   5.643   0.318 -0.7777 -2.4901  1.5604
16533SOL     OW50176   0.699   9.887   5.969 -0.1330  0.2412 -0.4686
16533SOL    HW150177   0.641   9.831   5.917 -0.7931 -0.7481  1.2689
16533SOL    HW250178   0.668   9.877   6.059  1.3750  1.4155  0.2204
16534SOL     OW50179   1.851   2.319   9.819 -0.6853  0.4413 -0.6068
16534SOL    HW150180   1.813   2.322   9.731 -0.9165 -0.5744 -0.5505
16534SOL    HW250181   1.902   2.238   9.821  1.7298  1.8521 -0.7542
16535SOL     OW50182   0.036   7.370   9.083 -0.1692 -0.2243  0.0037
16535SOL    HW150183  -0.037   7.404   9.031  1.1565  0.1838 -1.6906
16535SOL    HW250184   0.042   7.430   9.157 -0.7769  0.4582 -0.4834
16536SOL     OW50185   6.821   5.980   0.063 -0.2946 -0.3826  0.2565
16536SOL    HW150186   6.786   5.928  -0.009 -1.0306 -1.2367  1.2087
16536SOL    HW250187   6.829   5.918   0.136 -0.3724  0.6469  1.1633
16537SOL     OW50188   6.715   6.655   5.137 -0.1819  0.1022 -0.6651
16537SOL    HW150189   6.787   6.677   5.078  0.8571 -0.8362  0.2006
16537SOL    HW250190   6.740   6.571   5.175 -1.0490  0.4337  0.7298
16538SOL     OW50191   4.800   1.864   7.831 -0.0536  0.0529 -0.2119
16538SOL    HW150192   4.794   1.860   7.735  2.0503 -1.8935 -0.3553
16538SOL    HW250193   4.871   1.803   7.853  1.6383  2.7039  2.3752
16539SOL     OW50194   8.324   6.230   3.445  0.1613  0.1438 -0.3627
16539SOL    HW150195   8.323   6.323   3.423  1.5406  0.5636  1.1569
16539SOL    HW250196   8.417   6.205   3.441  0.0677 -0.6235  1.2467
16540SOL     OW50197   1.741   2.458   3.993 -0.6394  0.0836  0.2471
16540SOL    HW150198   1.799   2.394   3.951 -2.7251  0.0806 -3.0179
16540SOL    HW250199   1.677   2.406   4.041 -0.1547 -0.0893  0.7088
16541SOL     OW50200   1.769   8.030   6.164 -0.4984 -0.0962  0.0586
16541SOL    HW150201   1.699   8.069   6.113 -1.2645 -0.6788  0.6511
16541SOL    HW250202   1.821   7.980   6.101 -2.0087 -1.6471 -0.0329
16542SOL     OW50203   0.202   2.561   5.618 -0.3763  0.5915  0.1601
16542SOL    HW150204   0.107   2.553   5.625 -0.2846 -0.0920  0.6628
16542SOL    HW250205   0.227   2.496   5.552 -0.0186 -0.9337  1.7187
16543SOL     OW50206   8.126   7.281   3.926  0.6980 -0.2377 -0.2074
16543SOL    HW150207   8.168   7.197   3.907  1.1104  0.3172 -1.9070
16543SOL    HW250208   8.086   7.307   3.843  0.6034  1.2629  0.2810
16544SOL     OW50209   6.775   4.278   6.220  0.3896 -0.5043  0.4976
16544SOL    HW150210   6.788   4.245   6.131 -1.4686  1.0502 -0.4248
16544SOL    HW250211   6.761   4.372   6.209 -0.1307 -0.3123  2.4161
16545SOL     OW50212   7.311   5.947   4.427  0.0768  0.3598  0.0828
16545SOL    HW150213   7.361   6.025   4.403  1.8675 -0.5554  0.6558
16545SOL    HW250214   7.268   5.920   4.346 -0.2500  1.6943 -0.2123
16546SOL     OW50215   1.474   1.244   2.039 -0.0289  0.0298 -0.0580
16546SOL    HW150216   1.504   1.280   1.956  0.6063  0.2863  0.2791
16546SOL    HW250217   1.383   1.217   2.022  0.0760  0.1345 -0.8111
16547SOL     OW50218   1.708   9.000   3.731  0.3272 -0.0251  0.5547
16547SOL    HW150219   1.736   9.078   3.778  1.4301  1.1934 -1.9427
16547SOL    HW250220   1.785   8.973   3.680 -0.7470 -1.2882 -0.4854
16548SOL     OW50221   5.585   3.572   6.510 -0.1167  0.6939 -0.0751
16548SOL    HW150222   5.535   3.493   6.486  1.4704 -0.4442  0.2315
16548SOL    HW250223   5.524   3.622   6.564 -1.0526 -0.4756  0.0093
16549SOL     OW50224   4.825   5.242   9.646  0.0176 -0.4771  0.5349
16549SOL    HW150225   4.820   5.146   9.645 -1.3996 -0.4935  2.4937
16549SOL    HW250226   4.835   5.265   9.738 -1.3732  1.2943  0.3143
16550SOL     OW50227   8.609   8.088   0.438 -0.1881  0.0556  0.5402
16550SOL    HW150228   8.575   8.073   0.349  0.2154  2.3435 -0.0685
16550SOL    HW250229   8.565   8.022   0.492 -0.3564 -1.4773 -1.3611
16551SOL     OW50230   1.440   6.182   2.916 -0.2625  0.0150  0.4851
16551SOL    HW150231   1.519   6.177   2.861 -1.2007  1.9494 -1.1885
16551SOL    HW250232   1.375   6.224   2.859 -1.9062  0.2944  2.4777
16552SOL     OW50233   9.303   0.332   3.105 -0.4326 -0.5984  0.1874
16552SOL    HW150234   9.261   0.270   3.045 -0.5010 -1.0624  0.7083
16552SOL    HW250235   9.251   0.412   3.098  0.1165 -0.3232 -1.0818
16553SOL     OW50236   8.343   0.263   4.506 -0.2485  0.2553 -0.0851
16553SOL    HW150237   8.404   0.304   4.445  1.4570 -1.0175  0.6870
16553SOL    HW250238   8.331   0.327   4.575  0.3966  0.4446 -0.1446
16554SOL     OW50239   1.998   3.671   0.455  0.3153  0.1263  0.1353
16554SOL    HW150240   1.991   3.766   0.448 -2.7717 -0.0406 -0.3828
16554SOL    HW250241   1.958   3.637   0.376  2.7424 -1.6978 -0.4571
16555SOL     OW50242   5.324   2.648   1.991  0.4662 -0.1999 -0.3521
16555SOL    HW150243   5.383   2.593   2.042 -0.9818 -1.7310 -0.2428
16555SOL    HW250244   5.272   2.586   1.940  0.7143  1.2126 -2.4292
16556SOL     OW50245   8.825   5.946   1.382 -0.2203 -0.3131 -0.2122
16556SOL    HW150246   8.890   5.934   1.451 -0.6156  0.5652  0.3239
16556SOL    HW250247   8.748   5.982   1.427 -1.0687 -1.2842 -0.8452
16557SOL     OW50248   9.607   9.929   6.932  0.0809  0.4598  0.2894
16557SOL    HW150249   9.625   9.849   6.982 -0.0399  0.5816  0.5316
16557SOL    HW250250   9.525   9.911   6.886  1.5714 -0.6970 -2.0920
16558SOL     OW50251   4.097   3.939   7.925 -0.8006  0.5228 -0.0461
16558SOL    HW150252   4.178   3.967   7.966 -0.7376 -1.2561  1.1677
16558SOL    HW250253   4.121   3.861   7.874 -1.8106 -0.4461  0.8862
16559SOL     OW50254   7.748   8.231   3.169  0.0419  0.2755  0.3815
16559SOL    HW150255   7.731   8.195   3.256 -2.9165  1.6895  0.4802
16559SOL    HW250256   7.671   8.208   3.117 -0.1488  2.8957 -0.6675
16560SOL     OW50257   8.542   3.745   5.540  0.0752  0.0749 -0.5255
16560SOL    HW150258   8.454   3.708   5.530  0.5596 -0.9862 -0.9670
16560SOL    HW250259   8.552   3.755   5.635 -0.5290  0.2120 -0.4723
16561SOL     OW50260   7.591   4.372   5.124 -0.0556  0.3657  0.2280
16561SOL    HW150261   7.565   4.462   5.142 -1.2903  0.3234 -1.1214
16561SOL    HW250262   7.605   4.333   5.210  0.2083  1.7438  0.8410
16562SOL     OW50263   7.913   9.265   8.564 -0.7989  0.2654 -0.5462
16562SOL    HW150264   7.925   9.350   8.607 -0.6331 -0.5014  0.9984
16562SOL    HW250265   7.936   9.201   8.631  2.2933 -1.0160 -2.5842
16563SOL     OW50266   2.930   4.823   5.542 -0.0530  0.2073  0.0189
16563SOL    HW150267   2.921   4.732   5.511  1.1861 -0.2692  0.9455
16563SOL    HW250268   3.024   4.841   5.534 -0.0660  0.8814  1.2669
16564SOL     OW50269   2.679   8.586   1.607  0.0120  0.1318  0.2814
16564SOL    HW150270   2.603   8.590   1.665 -0.9900 -0.5513 -0.9407
16564SOL    HW250271   2.690   8.493   1.588  1.3562  0.1878  0.6636
16565SOL     OW50272   7.193   8.667   1.274 -0.2506  0.5058 -0.1237
16565SOL    HW150273   7.153   8.715   1.202  0.1733  0.2072 -0.5636
16565SOL    HW250274   7.220   8.736   1.336 -2.7905  0.6511  0.9396
16566SOL     OW50275   1.577   5.196   1.842 -0.4021  0.6477 -0.2068
16566SOL    HW150276   1.481   5.200   1.844 -0.6159  0.0808 -3.3712
16566SOL    HW250277   1.596   5.130   1.775  2.2420  0.3262  0.7621
16567SOL     OW50278   2.692   0.354   5.230  0.5843 -0.5382  0.2826
16567SOL    HW150279   2.619   0.362   5.168 -1.4620 -2.4207  2.2699
16567SOL    HW250280   2.651   0.323   5.311  3.4437 -0.3259  1.9169
16568SOL     OW50281   3.632   6.644   4.743  0.0290 -0.1604  0.1763
16568SOL    HW150282   3.615   6.619   4.652  0.2565  0.6909 -0.1037
16568SOL    HW250283   3.726   6.631   4.755 -0.2939 -2.2981  0.9385
16569SOL     OW50284   0.017   2.337   4.480  0.5647 -0.3244 -0.2512
16569SOL    HW150285   0.098   2.366   4.439 -0.1610  0.7028 -1.0059
16569SOL    HW250286  -0.052   2.379   4.429 -0.4284 -0.7391  0.7195
16570SOL     OW50287   5.424   9.432   3.822  0.1092  0.5489 -0.4909
16570SOL    HW150288   5.478   9.379   3.762 -1.1211  0.0512 -1.1882
16570SOL    HW250289   5.363   9.478   3.765 -1.7402 -0.6752  0.4006
16571SOL     OW50290   8.673   8.480   3.877 -0.2654 -0.5943 -0.6559
16571SOL    HW150291   8.716   8.549   3.826  0.7493 -1.8812 -1.6039
16571SOL    HW250292   8.623   8.431   3.813 -1.2348 -0.5655  0.0682
16572SOL     OW50293   8.227   6.556   1.393  1.1923  0.3400  0.1023
16572SOL    HW150294   8.257   6.590   1.308  0.8311  0.5202  0.0429
16572SOL    HW250295   8.133   6.542   1.381  0.5641  2.9185  1.2543
16573SOL     OW50296   7.811   9.181   9.710  0.0836  0.0327 -0.3030
16573SOL    HW150297   7.811   9.213   9.620 -0.3207  1.7360  0.2644
16573SOL    HW250298   7.899   9.143   9.722  0.3736  0.3909 -1.1943
16574SOL     OW50299   9.716   6.885   9.308 -0.8517  0.3683 -0.7573
16574SOL    HW150300   9.642   6.879   9.248 -0.5219 -1.0401 -1.0614
16574SOL    HW250301   9.790   6.850   9.258 -0.2156  0.7180 -0.0863
16575SOL     OW50302   4.867   6.939   3.649 -0.9789  0.4809  0.4639
16575SOL    HW150303   4.829   7.012   3.600 -2.2934  0.8779  1.9536
16575SOL    HW250304   4.830   6.948   3.737  0.2886 -0.9174  1.1911
16576SOL     OW50305   2.400   3.060   7.270 -0.2121  0.2662  0.2124
16576SOL    HW150306   2.384   3.018   7.185 -0.8670  0.3807  0.2718
16576SOL    HW250307   2.427   2.989   7.328  0.6919  0.2601 -0.2072
16577SOL     OW50308   2.467   4.327   4.711 -0.1699 -0.0985  0.5915
16577SOL    HW150309   2.473   4.250   4.654 -0.9669  2.0741 -2.7196
16577SOL    HW250310   2.546   4.324   4.765  2.2159 -0.8681 -2.6726
16578SOL     OW50311   4.425   1.148   8.758  0.0291 -0.5393  0.7641
16578SOL    HW150312   4.376   1.066   8.763  0.6089 -0.9983 -0.4839
16578SOL    HW250313   4.369   1.205   8.705 -0.0984 -0.3451  1.1112
16579SOL     OW50314   8.141   2.770   1.433 -0.5481 -0.4652 -0.2984
16579SOL    HW150315   8.173   2.812   1.353 -0.2115  0.1999  0.1778
16579SOL    HW250316   8.055   2.809   1.448 -1.2928 -1.6887 -1.1483
16580SOL     OW50317   1.063   7.932   3.499 -0.0653  0.0382  0.8306
16580SOL    HW150318   1.123   7.919   3.426 -0.9198  0.5763  0.0142
16580SOL    HW250319   0.976   7.937   3.459 -0.8604 -2.0784  2.1010
16581SOL     OW50320   1.830   6.741   9.834 -0.0806 -0.6264  0.0395
16581SOL    HW150321   1.801   6.658   9.795 -0.4762 -0.1107 -0.8013
16581SOL    HW250322   1.893   6.715   9.901 -1.9029 -1.7617  1.4240
16582SOL     OW50323   0.962   5.410   2.872  0.5239  0.6498  0.0857
16582SOL    HW150324   1.050   5.384   2.844 -0.4146  0.6387 -3.2008
16582SOL    HW250325   0.952   5.500   2.842 -0.9991  0.2367 -0.7509
16583SOL     OW50326   3.885   9.607   7.311  0.1422 -0.0724 -0.0068
16583SOL    HW150327   3.903   9.691   7.268 -0.9696 -0.3320 -1.0517
16583SOL    HW250328   3.870   9.630   7.403 -0.1933  0.8852 -0.2872
16584SOL     OW50329   4.288   6.559   5.618  0.1019 -0.2253 -0.4187
16584SOL    HW150330   4.360   6.608   5.658  0.7681 -0.7593 -0.9287
16584SOL    HW250331   4.273   6.485   5.678 -0.8864  0.5587  0.3371
16585SOL     OW50332   1.672   8.914   1.464  0.3808  0.3613 -0.2198
16585SOL    HW150333   1.637   8.944   1.380 -2.9585  0.5998  1.1062
16585SOL    HW250334   1.684   8.994   1.515 -1.2680  0.0529  0.7385
16586SOL     OW50335   7.846   4.208   1.774 -0.0288  0.1473  0.2870
16586SOL    HW150336   7.830   4.164   1.857 -1.8228  1.4909  0.7135
16586SOL    HW250337   7.775   4.181   1.717 -0.2879  1.2267  0.0619
16587SOL     OW50338   2.944   6.334   2.032  0.0986  0.1550  0.2727
16587SOL    HW150339   3.039   6.328   2.031  0.2053  1.0660 -2.0999
16587SOL    HW250340   2.914   6.246   2.055  1.4743  0.1239  2.1389
16588SOL     OW50341   9.007   0.234   2.422 -0.0213  0.5019 -0.1105
16588SOL    HW150342   9.062   0.294   2.373 -0.7754  2.4273  1.2291
16588SOL    HW250343   9.040   0.240   2.512  1.2592 -2.8285 -0.2379
16589SOL     OW50344   1.105   1.230   0.402 -0.1059  0.9797  0.5308
16589SOL    HW150345   1.078   1.315   0.367 -0.4682  0.6764  0.0536
16589SOL    HW250346   1.104   1.241   0.497 -3.1471  0.6497  0.6344
16590SOL     OW50347   6.755   1.769   1.231  0.7145 -0.2655 -0.5307
16590SOL    HW150348   6.786   1.688   1.271  2.3577  0.6164  0.0835
16590SOL    HW250349   6.665   1.778   1.261  1.6287 -0.0261  2.4626
16591SOL     OW50350   7.086   2.863   6.427 -0.5335  0.8020  0.3630
16591SOL    HW150351   6.991   2.854   6.433 -0.4925  0.9505  1.2364
16591SOL    HW250352   7.101   2.957   6.419 -0.4572  0.7732  0.1480
16592SOL     OW50353   9.651   6.979   0.817 -0.8606 -0.9172 -0.0767
16592SOL    HW150354   9.628   6.896   0.858  0.8618 -1.8056 -0.7859
16592SOL    HW250355   9.694   7.030   0.886 -1.2273 -0.9245  0.1576
16593SOL     OW50356   0.326   0.732   4.941  0.1207  0.4741 -0.0537
16593SOL    HW150357   0.353   0.759   4.853 -0.6367  0.7635 -0.2041
16593SOL    HW250358   0.387   0.776   5.000  1.0251 -0.2136 -0.4587
16594SOL     OW50359   6.935   4.813   2.564  0.6211  0.0725  0.5455
16594SOL    HW150360   6.997   4.821   2.636  1.7486 -0.6638 -0.3195
16594SOL    HW250361   6.911   4.904   2.543  1.1947  0.3498  1.0644
16595SOL     OW50362   9.252   5.738   4.377 -0.0951  0.1178 -0.2797
16595SOL    HW150363   9.165   5.715   4.409  0.5668 -2.3563 -0.0832
16595SOL    HW250364   9.311   5.676   4.420  1.7068  1.3337 -0.8788
16596SOL     OW50365   9.854   5.183   0.973  0.4616  0.0792 -0.4336
16596SOL    HW150366   9.888   5.129   0.902  1.0656  1.0035 -0.8644
16596SOL    HW250367   9.932   5.213   1.020  0.1338  0.5048 -0.1523
16597SOL     OW50368   0.864   6.074   1.104  0.2341  0.3370 -0.0174
16597SOL    HW150369   0.779   6.037   1.079 -0.0084 -0.1708  1.4624
16597SOL    HW250370   0.917   6.067   1.025 -0.9556  0.2181 -0.8306
16598SOL     OW50371   5.267   2.559   3.759 -0.0078  0.2613  0.4998
16598SOL    HW150372   5.358   2.584   3.741 -0.1813  0.0365 -0.7687
16598SOL    HW250373   5.266   2.464   3.748 -0.1137  0.0817  1.8754
16599SOL     OW50374   6.137   3.215   3.642 -0.1250  0.1854 -0.0645
16599SOL    HW150375   6.106   3.143   3.696 -2.2325  0.0676 -1.3189
16599SOL    HW250376   6.063   3.275   3.637  0.6418  1.0963 -1.2836
16600SOL     OW50377   1.238   8.849   8.884 -0.3143 -0.1377 -0.4511
16600SOL    HW150378   1.226   8.870   8.977  1.3429 -0.0069 -0.2514
16600SOL    HW250379   1.225   8.933   8.839  1.9189  0.4817 -0.0389
16601SOL     OW50380   3.184   2.473   4.592  0.2294 -0.4953  0.2851
16601SOL    HW150381   3.143   2.547   4.548  0.9970 -0.0116  0.3819
16601SOL    HW250382   3.179   2.402   4.528 -1.7235 -0.7704  0.6759
16602SOL     OW50383   7.110   0.091   7.413 -0.2260  0.1490  0.5101
16602SOL    HW150384   7.071   0.147   7.346 -0.9025 -1.2873 -0.3376
16602SOL    HW250385   7.196   0.130   7.429  0.2887  0.1089 -1.7831
16603SOL     OW50386   8.525   4.575   8.475  0.0765  0.3698  0.5150
16603SOL    HW150387   8.435   4.607   8.483 -0.6187 -1.1224 -0.7021
16603SOL    HW250388   8.523   4.487   8.513  0.5726 -0.3557 -1.0179
16604SOL     OW50389   8.772   5.288   6.609  0.2141  0.0209 -0.0156
16604SOL    HW150390   8.754   5.238   6.689 -1.2125  0.2311 -0.1747
16604SOL    HW250391   8.691   5.337   6.594  0.0828 -0.7684 -2.1432
16605SOL     OW50392   6.079   7.640   3.926 -0.1150  1.1307  0.0080
16605SOL    HW150393   6.035   7.706   3.980  0.0335  1.3518 -0.1386
16605SOL    HW250394   6.171   7.667   3.926 -0.3235  1.9125 -1.4745
16606SOL     OW50395   5.162   6.077   1.088  0.5949 -0.0192  0.4188
16606SOL    HW150396   5.075   6.080   1.127 -0.2606 -1.4808 -1.2352
16606SOL    HW250397   5.186   5.985   1.089  1.2182  0.0884 -0.9751
16607SOL     OW50398   9.007   3.415   2.197  0.5923 -0.6436  0.1938
16607SOL    HW150399   9.042   3.479   2.259  3.3154 -2.1516  0.3672
16607SOL    HW250400   8.920   3.449   2.174  0.6910  1.4918  2.5372
16608SOL     OW50401   5.153   1.058   2.029 -0.2772 -0.3420  0.7049
16608SOL    HW150402   5.172   1.138   2.078 -0.0218  0.6795 -0.9840
16608SOL    HW250403   5.228   1.002   2.046  0.3322  0.4242  0.6141
16609SOL     OW50404   7.794   3.060   0.782 -0.2148 -0.0282 -0.3503
16609SOL    HW150405   7.855   2.995   0.818  0.1812  0.3879 -0.2607
16609SOL    HW250406   7.812   3.140   0.831 -1.4526 -0.1169  0.2878
16610SOL     OW50407   6.876   0.622   8.572 -0.4650 -0.3300  0.0244
16610SOL    HW150408   6.848   0.562   8.503  0.4385 -0.6420 -0.0879
16610SOL    HW250409   6.897   0.565   8.646 -2.6997  0.0760  1.0691
16611SOL     OW50410   5.021   9.724   5.468 -0.4347  0.1096 -0.1997
16611SOL    HW150411   5.108   9.724   5.428  0.2093  0.9107  1.1395
16611SOL    HW250412   4.986   9.811   5.448 -0.3590  0.2844  0.3931
16612SOL     OW50413   4.730   3.875   2.466 -0.3063 -0.8517  0.2852
16612SOL    HW150414   4.683   3.924   2.534 -0.5434 -1.8762  0.8805
16612SOL    HW250415   4.817   3.916   2.465  0.0060 -1.3932  1.8747
16613SOL     OW50416   7.009   8.451   8.576  0.4508  0.1215  0.3489
16613SOL    HW150417   7.018   8.405   8.493  3.0137  0.9644  0.0597
16613SOL    HW250418   6.924   8.494   8.570  0.0626 -0.7895 -1.3386
16614SOL     OW50419   2.321   4.972   4.825  0.0186  0.4950 -0.1028
16614SOL    HW150420   2.357   5.002   4.909  0.8120 -0.8392  0.0667
16614SOL    HW250421   2.391   4.989   4.762 -0.2065  0.6091 -0.3218
16615SOL     OW50422   4.744   8.625   1.165 -0.3010 -0.0339  0.6172
16615SOL    HW150423   4.658   8.583   1.171  0.3457 -1.2183  3.7002
16615SOL    HW250424   4.743   8.691   1.234 -0.2742  3.2901 -2.3184
16616SOL     OW50425   7.627   4.990   9.441 -0.0391 -0.3450  0.4724
16616SOL    HW150426   7.574   5.068   9.455 -1.2224 -1.1518  0.5835
16616SOL    HW250427   7.565   4.923   9.411  1.3201 -0.5796 -2.1331
16617SOL     OW50428   4.589   0.317   9.478 -0.2804  0.5185 -0.8997
16617SOL    HW150429   4.617   0.405   9.500 -1.6152  0.3644  1.8015
16617SOL    HW250430   4.511   0.329   9.423 -1.1083  1.0629  0.3666
16618SOL     OW50431   0.963   0.919   7.265 -0.4767  0.0728 -0.7320
16618SOL    HW150432   0.989   0.926   7.173 -1.7398  0.6269 -1.0598
16618SOL    HW250433   0.966   1.010   7.297 -0.2297 -0.0964 -0.2682
16619SOL     OW50434   4.505   8.167   0.570  0.2693 -0.6098  0.2921
16619SOL    HW150435   4.437   8.155   0.504 -0.8756  0.8358  1.1678
16619SOL    HW250436   4.504   8.261   0.589  2.1204 -0.6403  0.7586
16620SOL     OW50437   0.242   7.600   4.840 -0.5105  0.2910  0.0774
16620SOL    HW150438   0.330   7.620   4.808 -1.0174 -1.2623 -2.5979
16620SOL    HW250439   0.250   7.603   4.935  2.9025 -1.5965  0.0005
16621SOL     OW50440   5.763   2.628   3.991 -0.0361 -0.2989  0.2728
16621SOL    HW150441   5.858   2.622   4.003  0.0832  1.5196  0.4738
16621SOL    HW250442   5.739   2.547   3.946  1.4317 -1.3043  1.2096
16622SOL     OW50443   2.795   1.904   7.986  0.1973  0.0370  0.4475
16622SOL    HW150444   2.728   1.836   7.993 -0.1530  0.2513 -0.6872
16622SOL    HW250445   2.847   1.878   7.910  1.3732 -0.0907  1.2652
16623SOL     OW50446   6.944   4.484   3.795  0.1425 -0.5839  0.1116
16623SOL    HW150447   7.025   4.470   3.746 -0.5549  2.2393 -2.1450
16623SOL    HW250448   6.965   4.555   3.855 -0.0967 -1.3698  1.1446
16624SOL     OW50449   9.772   9.742   3.791  0.0870 -0.1048  0.0804
16624SOL    HW150450   9.721   9.769   3.715  0.4480 -0.5590 -0.3208
16624SOL    HW250451   9.738   9.655   3.814 -1.7097  0.9781  1.9291
16625SOL     OW50452   5.475   2.325   5.657  0.1510  0.5721  0.2751
16625SOL    HW150453   5.395   2.281   5.629  0.3113 -0.2749  1.1183
16625SOL    HW250454   5.539   2.303   5.589  0.7388 -2.0887  1.5513
16626SOL     OW50455   1.958   9.519   6.908 -0.1077 -0.1533  0.2692
16626SOL    HW150456   1.928   9.510   6.817  0.4688 -0.7550  0.1332
16626SOL    HW250457   2.052   9.500   6.904 -0.4177 -2.1660  1.3011
16627SOL     OW50458   5.587   2.838   3.855 -0.5259  0.0582 -0.1008
16627SOL    HW150459   5.541   2.864   3.935  1.5716  1.7056  0.6608
16627SOL    HW250460   5.654   2.777   3.886 -0.6769 -0.4940 -0.8496
16628SOL     OW50461   9.590   9.511   1.671 -0.7751 -1.2869  0.0853
16628SOL    HW150462   9.585   9.475   1.583 -0.2723 -0.5938 -0.2300
16628SOL    HW250463   9.611   9.436   1.726 -0.2719 -1.5765 -0.4955
16629SOL     OW50464   5.364   3.889   2.869 -0.0758 -0.1627 -0.4490
16629SOL    HW150465   5.368   3.876   2.963 -3.7709  0.4317 -0.0435
16629SOL    HW250466   5.387   3.981   2.855  1.1764 -0.4385 -0.2380
16630SOL     OW50467   7.364   0.169   7.977  0.6731  0.1616  0.2128
16630SOL    HW150468   7.389   0.250   7.933  1.9775 -0.6052 -0.5094
16630SOL    HW250469   7.333   0.112   7.906  0.1617 -0.1193  0.6551
16631SOL     OW50470   2.044   8.956   7.947  0.3836 -0.3717  0.0269
16631SOL    HW150471   2.085   8.896   8.008 -0.6504 -0.2180  0.9032
16631SOL    HW250472   2.083   9.041   7.966  0.3327 -0.3932  0.2245
16632SOL     OW50473   2.408   2.762   9.907  0.1992  0.7282  0.2184
16632SOL    HW150474   2.461   2.842   9.903 -0.0958  0.8713 -0.9690
16632SOL    HW250475   2.395   2.736   9.816 -2.8851  1.4401  0.3436
16633SOL     OW50476   5.067   8.520   2.665  0.1012 -0.2379  0.0711
16633SOL    HW150477   5.052   8.499   2.757  0.8220 -2.6991 -0.3157
16633SOL    HW250478   4.985   8.558   2.635 -1.0898 -1.8978  1.0902
16634SOL     OW50479   3.607   3.384   3.476 -0.3317 -0.0159  0.1654
16634SOL    HW150480   3.560   3.398   3.558 -0.2752 -2.0127  0.5815
16634SOL    HW250481   3.545   3.410   3.408 -0.0758  2.5068  0.7993
16635SOL     OW50482   5.356   4.861   6.681  0.4820  0.0531 -0.1497
16635SOL    HW150483   5.272   4.904   6.665 -1.1653 -2.4449  1.2000
16635SOL    HW250484   5.398   4.914   6.749  0.5059  1.8556 -1.4989
16636SOL     OW50485   0.039   5.750   1.217 -0.4062  0.2869  0.5374
16636SOL    HW150486   0.128   5.723   1.238  0.2464  1.4040 -0.6395
16636SOL    HW250487  -0.012   5.669   1.221  0.7046 -0.4226  0.9298
16637SOL     OW50488   9.465   9.959   3.572 -0.0930 -0.5962 -0.1697
16637SOL    HW150489   9.553   9.926   3.590 -0.0987  0.3427  1.8059
16637SOL    HW250490   9.424   9.891   3.517  1.1102 -2.0836  0.7136
16638SOL     OW50491   0.060   3.907   4.959  0.4322 -0.4644  0.8718
16638SOL    HW150492   0.104   3.993   4.960  2.1734 -1.2640 -0.6503
16638SOL    HW250493   0.131   3.845   4.974 -0.5550 -1.7148  0.4649
16639SOL     OW50494   9.316   7.982   1.651  0.2097  0.1688 -0.0522
16639SOL    HW150495   9.237   7.971   1.704 -0.0455 -1.4806 -0.7065
16639SOL    HW250496   9.381   7.926   1.694  0.6450  0.5418 -0.2259
16640SOL     OW50497   3.178   4.998   0.160  0.5125  0.1815  0.0974
16640SOL    HW150498   3.184   4.911   0.200  1.8947  0.8961  1.5165
16640SOL    HW250499   3.198   4.982   0.067  3.0165 -0.7397  0.7267
16641SOL     OW50500   6.094   2.531   1.966  0.4184 -0.0512  0.3249
16641SOL    HW150501   6.005   2.564   1.980  0.6611  0.9587 -0.4160
16641SOL    HW250502   6.149   2.584   2.024  0.5627 -0.5471  0.6438
16642SOL     OW50503   2.753   6.221   5.751 -0.0249 -0.1894 -0.1859
16642SOL    HW150504   2.770   6.314   5.741  0.7163 -0.3123 -0.1796
16642SOL    HW250505   2.824   6.178   5.703 -0.3735 -0.7476 -0.2157
16643SOL     OW50506   6.690   1.097   8.816  0.1766 -0.0450 -0.2842
16643SOL    HW150507   6.639   1.029   8.859  1.0010 -0.0642  0.7123
16643SOL    HW250508   6.675   1.175   8.869  0.1604  0.2607 -0.7355
16644SOL     OW50509   8.727   6.613   8.962 -0.0651 -0.2943 -0.5792
16644SOL    HW150510   8.694   6.700   8.939 -0.4879 -0.2310  0.2423
16644SOL    HW250511   8.690   6.595   9.048 -0.1623 -1.3824 -0.8287
16645SOL     OW50512   2.089   2.200   5.606  0.4794  0.7216  0.2951
16645SOL    HW150513   2.096   2.214   5.512 -1.3220 -0.0567 -0.0005
16645SOL    HW250514   2.005   2.155   5.618  1.0480  0.0486  2.1985
16646SOL     OW50515   3.649   4.028   5.421  0.5947 -0.9544  0.3694
16646SOL    HW150516   3.611   3.994   5.340  0.1085  0.2813  0.0646
16646SOL    HW250517   3.738   4.053   5.397  0.4806 -0.6734  0.2382
16647SOL     OW50518   7.199   8.306   7.291 -0.2130  0.1292 -0.2189
16647SOL    HW150519   7.166   8.218   7.311 -0.2913  0.3625  0.7775
16647SOL    HW250520   7.202   8.310   7.196 -0.7371 -0.7596 -0.2864
16648SOL     OW50521   0.448   1.121   9.584 -0.0836 -0.3026  0.6914
16648SOL    HW150522   0.482   1.201   9.625  0.6840  1.0195 -2.1913
16648SOL    HW250523   0.526   1.067   9.570  0.2484  0.6362 -1.6178
16649SOL     OW50524   2.575   3.732   3.642  0.0952  0.0991  0.3706
16649SOL    HW150525   2.653   3.771   3.603 -0.0392  0.5198  0.5070
16649SOL    HW250526   2.518   3.807   3.661  0.0938 -0.0989  1.2227
16650SOL     OW50527   1.075   0.069   1.397 -0.1775 -0.0307  0.1459
16650SOL    HW150528   1.018   0.139   1.364 -0.2172 -0.2915 -0.3466
16650SOL    HW250529   1.015   0.002   1.430 -0.1673 -0.3280 -0.4195
16651SOL     OW50530   3.447   8.769   6.182 -0.1021  0.0350 -0.2789
16651SOL    HW150531   3.531   8.765   6.137 -0.0834 -0.2753 -0.2205
16651SOL    HW250532   3.467   8.807   6.267  0.0229 -0.2820 -0.1656
16652SOL     OW50533   3.067   5.721   3.668 -0.8880  0.3423 -0.4145
16652SOL    HW150534   3.114   5.638   3.668 -0.9434  0.2214  2.3450
16652SOL    HW250535   3.002   5.712   3.599 -1.2006 -2.1185  0.1133
16653SOL     OW50536   9.358   6.964   0.931 -0.3308  0.3108 -0.3204
16653SOL    HW150537   9.335   7.017   0.854  0.9297 -0.3735 -1.1896
16653SOL    HW250538   9.377   6.877   0.896 -0.2092 -0.1432  0.8316
16654SOL     OW50539   2.223   4.529   9.987 -0.2676 -0.4005  0.1052
16654SOL    HW150540   2.265   4.443   9.984 -0.8372 -0.6806 -1.9485
16654SOL    HW250541   2.141   4.517   9.939 -1.5064  0.7508  1.8159
16655SOL     OW50542   3.596   0.996   0.468  0.2390 -0.2761  0.3593
16655SOL    HW150543   3.562   1.042   0.545  1.5020 -1.3370  1.6164
16655SOL    HW250544   3.571   0.904   0.481 -1.3873 -0.1826 -1.6133
16656SOL     OW50545   7.771   9.161  10.000  0.5699  1.0244  0.1388
16656SOL    HW150546   7.736   9.186   9.914 -0.1647  2.0816  0.7225
16656SOL    HW250547   7.836   9.093   9.980 -0.4585  0.3536 -1.1521
16657SOL     OW50548   1.795   1.779   0.924  0.3790 -0.0756 -0.0570
16657SOL    HW150549   1.741   1.803   0.999  2.1562  3.1091  0.4011
16657SOL    HW250550   1.885   1.780   0.958  1.0805 -0.6897 -1.7638
16658SOL     OW50551   9.635   8.253   8.381 -0.3244 -0.2616 -0.1446
16658SOL    HW150552   9.704   8.189   8.364 -0.3597 -0.3012 -0.1383
16658SOL    HW250553   9.556   8.215   8.343 -0.1919  0.1330 -0.8333
16659SOL     OW50554   6.076   2.512   8.184 -0.4366 -0.0386  0.0460
16659SOL    HW150555   6.025   2.459   8.123  0.6557  0.0376 -0.9562
16659SOL    HW250556   6.161   2.468   8.189 -0.0027  0.8135  0.3067
16660SOL     OW50557   5.670   3.381   8.155  0.2259 -0.0346 -0.5376
16660SOL    HW150558   5.684   3.473   8.133  2.2923 -0.6274 -2.0206
16660SOL    HW250559   5.621   3.346   8.080  1.0465 -0.5177 -0.8618
16661SOL     OW50560   1.395   8.159   4.835  0.2666 -0.7949  0.7986
16661SOL    HW150561   1.381   8.111   4.754  0.7117  1.2490 -0.5893
16661SOL    HW250562   1.468   8.115   4.877  1.2547 -0.8155 -0.8588
16662SOL     OW50563   5.449   8.782   4.885 -0.4997  0.2656 -0.0410
16662SOL    HW150564   5.469   8.855   4.944 -1.7357  0.2957  0.3653
16662SOL    HW250565   5.468   8.704   4.937 -0.3703  0.2940 -0.0454
16663SOL     OW50566   3.159   8.768   1.400  0.3587 -0.0645 -0.4739
16663SOL    HW150567   3.119   8.791   1.316  0.1552  2.1107  0.1552
16663SOL    HW250568   3.097   8.707   1.441 -0.4770  0.3388 -1.1137
16664SOL     OW50569   2.117   9.571   3.301 -0.1256 -0.3374  0.3020
16664SOL    HW150570   2.081   9.511   3.367 -0.6503 -0.9281 -0.5025
16664SOL    HW250571   2.132   9.516   3.225 -1.9502  0.7801 -0.9360
16665SOL     OW50572   5.643   0.969   6.880 -0.1860 -0.7248  0.5306
16665SOL    HW150573   5.566   0.940   6.831 -1.6371  2.0597  0.9839
16665SOL    HW250574   5.713   0.974   6.815 -1.1916 -0.3578 -0.5555
16666SOL     OW50575   2.125   1.390   9.177 -0.1706 -0.1328  0.2686
16666SOL    HW150576   2.189   1.319   9.180  1.6326  1.3283 -0.8102
16666SOL    HW250577   2.064   1.364   9.109  2.2623  0.6142 -2.4059
16667SOL     OW50578   6.028   5.147   7.876  0.2250  0.3136 -0.3103
16667SOL    HW150579   5.994   5.112   7.793 -0.5182  1.8061 -0.6664
16667SOL    HW250580   6.122   5.129   7.872 -0.1180 -1.8318 -0.3392
16668SOL     OW50581   7.538   0.233   9.477 -0.0221  0.3495  0.2435
16668SOL    HW150582   7.521   0.282   9.396 -2.0877 -0.4252  0.1540
16668SOL    HW250583   7.538   0.141   9.451  1.5422  0.1550  0.7933
16669SOL     OW50584   1.836   5.526   6.606 -0.3549  0.2325 -0.1305
16669SOL    HW150585   1.752   5.547   6.566 -1.3347 -2.6917  0.1496
16669SOL    HW250586   1.881   5.472   6.541  2.0245  2.8730 -0.8720
16670SOL     OW50587   5.756   5.182   8.340 -0.4100 -0.2176  0.3459
16670SOL    HW150588   5.801   5.250   8.290  0.5979 -1.0243  0.1416
16670SOL    HW250589   5.682   5.228   8.380  0.4359  1.0825  0.4948
16671SOL     OW50590   7.772   8.876   8.660  0.6841 -0.0047  0.2250
16671SOL    HW150591   7.818   8.886   8.577  0.1054 -0.0876 -0.1108
16671SOL    HW250592   7.683   8.909   8.643 -0.3470 -2.6512 -0.0446
16672SOL     OW50593   3.926   1.710   3.769 -0.4438  0.3388  0.3713
16672SOL    HW150594   3.994   1.741   3.830  2.0610 -1.3485 -1.3401
16672SOL    HW250595   3.893   1.629   3.810  1.1653 -0.7406 -0.3534
16673SOL     OW50596   6.523   2.674   7.821  0.1625 -0.5752  0.6188
16673SOL    HW150597   6.543   2.595   7.770  0.6970  0.1602 -0.3451
16673SOL    HW250598   6.605   2.697   7.863 -0.0222 -0.5935  0.9945
16674SOL     OW50599   9.862   2.372   5.851  0.0132 -0.0046 -0.2122
16674SOL    HW150600   9.921   2.369   5.927 -0.6780 -1.2681  0.2987
16674SOL    HW250601   9.779   2.402   5.888  0.0304  0.7088 -0.7356
16675SOL     OW50602   1.857   0.728   8.637  0.5121 -0.2837  0.2093
16675SOL    HW150603   1.762   0.718   8.631  0.5979 -0.4066 -1.1593
16675SOL    HW250604   1.876   0.711   8.729 -0.7776 -0.3696  0.4862
16676SOL     OW50605   6.625   1.782   8.497  0.0964 -0.1061 -0.1337
16676SOL    HW150606   6.539   1.741   8.496 -0.2837  0.6590  0.1275
16676SOL    HW250607   6.652   1.784   8.405  0.1532 -0.9819 -0.1433
16677SOL     OW50608   9.193   6.079   5.318  0.1865  0.1153  0.2242
16677SOL    HW150609   9.165   6.152   5.263  0.0109  1.2550  1.7656
16677SOL    HW250610   9.211   6.008   5.256  1.3742  1.7664 -1.4160
16678SOL     OW50611   8.216   1.115   8.605  0.6306  0.2778 -0.1393
16678SOL    HW150612   8.136   1.095   8.653  1.8771  0.5756  2.2087
16678SOL    HW250613   8.198   1.086   8.515 -1.5087 -1.1474  0.6648
16679SOL     OW50614   3.748   2.493   1.568  0.4243  0.0804  0.1456
16679SOL    HW150615   3.802   2.569   1.547 -0.6816  0.7094 -0.5049
16679SOL    HW250616   3.694   2.479   1.490  1.5275 -2.2194 -0.3036
16680SOL     OW50617   6.643   5.662   3.674 -0.2101  0.2554  0.0426
16680SOL    HW150618   6.667   5.622   3.758 -0.2450 -1.5572 -0.7758
16680SOL    HW250619   6.647   5.591   3.611 -2.0015  1.1640 -1.1930
16681SOL     OW50620   6.404   0.539   8.221  0.2977 -0.0834 -0.1302
16681SOL    HW150621   6.470   0.607   8.235 -0.7642  0.5748  2.1203
16681SOL    HW250622   6.411   0.518   8.128  3.5254  0.0654 -0.0249
16682SOL     OW50623   8.445   5.898   2.832  0.2889  0.2433  0.3435
16682SOL    HW150624   8.356   5.926   2.854  0.3583  2.3249 -1.6240
16682SOL    HW250625   8.441   5.878   2.739  1.4180 -1.8781  0.6881
16683SOL     OW50626   7.943   2.686   2.181 -0.6102 -0.2634 -0.3759
16683SOL    HW150627   7.917   2.598   2.206  0.8917 -0.7816 -0.5207
16683SOL    HW250628   8.005   2.713   2.249  0.1656  0.0390 -1.1768
16684SOL     OW50629   1.838   9.222   3.883 -0.1723  1.0322  0.0015
16684SOL    HW150630   1.881   9.215   3.969  1.0899 -1.3878 -0.7354
16684SOL    HW250631   1.746   9.235   3.904  0.0206 -0.0429  1.7866
16685SOL     OW50632   4.724   8.966   6.409 -0.3607 -0.1891  0.1078
16685SOL    HW150633   4.644   8.915   6.397 -1.0005  0.2158  2.2185
16685SOL    HW250634   4.716   9.003   6.497  0.9747  1.9720 -0.5824
16686SOL     OW50635   7.649   1.129   9.245  0.2876 -0.1401  0.0602
16686SOL    HW150636   7.709   1.137   9.320 -1.0766 -1.1382  1.3272
16686SOL    HW250637   7.571   1.178   9.272 -0.0884 -0.2320 -0.8486
16687SOL     OW50638   5.595   3.821   9.914  0.0943 -1.0970  0.5825
16687SOL    HW150639   5.553   3.876   9.849 -1.2500 -2.2320  0.4537
16687SOL    HW250640   5.638   3.883   9.973 -0.1967  0.0180 -0.3389
16688SOL     OW50641   8.122   1.700   7.125  0.1754 -0.1888 -0.1376
16688SOL    HW150642   8.182   1.770   7.098  2.2653 -1.2990  1.3751
16688SOL    HW250643   8.140   1.628   7.064  1.9325 -1.2383  1.5327
16689SOL     OW50644   9.471   0.066   2.744 -0.1398  0.3219 -0.2223
16689SOL    HW150645   9.514  -0.012   2.709  1.6313  1.5352 -0.8892
16689SOL    HW250646   9.486   0.062   2.838  1.1725  0.5199 -0.3985
16690SOL     OW50647   6.980   8.065   7.913  0.3186 -0.0892 -0.7866
16690SOL    HW150648   7.074   8.083   7.909  0.3947 -0.1688  0.4687
16690SOL    HW250649   6.939   8.144   7.877  0.8663 -0.1833 -1.6417
16691SOL     OW50650   7.518   7.392   1.296  0.0169  0.0215  0.5550
16691SOL    HW150651   7.528   7.482   1.264  0.4594 -0.8870 -2.1209
16691SOL    HW250652   7.606   7.365   1.320  0.3288 -0.5152 -1.1241
16692SOL     OW50653   7.915   4.313   7.469 -0.0902  0.2520  0.0831
16692SOL    HW150654   7.882   4.340   7.555  0.6484 -1.3678  0.9180
16692SOL    HW250655   8.000   4.274   7.487  0.2649  0.2602 -1.4510
16693SOL     OW50656   8.979   5.618   5.049  0.2043  0.2776 -0.3887
16693SOL    HW150657   8.928   5.696   5.071 -0.9487 -0.5282 -0.1267
16693SOL    HW250658   8.970   5.560   5.125  2.0050  0.3380 -0.0858
16694SOL     OW50659   1.767   9.292   8.593 -0.1074  0.8087  0.3858
16694SOL    HW150660   1.679   9.325   8.576 -0.1584  0.2213 -0.5900
16694SOL    HW250661   1.819   9.325   8.519  0.1459 -0.1173  0.1377
16695SOL     OW50662   8.630   4.318   6.259 -0.2096 -0.2542  0.2194
16695SOL    HW150663   8.592   4.254   6.199 -0.6261 -0.0972  0.3105
16695SOL    HW250664   8.711   4.345   6.217 -0.5039 -0.1352 -0.2854
16696SOL     OW50665   2.802   8.987   9.352  0.3365 -0.0224 -0.3628
16696SOL    HW150666   2.836   8.901   9.329  0.3529  0.2425 -1.3388
16696SOL    HW250667   2.879   9.038   9.374  0.2361 -0.6648  1.7405
16697SOL     OW50668   2.240   7.579   4.583  0.1408  0.1861 -0.5737
16697SOL    HW150669   2.162   7.574   4.527 -1.5540  0.3549  1.6236
16697SOL    HW250670   2.262   7.488   4.603  0.7265  0.1274 -1.4758
16698SOL     OW50671   8.724   7.146   3.977 -0.2059  0.5178  0.1760
16698SOL    HW150672   8.662   7.161   4.049 -1.1592  0.5829 -0.6296
16698SOL    HW250673   8.685   7.192   3.903  0.0761 -0.6642 -0.7250
16699SOL     OW50674   2.569   1.831   5.462 -0.3333  0.0432 -1.3702
16699SOL    HW150675   2.488   1.878   5.481 -0.6541 -1.0978  0.2529
16699SOL    HW250676   2.551   1.740   5.487  0.6826 -0.7312 -3.2196
16700SOL     OW50677   4.405   0.869   5.697 -0.1895  0.1359 -0.3047
16700SOL    HW150678   4.466   0.795   5.705 -2.2541 -1.6953 -0.3271
16700SOL    HW250679   4.319   0.827   5.691 -1.4869  2.5962  0.0464
16701SOL     OW50680   5.121   9.280   1.741  0.3918 -0.1163  1.2108
16701SOL    HW150681   5.141   9.372   1.720  0.9917 -0.5611 -0.2655
16701SOL    HW250682   5.204   9.234   1.729  0.0102 -0.9181  1.5857
16702SOL     OW50683   9.811   1.601   6.682 -0.0236  0.6339  0.2284
16702SOL    HW150684   9.742   1.633   6.739  0.5599 -0.7369  1.8004
16702SOL    HW250685   9.777   1.613   6.593 -1.5062  1.6238  0.8903
16703SOL     OW50686   3.684   8.175   4.580  0.3840  0.0329 -0.2403
16703SOL    HW150687   3.779   8.187   4.590  1.2123 -3.6428 -1.6606
16703SOL    HW250688   3.668   8.190   4.487  0.1762 -1.8055 -0.5550
16704SOL     OW50689   3.202   7.755   0.817  0.5350  0.2274  0.4431
16704SOL    HW150690   3.227   7.844   0.792  0.4931 -0.0044 -0.4482
16704SOL    HW250691   3.144   7.767   0.892 -1.8859  1.1629 -1.4468
16705SOL     OW50692   0.106   3.539   2.156  0.7479 -0.3550  0.6419
16705SOL    HW150693   0.184   3.547   2.209  0.6592 -0.7084  0.8275
16705SOL    HW250694   0.137   3.545   2.065  0.8894  0.3044  0.7293
16706SOL     OW50695   9.712   5.490   0.489 -0.5552  0.3482  0.4566
16706SOL    HW150696   9.778   5.545   0.446 -0.4382 -0.1824 -0.0567
16706SOL    HW250697   9.711   5.521   0.580  0.2179  0.5357  0.4096
16707SOL     OW50698   4.604   2.873   7.442  0.1559  0.2188 -0.4548
16707SOL    HW150699   4.577   2.798   7.496 -0.0479  0.6417  0.0354
16707SOL    HW250700   4.596   2.841   7.352  0.5817 -0.5275 -0.2433
16708SOL     OW50701   4.216   3.415   4.562  0.8335  0.6384  0.4746
16708SOL    HW150702   4.158   3.488   4.541  1.3696  1.3218  1.3295
16708SOL    HW250703   4.190   3.388   4.650 -0.5385 -1.3769 -0.4750
16709SOL     OW50704   2.762   8.706   0.864  0.5101 -0.3708  0.2942
16709SOL    HW150705   2.764   8.613   0.842  0.0550 -0.1717 -0.6660
16709SOL    HW250706   2.717   8.747   0.790 -0.2910  0.4738  1.2208
16710SOL     OW50707   9.840   6.589   5.050 -0.2506  0.0574 -0.4013
16710SOL    HW150708   9.853   6.666   5.105  0.2239 -0.2834 -0.0259
16710SOL    HW250709   9.898   6.603   4.975 -0.1831  0.0745 -0.3451
16711SOL     OW50710   0.735   4.685   1.797 -0.0877 -0.0527 -0.3659
16711SOL    HW150711   0.737   4.677   1.892 -0.4232  1.8304 -0.1576
16711SOL    HW250712   0.758   4.777   1.780  0.5373 -0.4871 -2.1374
16712SOL     OW50713   5.981   6.501   6.010 -0.1500  0.4236  0.1778
16712SOL    HW150714   5.914   6.501   6.077  0.0766  5.2618  0.7453
16712SOL    HW250715   5.937   6.533   5.931  0.9682  1.8837  0.0808
16713SOL     OW50716   0.684   0.306   5.827 -0.2855 -0.1063  0.1184
16713SOL    HW150717   0.607   0.299   5.883 -0.6623  3.4908  0.2814
16713SOL    HW250718   0.751   0.346   5.883  0.4979  0.2096 -1.0139
16714SOL     OW50719   6.351   4.214   7.734 -0.9224 -0.3930  0.5780
16714SOL    HW150720   6.359   4.140   7.795 -1.2811  0.2799  1.4667
16714SOL    HW250721   6.424   4.271   7.756  0.2580 -1.1721 -1.1276
16715SOL     OW50722   4.436   7.600   1.599 -0.0482 -0.4535  0.0094
16715SOL    HW150723   4.356   7.601   1.652  0.0399 -1.0757  0.1648
16715SOL    HW250724   4.498   7.653   1.648 -0.7034  1.0037 -0.6710
16716SOL     OW50725   2.426   9.436   0.226 -0.0383  0.1233 -0.4937
16716SOL    HW150726   2.499   9.375   0.224  0.5132  0.7581 -0.2288
16716SOL    HW250727   2.349   9.382   0.243  0.5878 -0.3635  0.9076
16717SOL     OW50728   6.581   4.424   7.724  0.0845  0.1458  0.0536
16717SOL    HW150729   6.551   4.511   7.750  0.0762  0.1053  0.1767
16717SOL    HW250730   6.590   4.431   7.629 -1.3382 -0.1386 -0.1307
16718SOL     OW50731   2.094   9.587   4.834 -0.1658 -0.4049  0.2453
16718SOL    HW150732   2.164   9.535   4.875  1.0245  0.6979 -0.3051
16718SOL    HW250733   2.079   9.544   4.750  0.3977 -0.2143  0.0420
16719SOL     OW50734   4.984   0.962   3.464 -0.2207 -0.8387  0.2931
16719SOL    HW150735   5.040   0.951   3.541  0.8179  0.0068 -0.3093
16719SOL    HW250736   5.039   0.935   3.391 -0.4758  0.2781 -0.3362
16720SOL     OW50737   0.931   5.882   4.264  0.4492  0.0330 -0.2637
16720SOL    HW150738   0.902   5.794   4.289 -0.5395  0.2190 -0.6936
16720SOL    HW250739   0.943   5.877   4.169  0.7339  0.2724 -0.2425
16721SOL     OW50740   2.874   7.226   8.380 -0.4074  0.1448 -0.4208
16721SOL    HW150741   2.941   7.159   8.398  0.3460  1.1533  0.6787
16721SOL    HW250742   2.884   7.245   8.287  0.3515 -0.2467 -0.4331
16722SOL     OW50743   8.301   9.545   6.048  0.1121  0.2534 -0.2067
16722SOL    HW150744   8.234   9.478   6.043 -0.5695  0.9122 -0.0582
16722SOL    HW250745   8.377   9.501   6.087 -0.7883 -0.0787  1.2329
16723SOL     OW50746   5.723   1.090   9.969  0.4469  0.5757  0.2725
16723SOL    HW150747   5.761   1.018   9.918  0.2415  1.6940 -1.5476
16723SOL    HW250748   5.645   1.115   9.920 -1.2311  0.0725  2.5317
16724SOL     OW50749   1.791   5.781   6.168 -0.3583 -0.5608  0.3781
16724SOL    HW150750   1.704   5.758   6.136 -0.1311  0.2445 -0.8531
16724SOL    HW250751   1.835   5.823   6.094  0.9418 -0.5787  1.0970
16725SOL     OW50752   8.132   2.587   0.457  0.0409  0.1062  0.2842
16725SOL    HW150753   8.200   2.617   0.396 -0.8898  0.5733 -0.5484
16725SOL    HW250754   8.056   2.642   0.438 -1.6318 -2.4376 -1.0331
16726SOL     OW50755   9.643   7.567   0.556 -0.9676 -0.0035  0.4380
16726SOL    HW150756   9.722   7.583   0.504 -1.3081 -1.2521 -0.5109
16726SOL    HW250757   9.652   7.625   0.631  1.5055 -1.0285  1.0441
16727SOL     OW50758   7.872   1.415   2.014 -0.1637  0.6215  0.3136
16727SOL    HW150759   7.936   1.353   1.979  0.0128  0.8239  0.2776
16727SOL    HW250760   7.793   1.399   1.962  0.8954  2.8846 -2.2523
16728SOL     OW50761   1.125   7.647   3.415  0.2403  0.3825 -0.3294
16728SOL    HW150762   1.122   7.669   3.508 -3.0665 -0.4518 -0.1256
16728SOL    HW250763   1.041   7.676   3.380  0.7752 -0.6815 -2.7371
16729SOL     OW50764   7.846   2.137   4.806 -0.3467 -0.1906 -0.1638
16729SOL    HW150765   7.932   2.142   4.764 -0.4425 -0.9032 -0.4602
16729SOL    HW250766   7.815   2.227   4.809  0.0867 -0.0202 -0.7353
16730SOL     OW50767   5.282   6.687   6.961 -0.7948 -0.2906  0.2448
16730SOL    HW150768   5.296   6.759   6.899 -1.2575  0.3921  0.9230
16730SOL    HW250769   5.277   6.729   7.046  0.3189 -1.2778  0.8188
16731SOL     OW50770   9.533   7.420   1.898  0.2871  0.4486  0.5660
16731SOL    HW150771   9.441   7.441   1.882  0.8207  1.9237 -0.9174
16731SOL    HW250772   9.546   7.438   1.991 -1.3038 -1.4541  1.2047
16732SOL     OW50773   0.932   0.831   2.132 -0.3358 -0.0488  0.1951
16732SOL    HW150774   1.006   0.796   2.083 -0.2347 -0.5043  0.6681
16732SOL    HW250775   0.939   0.926   2.121 -0.1766 -0.1368 -0.4678
16733SOL     OW50776   3.781   2.980   3.157  0.3558  0.4643  0.5029
16733SOL    HW150777   3.794   2.896   3.202  1.1855  0.2392 -0.1219
16733SOL    HW250778   3.826   3.044   3.212 -1.4761  0.7772  1.7400
16734SOL     OW50779   9.545   7.626   0.257 -0.6862 -0.1601  0.2463
16734SOL    HW150780   9.504   7.569   0.192 -0.5032 -0.2605  0.2203
16734SOL    HW250781   9.637   7.630   0.231 -1.0082  1.5487 -0.7735
16735SOL     OW50782   6.999   7.063   1.344 -0.6742  0.3905 -0.3839
16735SOL    HW150783   7.068   7.077   1.279 -1.2505  0.8811 -0.9069
16735SOL    HW250784   6.966   7.151   1.362 -1.5651  0.1030 -0.5977
16736SOL     OW50785   6.189   8.190   7.688 -0.1350  0.1627 -0.1339
16736SOL    HW150786   6.236   8.132   7.629 -1.4588 -0.5171 -0.5487
16736SOL    HW250787   6.106   8.146   7.705 -1.3721  2.1269 -0.7933
16737SOL     OW50788   1.393   6.318   0.548  0.1422  0.2830  0.4050
16737SOL    HW150789   1.437   6.252   0.494 -0.9593  0.0878 -0.2752
16737SOL    HW250790   1.374   6.389   0.488 -2.8702 -0.7483 -0.0241
16738SOL     OW50791   7.590   3.105   6.074  0.7121  0.4765  0.0397
16738SOL    HW150792   7.511   3.143   6.036 -0.2272  2.5756  3.6035
16738SOL    HW250793   7.560   3.023   6.113  0.8070  0.2108 -0.4387
16739SOL     OW50794   2.319   3.909   3.676 -0.7663 -0.5967 -0.1740
16739SOL    HW150795   2.284   3.997   3.665 -0.6806 -0.2919  1.7347
16739SOL    HW250796   2.245   3.859   3.712 -0.5982 -1.1406 -0.5678
16740SOL     OW50797   3.018   6.140   4.914  0.6383 -0.0771 -0.1122
16740SOL    HW150798   3.000   6.166   4.823  0.3034  2.3396  0.5806
16740SOL    HW250799   3.113   6.149   4.922  0.5689  0.5164  0.0168
16741SOL     OW50800   1.357   9.756   4.680  1.1343 -0.2287  0.3141
16741SOL    HW150801   1.326   9.757   4.590 -0.7271 -1.6182  0.8778
16741SOL    HW250802   1.372   9.663   4.699 -0.3597 -0.1736  2.0018
16742SOL     OW50803   2.555   3.264   2.233 -0.0283 -0.1557 -0.1165
16742SOL    HW150804   2.514   3.291   2.314  0.8263  0.5688  0.0951
16742SOL    HW250805   2.586   3.175   2.250  0.6255  0.1868  0.5491
16743SOL     OW50806   2.331   5.262   0.203  0.6725  0.4048 -0.4055
16743SOL    HW150807   2.266   5.268   0.133  0.3258  0.6118 -0.0631
16743SOL    HW250808   2.399   5.324   0.176 -0.8503  2.8041  0.9096
16744SOL     OW50809   2.455   8.186   6.356  0.0969  0.2262  0.0112
16744SOL    HW150810   2.382   8.145   6.403 -1.0779  1.9275 -0.2305
16744SOL    HW250811   2.414   8.226   6.279  1.4194  0.5660 -0.5357
16745SOL     OW50812   8.230   0.905   3.739 -0.3809 -0.2837  0.3546
16745SOL    HW150813   8.323   0.923   3.731 -0.4595  0.1880  0.5209
16745SOL    HW250814   8.199   0.900   3.648 -0.5571  1.4650  0.2875
16746SOL     OW50815   1.925   2.363   3.450  0.2752 -0.1236  0.6448
16746SOL    HW150816   1.941   2.347   3.357 -0.0495  0.0420  0.5605
16746SOL    HW250817   1.940   2.279   3.492  2.3186  0.1987  0.7024
16747SOL     OW50818   9.114   8.326   5.765  0.2086 -0.2249 -0.0612
16747SOL    HW150819   9.061   8.254   5.800 -0.5403  0.2799 -0.1434
16747SOL    HW250820   9.067   8.354   5.687  0.4350  0.4373  0.0404
16748SOL     OW50821   4.897   7.879   1.023 -0.2008  0.2608 -0.1571
16748SOL    HW150822   4.955   7.929   0.966  0.9484 -1.4860 -0.5718
16748SOL    HW250823   4.858   7.946   1.081  2.4220  1.4848  0.3420
16749SOL     OW50824   7.756   9.315   0.490 -0.2259 -0.0395  0.1468
16749SOL    HW150825   7.737   9.321   0.396 -1.6042 -0.8041  0.3438
16749SOL    HW250826   7.692   9.373   0.532  0.8276  0.8357  0.5934
16750SOL     OW50827   4.555   4.818   9.340 -0.4452  0.9891  0.0532
16750SOL    HW150828   4.575   4.759   9.268 -1.1453  0.8239 -0.0156
16750SOL    HW250829   4.512   4.894   9.299  1.4337  2.0899  0.0037
16751SOL     OW50830   0.197   9.173   9.084  0.1856 -0.2522  0.6746
16751SOL    HW150831   0.165   9.241   9.025  0.0127 -1.0599 -0.1790
16751SOL    HW250832   0.155   9.192   9.168  0.7806  1.1650  0.6709
16752SOL     OW50833   0.833   1.953   1.250 -0.0002 -0.5236  0.1041
16752SOL    HW150834   0.746   1.959   1.291 -0.5300  1.6642 -1.1633
16752SOL    HW250835   0.892   1.933   1.322 -1.3255 -0.2028  1.3371
16753SOL     OW50836   6.418   8.959   7.256 -0.4552 -0.3177 -0.1792
16753SOL    HW150837   6.363   8.930   7.183  0.3601 -1.8291 -0.2279
16753SOL    HW250838   6.432   8.881   7.309  1.5261  0.0421 -0.0882
16754SOL     OW50839   6.254   7.544   5.922  0.6062 -0.1107  0.0108
16754SOL    HW150840   6.170   7.580   5.950  0.5199  0.4571 -0.9465
16754SOL    HW250841   6.280   7.598   5.848  0.7229 -1.7228 -1.1667
16755SOL     OW50842   7.393   0.429   6.707  0.2393 -0.1590 -0.3741
16755SOL    HW150843   7.452   0.482   6.760  1.1656 -0.7999 -0.7262
16755SOL    HW250844   7.364   0.359   6.766 -1.7013  1.1781  0.3653
16756SOL     OW50845   7.710   6.188   9.371  0.1986  0.3956  0.1302
16756SOL    HW150846   7.662   6.259   9.329 -0.7131  0.5971  1.4733
16756SOL    HW250847   7.798   6.224   9.386  0.5790  0.2865 -1.6330
16757SOL     OW50848   1.293   4.348   6.698 -0.3055  0.8456 -0.6321
16757SOL    HW150849   1.216   4.370   6.646 -1.2698 -0.9996 -0.0666
16757SOL    HW250850   1.258   4.321   6.783  0.8225 -1.1657 -0.7390
16758SOL     OW50851   2.443   2.602   9.199 -0.3168 -0.3418  0.3010
16758SOL    HW150852   2.412   2.621   9.111  0.5978  0.1335  0.0629
16758SOL    HW250853   2.392   2.527   9.228 -0.3607 -0.7356 -0.7850
16759SOL     OW50854   8.389   5.438   2.302 -0.5012  0.6522 -0.1649
16759SOL    HW150855   8.474   5.398   2.287 -1.1193 -0.2028 -1.5766
16759SOL    HW250856   8.409   5.522   2.343  1.2199  1.7377 -2.9666
16760SOL     OW50857   4.860   7.780   6.275  0.4443 -0.3108  0.2054
16760SOL    HW150858   4.917   7.819   6.209  0.7644 -0.5797  0.3186
16760SOL    HW250859   4.771   7.803   6.247  0.4275 -2.1007 -1.4662
16761SOL     OW50860   6.299   7.882   3.659 -0.0827 -0.0091  0.0508
16761SOL    HW150861   6.256   7.799   3.636 -2.1970  0.4600  1.9792
16761SOL    HW250862   6.270   7.944   3.592 -0.7380 -0.1983  0.1532
16762SOL     OW50863   4.337   1.332   9.209  0.2945 -0.3660  0.1537
16762SOL    HW150864   4.253   1.292   9.233  0.3133 -0.8268 -0.5207
16762SOL    HW250865   4.318   1.381   9.129  0.3971  0.5525  0.6780
16763SOL     OW50866   9.685   2.553   4.090  0.3872 -0.1423 -0.4120
16763SOL    HW150867   9.616   2.619   4.081 -0.2140 -0.5846  0.6751
16763SOL    HW250868   9.766   2.603   4.082 -0.0421  0.9091  1.1796
16764SOL     OW50869   1.046   7.449   5.804 -0.3327  0.1721 -0.2434
16764SOL    HW150870   1.035   7.506   5.728  0.4614 -0.7820 -1.1192
16764SOL    HW250871   0.957   7.439   5.840 -0.4508  2.1206  0.1013
16765SOL     OW50872   7.447   8.593   6.099  0.2037 -0.1838  0.3197
16765SOL    HW150873   7.542   8.605   6.108  0.1480 -0.1703  0.8805
16765SOL    HW250874   7.412   8.682   6.091  0.0817 -0.1013  1.6643
16766SOL     OW50875   5.444   8.783   2.625 -0.0070 -0.1279 -0.3586
16766SOL    HW150876   5.476   8.865   2.663 -1.5098  1.0996 -1.6041
16766SOL    HW250877   5.523   8.733   2.605  0.9260 -0.2959  3.0309
16767SOL     OW50878   4.412   3.339   5.616  0.3990  0.6657  0.3944
16767SOL    HW150879   4.372   3.316   5.700 -3.2026  0.8522 -1.0739
16767SOL    HW250880   4.426   3.255   5.572 -0.9885  0.6596 -0.0944
16768SOL     OW50881   0.375   7.422   6.264 -0.0309  0.0772 -0.2394
16768SOL    HW150882   0.350   7.422   6.172  0.7861 -0.3092 -0.4743
16768SOL    HW250883   0.471   7.413   6.263  0.3462  2.9192  0.5511
16769SOL     OW50884   3.300   6.448   1.563 -0.1480 -0.1671 -0.6148
16769SOL    HW150885   3.374   6.392   1.585 -1.7974 -2.1122  0.2979
16769SOL    HW250886   3.309   6.524   1.621  0.4028 -1.0170  0.4426
16770SOL     OW50887   4.056   3.389   6.342  0.2422 -0.0761 -0.3884
16770SOL    HW150888   4.114   3.367   6.416 -1.0417  0.4185  0.8045
16770SOL    HW250889   3.971   3.354   6.367 -0.2001  0.0180 -1.7051
16771SOL     OW50890   0.024   2.106   1.710  0.4027 -0.3162  0.0071
16771SOL    HW150891   0.111   2.068   1.709  0.5666  0.0672 -0.3151
16771SOL    HW250892   0.003   2.121   1.618  1.1536  2.1949  0.1757
16772SOL     OW50893   4.386   1.955   9.132  0.2422  0.0719  0.2783
16772SOL    HW150894   4.313   2.015   9.151 -1.5557 -0.8627 -2.9180
16772SOL    HW250895   4.429   1.994   9.056  2.8888  0.3298  1.8059
16773SOL     OW50896   4.635   7.150   0.935  0.4853  0.1790  0.3599
16773SOL    HW150897   4.587   7.072   0.965 -0.9516  0.6289 -0.6515
16773SOL    HW250898   4.637   7.207   1.013  0.7717 -0.4935  0.8561
16774SOL     OW50899   5.721   8.839   1.885  0.0587  0.4262 -0.3256
16774SOL    HW150900   5.642   8.859   1.834 -0.0592  1.3658  0.1919
16774SOL    HW250901   5.764   8.924   1.897 -0.5711  0.4768  2.1586
16775SOL     OW50902   2.978   4.508   7.921  0.0498 -0.2275  0.7902
16775SOL    HW150903   2.990   4.600   7.943  0.3950 -0.5719  2.2016
16775SOL    HW250904   2.884   4.497   7.909  0.0885  0.4648 -0.1970
16776SOL     OW50905   9.889   6.635   3.950 -0.1004 -0.4075 -0.4870
16776SOL    HW150906   9.830   6.681   3.891 -0.8525 -0.5712  0.1251
16776SOL    HW250907   9.832   6.599   4.018  0.7012 -0.5776  0.1077
16777SOL     OW50908   9.186   9.621   3.541 -0.0853 -0.1528 -0.3856
16777SOL    HW150909   9.177   9.583   3.629  0.4884  0.3609 -0.0990
16777SOL    HW250910   9.107   9.674   3.530 -1.2648 -1.9536 -1.0782
16778SOL     OW50911   6.534   4.364   3.981  0.4072  0.2710  0.3235
16778SOL    HW150912   6.590   4.286   3.972  0.5579  0.0892  2.2662
16778SOL    HW250913   6.593   4.438   3.965  0.8789  0.0357  0.9149
16779SOL     OW50914   6.772   5.463   3.840  0.9188  0.0602  0.2845
16779SOL    HW150915   6.831   5.453   3.766 -1.0342 -3.6722 -1.0051
16779SOL    HW250916   6.811   5.411   3.910  0.8559  0.3959  0.5723
16780SOL     OW50917   3.667   6.130   6.886 -0.2389 -0.0543 -0.3471
16780SOL    HW150918   3.741   6.075   6.910  1.8486  1.4448 -2.8452
16780SOL    HW250919   3.590   6.075   6.901  1.3754 -1.8876  1.7541
16781SOL     OW50920   1.363   1.939   7.451 -0.0417  0.4936 -0.1370
16781SOL    HW150921   1.348   2.031   7.431 -1.7090  0.8524  2.3709
16781SOL    HW250922   1.430   1.939   7.519  1.5522 -0.3441 -1.6232
16782SOL     OW50923   6.719   3.783   6.898 -0.2851  0.5661 -0.5653
16782SOL    HW150924   6.682   3.756   6.814  3.0113 -0.0208 -2.0104
16782SOL    HW250925   6.722   3.879   6.893 -1.3528  0.6124 -0.4998
16783SOL     OW50926   8.606   2.209   1.457 -0.5403  0.4526 -0.2293
16783SOL    HW150927   8.598   2.285   1.515  0.3302  0.3029  0.1048
16783SOL    HW250928   8.700   2.201   1.442 -0.6061 -0.6973 -0.0730
16784SOL     OW50929   5.786   9.835   3.104 -0.4185 -0.4489 -0.1982
16784SOL    HW150930   5.854   9.829   3.171 -1.7976  0.7479  1.3854
16784SOL    HW250931   5.760   9.744   3.088  0.8857 -0.8470 -0.1518
16785SOL     OW50932   9.504   6.647   4.246  0.0093 -0.8310  0.3672
16785SOL    HW150933   9.450   6.723   4.268 -1.4971 -1.6832 -0.2498
16785SOL    HW250934   9.536   6.614   4.330 -1.0666 -0.7494  0.8147
16786SOL     OW50935   4.395   3.262   7.664 -0.9395 -0.3075 -0.6471
16786SOL    HW150936   4.308   3.287   7.693 -2.1165 -2.5288 -1.9698
16786SOL    HW250937   4.416   3.324   7.594 -1.6895 -0.0700 -0.6701
16787SOL     OW50938   6.306   4.950   9.861 -0.3511  0.1148  0.2084
16787SOL    HW150939   6.222   4.989   9.885  0.9040  2.5869  0.9848
16787SOL    HW250940   6.334   4.999   9.784  0.1359 -1.0929 -0.4142
16788SOL     OW50941   8.922   4.340   4.448  0.1855  0.6735 -0.2067
16788SOL    HW150942   8.961   4.320   4.363 -1.4935  1.3624 -1.1931
16788SOL    HW250943   8.933   4.434   4.458  0.5703  0.5639  0.4585
16789SOL     OW50944   7.221   1.712   9.445  0.4025  0.7498  0.2516
16789SOL    HW150945   7.181   1.724   9.532  0.8996  1.4815  0.3875
16789SOL    HW250946   7.179   1.779   9.391  1.8242  1.9174  0.5380
16790SOL     OW50947   8.480   6.723   7.647 -0.2022 -0.1546 -0.4453
16790SOL    HW150948   8.438   6.637   7.653 -0.0182 -0.3142 -1.3244
16790SOL    HW250949   8.417   6.777   7.600 -0.3095  0.1903  0.0903
16791SOL     OW50950   9.242   4.165   3.065  0.1831  0.1460 -0.3579
16791SOL    HW150951   9.216   4.203   2.981 -0.6745 -1.5793 -0.9189
16791SOL    HW250952   9.180   4.094   3.079  0.8904 -0.1828  1.3071
16792SOL     OW50953   5.276   4.333   2.932 -0.0865 -0.4992 -0.0783
16792SOL    HW150954   5.331   4.255   2.929  1.1989  0.3446  0.6217
16792SOL    HW250955   5.338   4.406   2.932 -1.2119  0.4920  0.3997
16793SOL     OW50956   2.454   7.207   9.482  0.3828  0.1083  0.2273
16793SOL    HW150957   2.444   7.169   9.569  1.5413  0.4474  0.5273
16793SOL    HW250958   2.510   7.283   9.495  0.3645  0.3100 -0.7803
16794SOL     OW50959   1.328   6.094   3.798 -0.0150  0.0520 -0.5615
16794SOL    HW150960   1.339   6.189   3.800  0.9888 -0.0577  0.2489
16794SOL    HW250961   1.412   6.060   3.768  0.0373 -0.6247  0.2973
16795SOL     OW50962   8.382   7.267   9.775  0.2690 -0.1003 -0.3460
16795SOL    HW150963   8.298   7.229   9.751  0.4202  0.1635 -1.3295
16795SOL    HW250964   8.377   7.277   9.870 -0.6390 -0.4876 -0.3409
16796SOL     OW50965   0.615   5.683   6.780 -0.2771  0.4250 -0.0838
16796SOL    HW150966   0.642   5.696   6.689 -1.7545  0.6409 -0.5101
16796SOL    HW250967   0.543   5.745   6.793 -0.8641 -0.4325  0.8776
16797SOL     OW50968   6.609   9.607   0.320  0.7368  0.1429  0.3959
16797SOL    HW150969   6.672   9.551   0.365  0.5593 -0.3498  0.0406
16797SOL    HW250970   6.529   9.554   0.316  0.9728 -0.1331 -1.1940
16798SOL     OW50971   7.101   2.357   7.646  0.0999 -0.0732  0.3056
16798SOL    HW150972   7.151   2.365   7.727 -1.5954 -1.4191  1.5657
16798SOL    HW250973   7.040   2.285   7.662 -1.0995  0.3915 -1.7405
16799SOL     OW50974   2.619   7.897   6.325  0.3428 -0.1493  0.1020
16799SOL    HW150975   2.545   7.852   6.285  0.2018  1.4182 -1.5179
16799SOL    HW250976   2.585   7.928   6.409 -0.5981 -0.1102 -0.2809
16800SOL     OW50977   0.816   9.485   8.168  0.3075 -0.6086  0.2144
16800SOL    HW150978   0.813   9.414   8.232  1.7025 -0.9354 -0.0633
16800SOL    HW250979   0.848   9.560   8.218  2.5854 -1.1585 -0.2966
16801SOL     OW50980   9.825   9.029   2.097 -0.1414 -0.1745  0.0623
16801SOL    HW150981   9.755   9.036   2.162 -0.4300 -0.6798 -0.1883
16801SOL    HW250982   9.805   8.949   2.048 -0.4631  0.6717 -1.2568
16802SOL     OW50983   1.596   2.833   5.867 -0.4067 -0.2142  0.2133
16802SOL    HW150984   1.596   2.824   5.771  2.6101 -0.0422  0.0876
16802SOL    HW250985   1.577   2.925   5.882 -0.6503 -0.1887 -0.2249
16803SOL     OW50986   6.433   7.019   7.033  0.4716  0.0763 -0.3755
16803SOL    HW150987   6.367   7.088   7.031 -0.1109 -0.4665 -2.3993
16803SOL    HW250988   6.502   7.054   7.089 -0.4830  1.6553 -0.1075
16804SOL     OW50989   3.358   4.321   6.951 -0.0705 -0.0070  0.2148
16804SOL    HW150990   3.398   4.336   6.865  0.4553  0.2551  0.4953
16804SOL    HW250991   3.373   4.403   6.999 -0.7289 -0.0015  0.4169
16805SOL     OW50992   3.046   1.508   3.732 -0.2081  0.1690  0.6376
16805SOL    HW150993   2.973   1.527   3.791  0.2204  1.8351  0.7048
16805SOL    HW250994   3.058   1.590   3.682  0.3768 -0.7101 -0.7254
16806SOL     OW50995   1.050   4.665   1.931 -0.2126  0.1925 -0.1733
16806SOL    HW150996   1.140   4.646   1.905  0.0616 -0.0501  0.8817
16806SOL    HW250997   0.997   4.602   1.883  0.2776 -0.3204 -0.0566
16807SOL     OW50998   6.605   4.054   1.837 -0.3230  0.3693  0.3418
16807SOL    HW150999   6.616   4.058   1.932 -0.7608  0.4109  0.3929
16807SOL    HW251000   6.695   4.052   1.803 -0.1616  0.4159  0.7513
16808SOL     OW51001   8.765   6.906   3.915 -0.3592 -0.4900 -0.0662
16808SOL    HW151002   8.730   6.990   3.943 -0.3112 -0.9254  1.3339
16808SOL    HW251003   8.716   6.886   3.834 -1.0040  0.4418  0.0759
16809SOL     OW51004   3.704   9.461   7.629  0.3588  0.6089  0.1051
16809SOL    HW151005   3.648   9.479   7.705 -0.7817  2.2038 -1.0259
16809SOL    HW251006   3.663   9.387   7.586  0.7378 -0.0007  0.7787
16810SOL     OW51007   1.614   7.043   5.667  0.5651  0.2677  0.3855
16810SOL    HW151008   1.591   6.965   5.718 -0.1146  0.3596  0.2141
16810SOL    HW251009   1.652   7.103   5.732  0.6083 -0.0012  0.6104
16811SOL     OW51010   3.663   9.646   3.765 -0.5616 -0.6975 -0.0935
16811SOL    HW151011   3.595   9.579   3.761 -0.4588 -0.7622 -2.6625
16811SOL    HW251012   3.656   9.692   3.681 -0.1249  2.0426  1.2665
16812SOL     OW51013   6.825   1.915   5.451 -0.0341  0.1426 -0.7477
16812SOL    HW151014   6.848   1.880   5.365 -0.1829 -1.2310 -0.2579
16812SOL    HW251015   6.908   1.914   5.500 -0.6093 -2.9584  0.3887
16813SOL     OW51016   7.849   6.348   7.782 -0.0344  0.7827 -0.5604
16813SOL    HW151017   7.921   6.320   7.726  0.2699 -2.4005  1.2261
16813SOL    HW251018   7.792   6.272   7.789 -1.6001  2.0075  1.1115
16814SOL     OW51019   2.778   4.136   4.501 -0.2081 -0.1662 -0.0469
16814SOL    HW151020   2.775   4.155   4.407 -2.2489  0.2759  0.0583
16814SOL    HW251021   2.690   4.106   4.522  0.3149 -0.5914  1.6819
16815SOL     OW51022   3.548   8.804   6.774  0.1509  0.3574 -0.4151
16815SOL    HW151023   3.581   8.877   6.723  1.1799  0.1599 -0.0647
16815SOL    HW251024   3.454   8.820   6.782  0.6586  3.0521  1.8173
16816SOL     OW51025   2.188   0.309   0.776  0.2466  0.1722  0.2481
16816SOL    HW151026   2.235   0.389   0.799 -1.3828  1.4217 -0.5748
16816SOL    HW251027   2.117   0.338   0.719 -0.7499 -1.7940  0.4011
16817SOL     OW51028   5.717   6.114   2.343 -0.0527 -0.3116 -0.2772
16817SOL    HW151029   5.716   6.114   2.247 -1.8086  2.2931 -0.3676
16817SOL    HW251030   5.809   6.122   2.366  0.3111  0.4103 -1.8119
16818SOL     OW51031   5.305   0.987   9.309  0.2069 -0.2841  0.0478
16818SOL    HW151032   5.312   0.919   9.242  0.5112 -0.5183  0.3127
16818SOL    HW251033   5.226   1.035   9.286 -0.7943 -1.5851  0.6321
16819SOL     OW51034   5.904   3.612   3.650  0.2506  0.3985  0.6225
16819SOL    HW151035   5.920   3.522   3.677 -1.0999 -0.1606 -0.3196
16819SOL    HW251036   5.808   3.618   3.642  0.1517  2.4383  2.4037
16820SOL     OW51037   3.423   3.825   6.590  0.3657  0.1469  0.6203
16820SOL    HW151038   3.434   3.910   6.547 -2.9399  0.1146 -0.5905
16820SOL    HW251039   3.438   3.761   6.520 -1.6411 -0.0170  0.2643
16821SOL     OW51040   2.880   3.245   9.665  0.1504  0.4750  0.3976
16821SOL    HW151041   2.822   3.280   9.732  0.5651 -1.0650  1.6366
16821SOL    HW251042   2.829   3.248   9.584 -0.5488  1.8900  0.8488
16822SOL     OW51043   2.513   5.293   4.081 -0.2182 -0.1154 -0.1077
16822SOL    HW151044   2.516   5.205   4.119  0.1483  0.7745  2.0459
16822SOL    HW251045   2.585   5.339   4.123 -0.2721  1.1679 -1.3794
16823SOL     OW51046   2.513   6.937   3.138 -0.5532 -0.2140  0.1843
16823SOL    HW151047   2.442   6.947   3.074 -0.0604  0.7811 -0.2345
16823SOL    HW251048   2.578   6.883   3.093 -0.3310  0.2480 -0.0525
16824SOL     OW51049   8.717   3.326   8.426 -0.1634  0.1633 -0.5110
16824SOL    HW151050   8.682   3.260   8.367 -0.3348  0.7921 -1.1278
16824SOL    HW251051   8.690   3.409   8.388 -1.6474  0.5721  1.2935
16825SOL     OW51052   8.992   0.192   6.328  0.2561  0.2875  0.0405
16825SOL    HW151053   8.942   0.133   6.272  0.9780 -1.1013  0.8198
16825SOL    HW251054   9.084   0.176   6.305  0.5411 -0.0045  1.2837
16826SOL     OW51055   2.536   9.068   1.624  0.5583  0.2840 -0.2053
16826SOL    HW151056   2.491   9.148   1.598  1.2180  0.8386  0.3044
16826SOL    HW251057   2.616   9.067   1.572  1.0028  0.4470  0.4627
16827SOL     OW51058   9.159   4.003   0.825  0.4830  0.1100 -1.0232
16827SOL    HW151059   9.219   4.043   0.888  0.0223 -0.1139 -0.4347
16827SOL    HW251060   9.150   3.913   0.854  0.8302 -0.1970 -1.8384
16828SOL     OW51061   1.535   6.660   4.215  0.4075 -0.6755  0.0485
16828SOL    HW151062   1.527   6.716   4.138  0.4596 -0.5840  0.1089
16828SOL    HW251063   1.575   6.580   4.183  0.4385 -0.6334 -0.0173
16829SOL     OW51064   8.393   0.926   3.035  0.3568  0.1293  0.2695
16829SOL    HW151065   8.485   0.918   3.060 -0.0662  0.0085  1.8665
16829SOL    HW251066   8.381   1.019   3.016  0.4894  0.4046  1.4644
16830SOL     OW51067   1.595   2.044   4.942  0.2972  0.7810  0.0505
16830SOL    HW151068   1.639   2.097   4.875  0.6856  1.1540  0.5942
16830SOL    HW251069   1.502   2.063   4.932 -0.2914 -2.5822 -3.4527
16831SOL     OW51070   3.925   5.099   4.569 -0.0029 -0.0978 -0.4394
16831SOL    HW151071   3.858   5.039   4.602  0.4801 -0.3271  0.1330
16831SOL    HW251072   3.883   5.185   4.571 -0.4159 -0.2909 -0.4812
16832SOL     OW51073   0.406   5.827   6.734 -0.0193  0.2548  0.1910
16832SOL    HW151074   0.336   5.785   6.784  1.3164 -0.1556  1.8370
16832SOL    HW251075   0.361   5.882   6.671 -1.8167 -1.4501 -0.1035
16833SOL     OW51076   5.263   4.901   7.261 -0.3367 -0.6559  0.0249
16833SOL    HW151077   5.316   4.980   7.264 -1.9924  0.4794  2.7832
16833SOL    HW251078   5.196   4.920   7.195  0.6977 -0.8030 -1.1028
16834SOL     OW51079   7.145   1.259   6.697  0.2949  0.4547 -0.6307
16834SOL    HW151080   7.110   1.173   6.673 -1.2448  0.1931  2.0807
16834SOL    HW251081   7.094   1.321   6.646 -0.0140 -0.1555 -1.0854
16835SOL     OW51082   9.302   9.919   5.760 -0.2294  0.3710  0.0968
16835SOL    HW151083   9.291   9.988   5.695  0.1812  0.5403  0.2086
16835SOL    HW251084   9.393   9.927   5.789 -0.1430 -0.2907  0.0210
16836SOL     OW51085   2.202   9.376   6.570 -0.1860  0.2865  0.3789
16836SOL    HW151086   2.235   9.313   6.506 -0.4341  0.7073 -0.1671
16836SOL    HW251087   2.231   9.461   6.539 -0.1719  0.4852  0.9144
16837SOL     OW51088   4.722   9.976   0.359 -0.2304  0.2338  0.2601
16837SOL    HW151089   4.761   9.997   0.274 -0.5673  0.7581  0.2273
16837SOL    HW251090   4.638   9.935   0.338 -0.5735  0.8766  0.3299
16838SOL     OW51091   7.406   8.213   6.623 -0.0973 -0.0439 -0.7521
16838SOL    HW151092   7.408   8.168   6.539 -0.5762  0.0351 -0.8077
16838SOL    HW251093   7.331   8.175   6.669  0.1417 -0.0615 -0.3741
16839SOL     OW51094   4.632   2.828   1.399 -0.8984  0.1188  0.3607
16839SOL    HW151095   4.543   2.863   1.396 -1.5943 -1.6216 -1.5751
16839SOL    HW251096   4.621   2.735   1.418  0.6910  0.2091  2.0900
16840SOL     OW51097   6.108   8.879   5.268  0.0528 -0.2434 -0.2682
16840SOL    HW151098   6.192   8.922   5.252  1.5452 -2.0453  2.0274
16840SOL    HW251099   6.123   8.788   5.244 -1.2019 -0.6177  0.2867
16841SOL     OW51100   6.486   4.812   2.393  0.3859 -0.0616  0.2909
16841SOL    HW151101   6.404   4.845   2.430 -0.9870 -3.0213  0.1500
16841SOL    HW251102   6.473   4.816   2.298  0.7131  0.1699  0.2548
16842SOL     OW51103   4.434   4.878   0.113  0.4519  0.2752  0.4446
16842SOL    HW151104   4.460   4.867   0.204  0.0085 -0.9008  0.4509
16842SOL    HW251105   4.473   4.961   0.086 -0.3784  1.2221  2.0433
16843SOL     OW51106   5.972   4.495   3.996  0.0635 -0.3314 -0.1454
16843SOL    HW151107   5.942   4.452   4.077  0.4472  0.4800  0.4442
16843SOL    HW251108   5.992   4.584   4.023  1.2702 -0.3578 -0.9154
16844SOL     OW51109   2.607   1.952   1.809  0.5839  0.2803  0.6080
16844SOL    HW151110   2.580   2.017   1.873 -1.6226  0.6127 -0.5657
16844SOL    HW251111   2.648   2.003   1.738 -1.7619  0.5829 -0.6332
16845SOL     OW51112   6.774   8.872   3.559  0.1286 -0.2236  0.3886
16845SOL    HW151113   6.818   8.947   3.600  0.2334  0.2218 -0.5119
16845SOL    HW251114   6.765   8.897   3.467 -0.8280 -0.8630  0.2964
16846SOL     OW51115   1.989   5.824   0.016 -0.0737  0.2365 -0.6381
16846SOL    HW151116   1.911   5.868   0.049 -0.8733 -0.1127 -1.9932
16846SOL    HW251117   1.956   5.761  -0.048  1.3837  0.7076 -1.9140
16847SOL     OW51118   3.823   1.247   8.717  0.1508 -0.2441  0.4460
16847SOL    HW151119   3.905   1.242   8.765  0.1952  0.8248  0.4980
16847SOL    HW251120   3.808   1.341   8.702 -1.4896 -0.3397  1.2020
16848SOL     OW51121   2.577   2.051   7.013 -0.1399  0.0221  0.1786
16848SOL    HW151122   2.600   2.132   7.060  0.7835 -0.2599  0.2388
16848SOL    HW251123   2.627   1.983   7.058  0.4847 -0.3100 -0.9914
16849SOL     OW51124   4.566   1.259   0.291 -0.3217  0.1160  0.0384
16849SOL    HW151125   4.474   1.259   0.318 -0.9314 -0.6899 -1.9196
16849SOL    HW251126   4.613   1.286   0.370 -2.2346  0.7853  1.0264
16850SOL     OW51127   3.396   4.090   1.607 -0.1689 -0.1960  0.3181
16850SOL    HW151128   3.372   4.006   1.567 -1.5790  0.3264  0.0031
16850SOL    HW251129   3.372   4.081   1.699 -1.4392  0.2266  0.0593
16851SOL     OW51130   9.403   1.827   8.305  0.3056 -0.0641 -0.7411
16851SOL    HW151131   9.492   1.797   8.326  0.8963  0.2796 -2.5889
16851SOL    HW251132   9.386   1.792   8.218 -0.4746  1.7766 -1.3579
16852SOL     OW51133   3.199   5.301   4.164 -0.0315  0.5720  0.0885
16852SOL    HW151134   3.212   5.366   4.233 -0.1702 -0.8911  1.5664
16852SOL    HW251135   3.209   5.217   4.209 -0.3148 -0.4376 -1.6566
16853SOL     OW51136   5.532   7.165   7.265 -0.1707  0.3214  0.5936
16853SOL    HW151137   5.558   7.076   7.241  2.5859  1.3188 -0.6178
16853SOL    HW251138   5.456   7.184   7.210  0.9432 -0.3404 -1.2804
16854SOL     OW51139   0.458   8.110   9.668 -0.0030  0.0626 -0.3208
16854SOL    HW151140   0.497   8.086   9.584  0.8528 -1.7570  0.5331
16854SOL    HW251141   0.533   8.118   9.728 -0.7338 -2.2338  1.0553
16855SOL     OW51142   8.910   5.731   2.988  0.2629 -0.0098  0.2315
16855SOL    HW151143   8.913   5.636   3.003  1.4360  0.2121  1.5738
16855SOL    HW251144   8.852   5.765   3.056 -1.8682  0.0749 -1.5066
16856SOL     OW51145   0.483   7.378   9.511  0.1675  0.1452 -0.6766
16856SOL    HW151146   0.459   7.388   9.419 -1.5155 -0.6355 -0.3536
16856SOL    HW251147   0.429   7.443   9.557 -0.2369 -0.6074 -0.0729
16857SOL     OW51148   3.922   6.011   5.390 -0.1452 -0.1723 -0.1667
16857SOL    HW151149   3.990   6.075   5.367 -1.2040  1.0462 -0.0404
16857SOL    HW251150   3.919   5.951   5.315  2.9033 -1.9445  0.9619
16858SOL     OW51151   4.405   7.607   7.085 -0.5250 -0.6992  0.5801
16858SOL    HW151152   4.409   7.689   7.036 -1.6239 -1.4263 -0.8061
16858SOL    HW251153   4.345   7.552   7.035 -2.0386 -1.3654  2.9676
16859SOL     OW51154   0.518   8.474   1.725  0.1456  0.5867  0.2114
16859SOL    HW151155   0.488   8.565   1.734 -0.7528  0.5316 -1.7038
16859SOL    HW251156   0.552   8.469   1.636 -1.0529 -1.2609 -0.2099
16860SOL     OW51157   6.440   4.228   7.347  0.1301  0.3483  0.2912
16860SOL    HW151158   6.515   4.279   7.379  0.4560  1.0504 -1.4881
16860SOL    HW251159   6.435   4.153   7.406  1.6702  0.7641  0.9945
16861SOL     OW51160   9.185   2.203   1.883 -0.3223 -0.1935 -0.1654
16861SOL    HW151161   9.114   2.257   1.918 -0.2538 -0.7457  0.8682
16861SOL    HW251162   9.239   2.264   1.833 -0.5334  0.6088  0.5461
16862SOL     OW51163   3.356   5.295   9.699 -0.0434  0.5967  0.0711
16862SOL    HW151164   3.423   5.319   9.764  0.6881  1.9427 -1.1309
16862SOL    HW251165   3.403   5.294   9.616 -1.3069  0.5008 -0.6565
16863SOL     OW51166   5.240   7.395   2.514 -0.5270  0.0308  0.0340
16863SOL    HW151167   5.317   7.410   2.569 -0.4755 -0.6688  0.1610
16863SOL    HW251168   5.236   7.300   2.502  0.1290  0.2085 -2.1298
16864SOL     OW51169   0.160   7.885   5.604  0.0800  0.1949 -0.1942
16864SOL    HW151170   0.245   7.879   5.559 -0.2013  0.2331 -0.7464
16864SOL    HW251171   0.176   7.848   5.690  1.1824  2.0732  0.4816
16865SOL     OW51172   7.156   3.559   0.539 -0.1817 -0.7205  0.2679
16865SOL    HW151173   7.188   3.471   0.521 -0.4727 -0.3507 -2.6143
16865SOL    HW251174   7.189   3.612   0.466 -1.7837  1.0891  0.7672
16866SOL     OW51175   8.927   6.079   2.339 -0.1671  0.1783 -0.3424
16866SOL    HW151176   9.001   6.132   2.310  0.9779  0.5424  2.8121
16866SOL    HW251177   8.943   5.992   2.301  1.9023  0.2681  0.2067
16867SOL     OW51178   7.648   3.889   4.727 -0.5099 -0.1809 -0.3266
16867SOL    HW151179   7.655   3.819   4.792  0.2072 -0.4858 -0.7221
16867SOL    HW251180   7.733   3.932   4.727 -1.0743  0.9664  0.1921
16868SOL     OW51181   6.238   7.272   7.699  0.3584 -0.3872 -1.0642
16868SOL    HW151182   6.299   7.338   7.668  1.0916 -0.9719 -0.9032
16868SOL    HW251183   6.164   7.322   7.735  1.6451  0.4083  0.6299
16869SOL     OW51184   9.615   4.783   4.321 -0.5898  0.2769 -0.0694
16869SOL    HW151185   9.569   4.706   4.287  0.4325  0.5938 -2.3396
16869SOL    HW251186   9.707   4.756   4.325 -0.5469  0.5676  1.6750
16870SOL     OW51187   3.143   9.426   2.584 -0.2030 -0.2469 -0.0755
16870SOL    HW151188   3.136   9.356   2.519  0.8062 -1.7018  1.2940
16870SOL    HW251189   3.209   9.394   2.646 -1.6052  0.7586  2.0448
16871SOL     OW51190   5.730   6.763   5.057 -0.4500 -0.0517  0.5872
16871SOL    HW151191   5.726   6.780   4.963 -0.7634  1.7918  0.8875
16871SOL    HW251192   5.824   6.760   5.077 -0.3749 -1.1059  0.1354
16872SOL     OW51193   4.844   9.428   4.336  0.2322  0.3630 -0.1812
16872SOL    HW151194   4.847   9.332   4.344 -1.6843  0.1419 -1.4407
16872SOL    HW251195   4.769   9.454   4.389  0.6791  1.1796  0.0699
16873SOL     OW51196   0.841   8.368   7.740  0.6143  0.5411  0.0325
16873SOL    HW151197   0.869   8.419   7.815 -0.0658 -0.7258  1.1836
16873SOL    HW251198   0.873   8.417   7.664 -0.2051  2.7626  1.0544
16874SOL     OW51199   3.713   6.153   9.520 -0.5839  0.1072 -0.2618
16874SOL    HW151200   3.702   6.143   9.615 -0.1637  0.7340 -0.1428
16874SOL    HW251201   3.712   6.248   9.506  0.4079  0.0521 -0.7532
16875SOL     OW51202   7.789   4.447   2.765 -0.3428 -0.3115 -0.1288
16875SOL    HW151203   7.724   4.382   2.791  0.5231 -1.4235 -0.6852
16875SOL    HW251204   7.852   4.450   2.837  0.2351 -0.9396 -0.5975
16876SOL     OW51205   5.553   0.562   3.349  0.0799 -0.6434  0.0197
16876SOL    HW151206   5.527   0.642   3.394  0.6827 -0.3128 -0.1972
16876SOL    HW251207   5.628   0.529   3.399  1.7072  0.5241 -1.5104
16877SOL     OW51208   1.240   6.676   3.912 -0.6089  0.1740 -0.3226
16877SOL    HW151209   1.246   6.614   3.839  0.8852 -2.6413  1.9597
16877SOL    HW251210   1.326   6.719   3.915  0.3659 -1.7248  1.2678
16878SOL     OW51211   0.567   0.793   0.844  0.0641 -0.4450 -0.3995
16878SOL    HW151212   0.649   0.805   0.891  0.4362 -1.3011 -0.7977
16878SOL    HW251213   0.585   0.819   0.754 -0.5752  0.9450 -0.1480
16879SOL     OW51214   7.121   6.565   0.561 -0.1641  0.1878 -0.5983
16879SOL    HW151215   7.059   6.535   0.495 -0.0877 -0.2999 -0.4548
16879SOL    HW251216   7.067   6.608   0.628 -0.4754 -1.1538  0.0439
16880SOL     OW51217   5.147   8.386   5.129 -0.4670  0.0155  0.1156
16880SOL    HW151218   5.135   8.468   5.081 -0.4156 -0.4890 -0.7908
16880SOL    HW251219   5.241   8.367   5.120 -0.9190 -1.6139 -2.2382
16881SOL     OW51220   4.305   1.125   6.294 -0.3018  0.1399  0.1931
16881SOL    HW151221   4.323   1.033   6.314  0.6260  0.1853 -0.3497
16881SOL    HW251222   4.323   1.133   6.200 -3.8589  0.0925 -0.6387
16882SOL     OW51223   9.383   7.778   6.172 -0.7188  0.0977 -0.1593
16882SOL    HW151224   9.370   7.856   6.227  3.5037  0.7787  0.2410
16882SOL    HW251225   9.411   7.710   6.234 -2.0122 -1.0490 -0.7992
16883SOL     OW51226   1.687   7.450   8.860  0.0152  0.2063  0.0340
16883SOL    HW151227   1.755   7.387   8.884  0.2837 -0.5870 -2.5140
16883SOL    HW251228   1.617   7.434   8.923  0.2444 -2.3983 -0.2282
16884SOL     OW51229   7.465   6.576   9.138 -0.3133  0.4482  0.3065
16884SOL    HW151230   7.521   6.528   9.077  0.5375  0.8555  0.7552
16884SOL    HW251231   7.377   6.567   9.101  0.0128 -0.3501 -0.3145
16885SOL     OW51232   8.751   5.733   7.312 -0.6500  0.1261 -0.4738
16885SOL    HW151233   8.747   5.723   7.407 -1.2429  0.1134 -0.4951
16885SOL    HW251234   8.682   5.797   7.292 -0.9772 -0.3707 -0.9548
16886SOL     OW51235   5.076   4.112   0.029 -0.0001  0.1514 -0.1154
16886SOL    HW151236   5.151   4.077  -0.018 -0.9293  0.1627 -1.6591
16886SOL    HW251237   5.087   4.207   0.024 -0.8561  0.1947 -1.6463
16887SOL     OW51238   5.671   0.644   1.196  0.7821 -0.3093  0.3672
16887SOL    HW151239   5.598   0.583   1.190  1.2213 -0.7331 -0.8982
16887SOL    HW251240   5.688   0.651   1.290 -0.1190 -1.1089  0.6117
16888SOL     OW51241   1.903   2.027   6.668  0.3863 -0.2812 -0.2749
16888SOL    HW151242   1.909   1.938   6.635  0.7952 -0.2161 -0.3932
16888SOL    HW251243   1.951   2.079   6.604  1.0084 -0.1209  0.3033
16889SOL     OW51244   1.588   1.854   8.538  0.0145  0.5249 -0.3519
16889SOL    HW151245   1.677   1.881   8.514  0.5298 -1.4257 -0.8151
16889SOL    HW251246   1.579   1.767   8.499 -0.6482 -1.0452  3.0121
16890SOL     OW51247   5.821   4.742   7.437  0.1788 -0.3561 -0.0341
16890SOL    HW151248   5.891   4.684   7.466  0.2268 -0.9324 -1.2381
16890SOL    HW251249   5.751   4.729   7.501  0.4365 -1.2546  0.0778
16891SOL     OW51250   0.623   5.366   2.236 -0.1190  0.0002 -0.5333
16891SOL    HW151251   0.563   5.436   2.261 -0.7268 -1.2428  1.7721
16891SOL    HW251252   0.710   5.406   2.243 -0.4801  0.7068  0.0480
16892SOL     OW51253   7.726   7.551   2.452 -0.1419  0.0660  0.1726
16892SOL    HW151254   7.674   7.580   2.377 -0.0073 -0.4197 -0.1110
16892SOL    HW251255   7.799   7.612   2.455 -0.1780  0.1222 -0.0569
16893SOL     OW51256   2.708   0.510   5.872  0.2014 -0.2839 -0.7181
16893SOL    HW151257   2.724   0.586   5.816  1.1329 -1.5787 -2.2943
16893SOL    HW251258   2.733   0.539   5.960  0.3502  1.2727 -1.2464
16894SOL     OW51259   1.256   7.271   2.695 -0.3181  0.1146 -0.1446
16894SOL    HW151260   1.289   7.250   2.783 -1.8939  0.4837  0.5612
16894SOL    HW251261   1.227   7.188   2.660 -1.3550  0.2262  0.4183
16895SOL     OW51262   3.403   6.034   3.103 -0.1085  0.7968 -0.5366
16895SOL    HW151263   3.438   6.120   3.125  0.8194  0.0002  1.3316
16895SOL    HW251264   3.451   5.973   3.159 -1.7442 -0.7941 -0.7572
16896SOL     OW51265   9.515   6.921   1.201 -0.0039 -0.2620  0.5587
16896SOL    HW151266   9.436   6.939   1.149  0.0041 -0.1230  0.5971
16896SOL    HW251267   9.582   6.901   1.136 -0.2578 -1.1351  0.5452
16897SOL     OW51268   0.774   6.536   8.956  0.2709 -0.2120  0.1792
16897SOL    HW151269   0.779   6.553   9.050  0.4942  1.3156 -0.0794
16897SOL    HW251270   0.829   6.604   8.916  1.2713 -1.6425 -0.9877
16898SOL     OW51271   6.289   0.761   5.302  0.2111  0.0479  0.0424
16898SOL    HW151272   6.358   0.813   5.345 -2.0032  1.5173  2.0513
16898SOL    HW251273   6.236   0.825   5.255 -0.4639 -0.9027 -0.5336
16899SOL     OW51274   9.850   0.185   0.752  0.4281  0.2076 -0.6438
16899SOL    HW151275   9.912   0.211   0.684  0.5528  0.5596 -0.4007
16899SOL    HW251276   9.791   0.260   0.762  1.4268  0.8667  0.7926
16900SOL     OW51277   5.818   8.368   2.565 -0.6433  0.3549 -0.1942
16900SOL    HW151278   5.751   8.432   2.542 -0.6619  1.2086  1.9388
16900SOL    HW251279   5.773   8.307   2.625  0.0905  0.0560  0.0671
16901SOL     OW51280   2.001   6.458   4.817  0.1751  1.1143 -0.3076
16901SOL    HW151281   2.054   6.537   4.810  1.5436  0.1998 -0.8924
16901SOL    HW251282   2.061   6.392   4.851 -1.4175  0.7394  2.0123
16902SOL     OW51283   4.832   5.118   7.596  0.1089  0.3263 -0.2972
16902SOL    HW151284   4.761   5.096   7.656  0.1431 -0.0274 -0.3860
16902SOL    HW251285   4.861   5.205   7.625 -0.9822  0.8964 -0.8527
16903SOL     OW51286   6.256   7.232   0.358  0.2462  0.0722  0.5239
16903SOL    HW151287   6.290   7.150   0.323 -1.5171 -0.8995  0.9719
16903SOL    HW251288   6.259   7.293   0.284 -0.9876 -1.2045 -0.6345
16904SOL     OW51289   8.287   1.442   1.968 -0.1061  0.2820 -0.1682
16904SOL    HW151290   8.356   1.480   1.914 -1.9358  1.7721 -1.6238
16904SOL    HW251291   8.206   1.467   1.923 -1.6158 -0.9582  1.7215
16905SOL     OW51292   0.284   8.085   8.089  0.1989 -0.4871 -0.1988
16905SOL    HW151293   0.346   8.064   8.158  0.0992 -0.9590 -0.2492
16905SOL    HW251294   0.214   8.020   8.099 -1.1235  1.0210  0.9078
16906SOL     OW51295   2.532   5.083  -0.008  0.6863  0.3637 -0.3674
16906SOL    HW151296   2.463   5.150  -0.004  0.4157  0.1314 -1.1279
16906SOL    HW251297   2.609   5.128   0.027  0.0330  0.4498  1.0699
16907SOL     OW51298   4.908   5.810   4.807  0.1341 -0.4282  0.2955
16907SOL    HW151299   4.940   5.769   4.727 -0.6472 -1.1983  0.3688
16907SOL    HW251300   4.813   5.809   4.799  0.0734  1.2942  0.3484
16908SOL     OW51301   5.503   9.735   7.258  0.2344 -0.7760 -0.1928
16908SOL    HW151302   5.551   9.704   7.335 -0.1752 -2.1590 -0.4631
16908SOL    HW251303   5.518   9.668   7.191  0.8892  0.5779 -1.4668
16909SOL     OW51304   1.228   2.925   5.141  0.0070 -0.5832 -0.2662
16909SOL    HW151305   1.252   3.005   5.095 -1.3447 -0.9846 -1.7593
16909SOL    HW251306   1.227   2.949   5.233 -0.6781  1.2202 -0.7068
16910SOL     OW51307   1.718   5.719   0.225 -0.0176  0.3160  0.5502
16910SOL    HW151308   1.647   5.687   0.281  0.2790  0.6388  1.1222
16910SOL    HW251309   1.680   5.721   0.137 -0.2881 -0.8251  0.6242
16911SOL     OW51310   1.560   4.444   9.666  0.3153  0.0950  0.2259
16911SOL    HW151311   1.648   4.435   9.630  0.8155 -1.5342  1.6769
16911SOL    HW251312   1.573   4.486   9.751 -0.2237 -0.6446  0.6863
16912SOL     OW51313   6.409   2.681   0.835  0.5036 -0.2951  0.5115
16912SOL    HW151314   6.464   2.665   0.758  1.8475 -2.6307  1.8407
16912SOL    HW251315   6.323   2.647   0.810  0.5153  0.3185 -0.4266
16913SOL     OW51316   5.050   5.706   7.217 -0.1056  0.4705  0.0758
16913SOL    HW151317   4.996   5.769   7.265 -1.5844 -0.5864 -0.1595
16913SOL    HW251318   4.988   5.646   7.178  1.2252 -0.3560 -0.8305
16914SOL     OW51319   3.645   8.765   4.542 -0.5577 -0.2804 -0.1940
16914SOL    HW151320   3.577   8.712   4.500  0.7108 -0.5151 -2.0965
16914SOL    HW251321   3.724   8.746   4.492  0.1336  2.7763 -0.4868
16915SOL     OW51322   4.642   4.412   1.496 -0.0636  0.7734 -0.3644
16915SOL    HW151323   4.604   4.327   1.473 -0.7899  1.0518 -0.2290
16915SOL    HW251324   4.724   4.391   1.540 -0.7691  0.0828  0.6799
16916SOL     OW51325   3.760   4.962   4.764 -0.3752  0.0946 -0.3945
16916SOL    HW151326   3.669   4.986   4.780 -0.2806  0.6988 -0.7563
16916SOL    HW251327   3.811   5.031   4.806 -0.0847 -0.1267 -0.3807
16917SOL     OW51328   0.979   2.264   8.498 -0.1729 -0.1051 -0.0304
16917SOL    HW151329   1.044   2.330   8.523 -0.9712  0.2763  1.1414
16917SOL    HW251330   0.975   2.205   8.573 -0.7821 -0.4295 -0.3177
16918SOL     OW51331   2.679   0.672   4.175 -0.6276 -0.1978 -0.6719
16918SOL    HW151332   2.745   0.705   4.116  0.0668 -0.2503  0.0568
16918SOL    HW251333   2.694   0.577   4.178 -1.3891 -0.3537 -1.2766
16919SOL     OW51334   8.765   4.241   3.025  0.1490 -0.5452  0.2650
16919SOL    HW151335   8.733   4.331   3.030  1.4867  0.0115 -0.5940
16919SOL    HW251336   8.690   4.190   2.994 -0.0461  0.6655 -1.4108
16920SOL     OW51337   4.845   7.596   0.309  0.3329 -0.0146  0.0919
16920SOL    HW151338   4.852   7.635   0.396  1.8937  2.1224 -0.9049
16920SOL    HW251339   4.780   7.649   0.264  1.4122  0.5676 -0.8320
16921SOL     OW51340   1.066   8.487   9.258 -0.1426 -0.2692  0.1174
16921SOL    HW151341   1.073   8.527   9.171  1.3419  1.0805  0.8070
16921SOL    HW251342   1.055   8.394   9.240 -0.9704  0.0999 -1.5223
16922SOL     OW51343   3.766   6.502   5.018  0.0086  0.1559  0.2365
16922SOL    HW151344   3.692   6.449   4.987  0.8924 -0.2122 -1.3471
16922SOL    HW251345   3.793   6.459   5.099 -2.1392  0.9157  1.4285
16923SOL     OW51346   2.888   5.019   5.884  0.4484 -0.6601 -0.1386
16923SOL    HW151347   2.795   5.027   5.863  0.6684  0.0505 -0.9012
16923SOL    HW251348   2.904   4.925   5.887 -0.0324 -0.7901 -1.2196
16924SOL     OW51349   6.696   8.783   2.049 -0.2896  0.3638 -0.2816
16924SOL    HW151350   6.678   8.820   1.963 -0.6362 -0.9255 -0.7869
16924SOL    HW251351   6.625   8.816   2.105 -0.9080  0.0315 -0.8535
16925SOL     OW51352   9.324   0.194   8.904  0.9701 -0.2122 -0.1911
16925SOL    HW151353   9.333   0.160   8.993  1.2401  1.1442  0.3229
16925SOL    HW251354   9.382   0.270   8.901 -0.3868  0.8439 -0.9526
16926SOL     OW51355   5.042   6.239   6.081 -0.4180  0.0742  0.5749
16926SOL    HW151356   4.989   6.208   6.154 -0.9314  1.0253  0.6168
16926SOL    HW251357   5.130   6.248   6.117 -1.0998  2.7934  1.7719
16927SOL     OW51358   9.864   7.360   6.752 -0.1321  0.3873 -0.0417
16927SOL    HW151359   9.925   7.349   6.824  0.3430 -1.8222 -0.7166
16927SOL    HW251360   9.791   7.301   6.773 -0.7172  0.8839 -0.6301
16928SOL     OW51361   5.394   6.703   0.999 -0.1651  0.4531  0.0709
16928SOL    HW151362   5.335   6.777   1.010  0.4009  0.6220  2.5113
16928SOL    HW251363   5.373   6.644   1.071  1.5878 -0.1959  0.1028
16929SOL     OW51364   9.240   0.925   2.055  0.0341 -0.8682 -0.7427
16929SOL    HW151365   9.308   0.938   1.989 -0.2073  1.3642 -0.6527
16929SOL    HW251366   9.158   0.935   2.006 -0.1462  0.7352 -0.1901
16930SOL     OW51367   1.949   2.903   9.560  0.2613  0.1745  0.0836
16930SOL    HW151368   1.939   2.945   9.645 -0.3583 -0.4539  0.3347
16930SOL    HW251369   1.862   2.908   9.520 -0.0185 -1.4737  0.4207
16931SOL     OW51370   6.639   9.652   9.612  0.1209 -0.5560 -0.2678
16931SOL    HW151371   6.717   9.596   9.614  1.0798  0.7511  0.0360
16931SOL    HW251372   6.652   9.715   9.683 -1.4287 -0.5585  0.0747
16932SOL     OW51373   0.091   1.064   6.324 -0.1894 -0.7527  0.0661
16932SOL    HW151374   0.107   1.076   6.230  0.5412 -1.5263  0.0790
16932SOL    HW251375   0.119   1.146   6.364  0.0051 -0.6217 -0.3360
16933SOL     OW51376   7.277   5.541   7.912 -0.1131 -0.0710  0.6513
16933SOL    HW151377   7.184   5.523   7.897  0.6967 -2.1421 -3.3680
16933SOL    HW251378   7.307   5.468   7.966 -0.5688 -0.1207  0.8423
16934SOL     OW51379   8.917   9.486   1.567  0.3648 -0.7315 -0.0813
16934SOL    HW151380   8.828   9.500   1.599 -0.1865 -1.7752 -1.0929
16934SOL    HW251381   8.955   9.422   1.627  0.1073 -0.9962 -0.2033
16935SOL     OW51382   9.962   4.660   4.130  0.5342  0.4377 -0.1013
16935SOL    HW151383   9.904   4.584   4.136  1.2436 -0.0962  0.0892
16935SOL    HW251384   9.956   4.687   4.038  1.0354 -0.4590 -0.4096
16936SOL     OW51385   7.848   0.081   5.177  0.5559  0.0434 -0.0836
16936SOL    HW151386   7.872   0.043   5.092  0.3937 -0.7237  0.2023
16936SOL    HW251387   7.757   0.109   5.165  0.5422 -0.0365 -0.1776
16937SOL     OW51388   9.505   9.696   6.062 -0.6220  0.1734  0.2551
16937SOL    HW151389   9.596   9.726   6.067 -0.8615  1.4480 -2.0263
16937SOL    HW251390   9.506   9.628   5.995 -1.6829  1.9476 -1.6898
16938SOL     OW51391   9.685   4.760   6.693 -0.3243 -0.2030  0.5288
16938SOL    HW151392   9.632   4.709   6.631 -0.0055 -0.7401  0.6887
16938SOL    HW251393   9.731   4.694   6.744  0.3476  0.2594  0.5261
16939SOL     OW51394   2.578   1.479   2.092  0.3182 -0.1708  0.6570
16939SOL    HW151395   2.605   1.536   2.020  2.3774 -3.6115 -1.6312
16939SOL    HW251396   2.491   1.448   2.067  1.0320 -1.3622 -0.4602
16940SOL     OW51397   3.209   5.666   7.189  0.0095  0.3260 -0.1758
16940SOL    HW151398   3.117   5.644   7.183 -0.4879  1.7061  1.6299
16940SOL    HW251399   3.212   5.761   7.182  1.2942  0.3095 -0.2128
16941SOL     OW51400   2.953   3.228   8.954 -0.1648 -0.5213  0.1704
16941SOL    HW151401   3.016   3.203   9.022 -0.9712 -2.6483  0.2283
16941SOL    HW251402   2.983   3.182   8.876 -1.4025 -1.2397  0.1009
16942SOL     OW51403   9.457   4.777   2.456 -0.6712  0.1281 -0.8679
16942SOL    HW151404   9.432   4.795   2.547  0.2337  3.2080 -1.0876
16942SOL    HW251405   9.478   4.684   2.454 -1.9900 -0.3158  1.7327
16943SOL     OW51406   3.502   9.608   4.191  0.2287  0.0840  0.8150
16943SOL    HW151407   3.570   9.642   4.133  0.4925 -0.8018  0.6045
16943SOL    HW251408   3.547   9.595   4.275  0.2533 -0.2337  0.7533
16944SOL     OW51409   4.335   6.991   7.204 -0.2379  0.5919  0.1047
16944SOL    HW151410   4.286   6.910   7.188 -0.3383  1.1184 -2.7232
16944SOL    HW251411   4.314   7.014   7.295 -2.6199 -0.9570  0.0356
16945SOL     OW51412   5.998   6.826   6.755 -0.1997  0.4022  0.2854
16945SOL    HW151413   6.079   6.871   6.781  0.0687 -0.3714  0.8547
16945SOL    HW251414   6.009   6.737   6.790 -0.6837 -0.1245 -0.8545
16946SOL     OW51415   2.613   4.529   4.502  0.2775 -0.6111  0.1622
16946SOL    HW151416   2.602   4.434   4.496  1.0982 -0.9009  2.3196
16946SOL    HW251417   2.703   4.541   4.531  0.1529  0.8266  0.0266
16947SOL     OW51418   0.068   8.457   3.648  0.2833 -0.2204 -0.5495
16947SOL    HW151419   0.153   8.480   3.609  0.7410 -1.6433 -0.4573
16947SOL    HW251420   0.074   8.487   3.738  0.0634  1.1025 -0.9517
16948SOL     OW51421   2.151   6.948   6.218 -0.3966 -0.0160  0.0387
16948SOL    HW151422   2.141   6.861   6.257 -0.0453 -0.4357 -0.7656
16948SOL    HW251423   2.062   6.977   6.198 -0.4817 -0.4540 -0.2260
16949SOL     OW51424   7.962   1.434   6.306  0.0490  0.8049 -0.6445
16949SOL    HW151425   7.992   1.443   6.215 -2.1725  1.7109 -1.3536
16949SOL    HW251426   8.037   1.463   6.359  0.8040  1.9379 -2.2492
16950SOL     OW51427   6.948   7.627   3.802 -0.2423  0.3690  0.5638
16950SOL    HW151428   6.922   7.691   3.737  0.4715  1.8958  1.7053
16950SOL    HW251429   7.039   7.648   3.822 -0.3479 -0.2289  1.8383
16951SOL     OW51430   7.008   4.450   3.365 -0.5717 -0.0185  0.2381
16951SOL    HW151431   7.012   4.422   3.456 -0.7668  0.8912  0.5412
16951SOL    HW251432   7.034   4.542   3.368  1.2125 -0.4341 -0.8609
16952SOL     OW51433   5.877   9.563   8.249 -0.3790 -0.0103  0.1540
16952SOL    HW151434   5.857   9.500   8.317  1.9886  0.2535  1.1803
16952SOL    HW251435   5.961   9.535   8.213  0.6900  2.4455  0.5635
16953SOL     OW51436   7.766   6.788   6.956 -1.0260 -0.0339 -0.3118
16953SOL    HW151437   7.803   6.784   6.867 -0.5352 -1.7611 -0.0766
16953SOL    HW251438   7.831   6.837   7.007  0.0136 -1.2985 -0.3558
16954SOL     OW51439   1.753   8.912   8.545 -0.2597  0.0244  0.3197
16954SOL    HW151440   1.785   8.939   8.459 -2.4053  1.0695 -0.2076
16954SOL    HW251441   1.718   8.824   8.531  0.0121 -0.0797  0.2896
16955SOL     OW51442   1.050   2.728   6.791  0.7900 -0.4738 -0.0240
16955SOL    HW151443   0.982   2.790   6.817  0.9175 -0.1829 -0.3835
16955SOL    HW251444   1.129   2.781   6.784  1.2232 -0.9327  1.0925
16956SOL     OW51445   6.959   2.105   0.071 -0.6362  0.2313 -0.5465
16956SOL    HW151446   6.958   2.010   0.067  0.7461  0.1821 -0.1643
16956SOL    HW251447   6.986   2.125   0.161  0.8489  0.9471 -1.1169
16957SOL     OW51448   4.053   2.003   1.750 -0.6282  0.2303 -0.3092
16957SOL    HW151449   3.963   1.971   1.755 -0.8553  0.9214  0.1397
16957SOL    HW251450   4.077   2.022   1.840 -0.2616  0.6802 -0.4991
16958SOL     OW51451   6.390   2.436   6.092  0.0593 -0.1495 -0.5495
16958SOL    HW151452   6.346   2.379   6.029 -0.3645  0.0568 -0.4405
16958SOL    HW251453   6.351   2.412   6.176 -2.0865  2.1257 -0.7886
16959SOL     OW51454   8.831   7.142   4.327  0.2740 -0.1402 -0.1863
16959SOL    HW151455   8.877   7.199   4.265 -0.2600  0.5371  0.0386
16959SOL    HW251456   8.741   7.138   4.294  0.2912 -0.8209 -0.1710
16960SOL     OW51457   9.599   6.891   6.633 -0.7377  0.1184 -0.1737
16960SOL    HW151458   9.546   6.850   6.702 -1.4393  2.9614  1.1303
16960SOL    HW251459   9.537   6.905   6.561 -1.1169  0.9230  0.2870
16961SOL     OW51460   3.545   2.386   4.812  0.8184  0.2813 -0.0283
16961SOL    HW151461   3.508   2.388   4.900 -0.1250 -0.7314 -0.3790
16961SOL    HW251462   3.614   2.319   4.816  1.6561  1.1444  0.2550
16962SOL     OW51463   4.916   4.205   4.733 -0.0891 -0.0717 -0.2401
16962SOL    HW151464   4.969   4.281   4.757  0.4049  0.2361 -2.0969
16962SOL    HW251465   4.844   4.241   4.682 -0.8246 -0.7055  0.3348
16963SOL     OW51466   5.071   1.289   0.429 -0.5325 -0.1500  0.3793
16963SOL    HW151467   5.029   1.208   0.460 -2.2788  0.8861  0.8877
16963SOL    HW251468   5.015   1.319   0.358  0.9147 -0.1121 -0.7916
16964SOL     OW51469   5.555   2.317   3.059  0.0375 -0.5470  0.2180
16964SOL    HW151470   5.624   2.369   3.101 -0.3500 -0.0331  0.2276
16964SOL    HW251471   5.487   2.381   3.037  0.6344 -0.6093 -2.0637
16965SOL     OW51472   8.158   8.878   8.010  0.4256  0.0749 -0.3785
16965SOL    HW151473   8.167   8.891   7.915  2.0806  1.8777 -0.0384
16965SOL    HW251474   8.079   8.927   8.033 -0.4276 -1.0150 -0.9079
16966SOL     OW51475   5.628   1.224   5.970  1.0673 -0.0748 -0.4670
16966SOL    HW151476   5.656   1.133   5.961  1.3558 -0.1002  0.5549
16966SOL    HW251477   5.707   1.271   5.996  0.6201  0.2055  0.4415
16967SOL     OW51478   0.148   2.109   9.116  0.2512  0.4223 -0.8081
16967SOL    HW151479   0.206   2.133   9.044  0.0477 -1.3838 -1.6305
16967SOL    HW251480   0.201   2.123   9.195  1.5284 -0.3785 -1.4903
16968SOL     OW51481   6.111   7.831   7.538 -0.4203 -0.1541  0.7019
16968SOL    HW151482   6.055   7.755   7.556 -0.9818 -0.1019 -0.6693
16968SOL    HW251483   6.050   7.900   7.513  0.1646  0.4097  0.8136
16969SOL     OW51484   5.947   5.909   8.518  0.6037 -0.1171  0.2008
16969SOL    HW151485   5.863   5.924   8.475  0.4323 -0.6282  0.3471
16969SOL    HW251486   5.932   5.933   8.609  0.6495 -0.0966  0.2029
16970SOL     OW51487   8.512   2.560   7.464  0.2335  0.4352  0.2553
16970SOL    HW151488   8.607   2.565   7.454  0.1952 -0.7539 -1.3028
16970SOL    HW251489   8.484   2.650   7.473  1.6553  0.7101  2.8480
16971SOL     OW51490   5.034   7.608   4.204 -0.1572  0.0754  0.0336
16971SOL    HW151491   5.058   7.529   4.254  1.4135  0.9844  0.7902
16971SOL    HW251492   4.948   7.631   4.237 -1.1692 -1.9309 -1.0041
16972SOL     OW51493   3.358   0.119   5.130  0.3439 -0.1426 -0.5028
16972SOL    HW151494   3.292   0.165   5.077 -0.5090  0.9184  1.3771
16972SOL    HW251495   3.370   0.035   5.086 -0.7756  0.4315 -2.0021
16973SOL     OW51496   9.556   5.987   5.174 -0.3629 -0.3055 -0.5606
16973SOL    HW151497   9.647   5.982   5.143  0.0350  0.5899  0.4291
16973SOL    HW251498   9.552   5.925   5.246 -0.2621  0.3964  0.0523
16974SOL     OW51499   3.032   1.024   7.813  0.5431  0.1883 -0.0015
16974SOL    HW151500   2.937   1.031   7.811  0.1411 -3.3656 -1.5376
16974SOL    HW251501   3.059   1.037   7.722  1.3775 -0.2764  0.1652
16975SOL     OW51502   0.977   9.301   1.026  0.2952  0.0370 -0.1012
16975SOL    HW151503   0.950   9.387   0.995  1.9254  1.0968  1.2367
16975SOL    HW251504   1.014   9.258   0.948 -0.5545  0.5099 -0.7865
16976SOL     OW51505   2.737   7.386   8.947 -0.4687  0.1573 -0.4577
16976SOL    HW151506   2.652   7.425   8.926 -0.4412  0.0279 -0.8055
16976SOL    HW251507   2.731   7.296   8.918 -0.0376  0.2815 -0.9482
16977SOL     OW51508   7.779   9.855   1.426  0.3103 -0.1521 -0.2444
16977SOL    HW151509   7.834   9.856   1.348  0.4100 -1.8782 -0.2385
16977SOL    HW251510   7.834   9.896   1.494  0.8687 -0.1587 -0.6832
16978SOL     OW51511   9.460   0.669   3.035  0.1190 -0.4374  0.4030
16978SOL    HW151512   9.394   0.646   2.970  1.0565 -1.3982 -0.2561
16978SOL    HW251513   9.533   0.705   2.984  1.1806 -1.9136  0.8070
16979SOL     OW51514   8.585   3.550   2.421 -0.0579  0.6638  0.2482
16979SOL    HW151515   8.560   3.527   2.510 -0.5028  1.1219  0.2466
16979SOL    HW251516   8.667   3.503   2.406 -0.3152  0.0758  0.6676
16980SOL     OW51517   4.826   4.153   0.485  0.4713 -0.1439  0.4774
16980SOL    HW151518   4.908   4.192   0.516 -0.3619  0.6727  1.7409
16980SOL    HW251519   4.839   4.144   0.391  1.2171  2.0025  0.3144
16981SOL     OW51520   8.254   0.643   6.871 -0.0541 -0.4356  0.0131
16981SOL    HW151521   8.336   0.647   6.921 -0.3493  0.0738  0.4734
16981SOL    HW251522   8.260   0.716   6.809 -0.3364 -0.1308  0.3378
16982SOL     OW51523   4.880   4.597   7.840  0.1219  0.3444  0.2696
16982SOL    HW151524   4.872   4.531   7.772 -0.2920 -0.1583  0.7977
16982SOL    HW251525   4.911   4.675   7.794  0.9142 -0.2954 -0.3119
16983SOL     OW51526   9.937   2.765   4.341  0.7749  0.8034 -0.1627
16983SOL    HW151527   9.941   2.735   4.251  1.8694  0.0284  0.1361
16983SOL    HW251528   9.912   2.688   4.392  1.1223  0.9952  0.3108
16984SOL     OW51529   7.590   7.014   1.427  0.4761 -0.2610 -0.0964
16984SOL    HW151530   7.620   7.094   1.385  0.9160 -0.4887 -0.2251
16984SOL    HW251531   7.507   6.994   1.385  0.4823 -0.0005 -0.2307
16985SOL     OW51532   3.972   3.576   8.226  0.7086 -0.0667 -0.4627
16985SOL    HW151533   3.980   3.481   8.240 -0.1320 -0.3949 -2.0385
16985SOL    HW251534   3.997   3.589   8.135 -2.1949  0.7926 -1.2349
16986SOL     OW51535   3.135   6.638   4.027 -0.3682 -0.0141 -0.3307
16986SOL    HW151536   3.177   6.627   3.942  0.8625 -2.2736  0.4735
16986SOL    HW251537   3.044   6.611   4.013 -0.0235 -0.9831 -0.8362
16987SOL     OW51538   3.045   2.639   6.960  0.5304  0.1314 -0.1608
16987SOL    HW151539   2.991   2.598   6.892  0.7682  1.0211 -0.9088
16987SOL    HW251540   3.128   2.592   6.956  1.0857  1.1605 -1.5680
16988SOL     OW51541   6.412   2.713   0.357 -0.2115  0.2683  0.6594
16988SOL    HW151542   6.336   2.749   0.402  0.0099  0.4633  0.8831
16988SOL    HW251543   6.427   2.628   0.400 -0.6589 -0.0395  0.2140
16989SOL     OW51544   1.264   6.622   2.672  0.2490  0.1740 -0.1023
16989SOL    HW151545   1.249   6.692   2.735 -1.3528  0.2984 -0.5817
16989SOL    HW251546   1.302   6.667   2.596  2.1307  0.0307  0.7019
16990SOL     OW51547   1.001   3.861   7.552  0.4667 -0.5509  0.6805
16990SOL    HW151548   1.082   3.811   7.552  0.6712 -0.2322  0.2358
16990SOL    HW251549   0.956   3.833   7.472  1.0396  0.6814 -0.0987
16991SOL     OW51550   8.448   6.074   4.813 -0.1716  0.4967  0.1002
16991SOL    HW151551   8.428   5.980   4.813  1.7724  0.0110 -1.5049
16991SOL    HW251552   8.403   6.108   4.735  2.2850  0.0394 -1.6255
16992SOL     OW51553   4.465   4.251   3.158  0.0109  0.1120 -0.2965
16992SOL    HW151554   4.523   4.175   3.167  1.1445  0.9161 -0.6714
16992SOL    HW251555   4.515   4.324   3.192 -0.4919  0.9584 -1.2989
16993SOL     OW51556   6.165   0.986   3.880  0.7656 -0.4086 -1.0495
16993SOL    HW151557   6.131   1.069   3.845 -0.8924 -1.8147 -3.0081
16993SOL    HW251558   6.095   0.953   3.936  0.9391 -1.0349 -1.2002
16994SOL     OW51559   2.060   2.039   4.888  0.2364 -0.1507  0.1854
16994SOL    HW151560   2.128   2.083   4.837  0.6808 -0.4545  0.5144
16994SOL    HW251561   2.063   1.948   4.858  1.2137 -0.5729  1.4767
16995SOL     OW51562   0.369   7.108   9.205 -0.3032 -0.1521  0.4419
16995SOL    HW151563   0.429   7.183   9.204 -0.0477 -0.3594  0.2307
16995SOL    HW251564   0.285   7.145   9.179 -0.3331  0.1915  1.0027
16996SOL     OW51565   9.461   1.752   9.617 -0.0929  0.4081 -0.1757
16996SOL    HW151566   9.400   1.761   9.690  0.9851 -1.2086  0.9814
16996SOL    HW251567   9.407   1.767   9.539 -2.2350 -1.8744  0.7437
16997SOL     OW51568   5.184   3.125   0.802  0.5782  0.2258  0.1269
16997SOL    HW151569   5.233   3.043   0.808 -0.9137 -0.7062  0.0803
16997SOL    HW251570   5.154   3.128   0.711 -1.1783 -0.2939  0.6500
16998SOL     OW51571   3.833   8.425   6.875  0.4918 -0.2149  0.3398
16998SOL    HW151572   3.916   8.472   6.874  0.8552 -0.8388 -0.5914
16998SOL    HW251573   3.775   8.478   6.820  1.0841 -1.1116 -1.2311
16999SOL     OW51574   5.931   0.728   3.855 -0.1177  0.0357  0.2508
16999SOL    HW151575   5.926   0.794   3.786 -1.7621 -1.2904 -0.9747
16999SOL    HW251576   5.969   0.774   3.930  0.7700  1.7857 -1.2123
17000SOL     OW51577   8.728   7.574   7.686  0.1755 -0.2042 -0.2327
17000SOL    HW151578   8.668   7.629   7.636 -1.2839  1.2012  2.7928
17000SOL    HW251579   8.792   7.635   7.723 -0.6724 -0.6095  2.1049
17001SOL     OW51580   5.944   7.014   3.915 -0.9165 -0.0353  0.3069
17001SOL    HW151581   5.994   6.985   3.990 -0.7173 -1.7626 -0.4405
17001SOL    HW251582   5.862   7.046   3.951 -0.9831 -1.2129  1.2515
17002SOL     OW51583   1.941   8.674   6.773  0.1440 -0.0027  0.6418
17002SOL    HW151584   1.953   8.769   6.782 -0.3413  0.0770  0.4958
17002SOL    HW251585   2.007   8.647   6.709 -2.8954  1.0882 -3.4222
17003SOL     OW51586   8.523   7.169   0.576 -0.1801 -0.0133  0.1499
17003SOL    HW151587   8.471   7.249   0.581 -0.7021 -0.1937 -1.5205
17003SOL    HW251588   8.613   7.199   0.570 -0.4564  0.5968 -2.0881
17004SOL     OW51589   4.526   6.104   9.926 -0.2276 -0.7899 -0.1606
17004SOL    HW151590   4.517   6.137   9.837  1.1830 -1.1197 -0.4462
17004SOL    HW251591   4.528   6.009   9.916 -0.6887 -0.8509  0.2967
17005SOL     OW51592   9.289   3.707   8.535 -0.3762 -0.2036 -0.4747
17005SOL    HW151593   9.275   3.793   8.574  0.7469  0.6697 -1.8983
17005SOL    HW251594   9.203   3.666   8.533 -0.9930  1.0542 -0.1689
17006SOL     OW51595   6.639   4.352   9.641 -0.3089  0.6772  0.4039
17006SOL    HW151596   6.576   4.364   9.570 -0.9212  0.4659  0.9013
17006SOL    HW251597   6.659   4.259   9.640  0.4591  0.8363 -0.1274
17007SOL     OW51598   3.348   2.626   6.927 -0.0175 -0.4610 -0.0100
17007SOL    HW151599   3.426   2.574   6.906  0.0366 -0.5651  0.4343
17007SOL    HW251600   3.383   2.706   6.966 -0.0510  0.4188 -1.7110
17008SOL     OW51601   1.029   2.280   3.730  0.1083 -0.1905 -0.3908
17008SOL    HW151602   1.093   2.246   3.792 -1.4879 -1.2883  0.7665
17008SOL    HW251603   1.008   2.205   3.674 -0.3659  0.0489 -0.5433
17009SOL     OW51604   6.833   3.650   0.607 -0.0753  0.1072  0.5734
17009SOL    HW151605   6.911   3.648   0.550 -0.7235  0.8412 -0.3898
17009SOL    HW251606   6.833   3.566   0.651  0.0203 -0.8354 -1.1412
17010SOL     OW51607   8.433   8.383   7.281  0.1057  0.2174 -0.5339
17010SOL    HW151608   8.417   8.332   7.201  0.3716 -0.4138 -0.1914
17010SOL    HW251609   8.527   8.403   7.278  0.0611  0.4307 -0.5160
17011SOL     OW51610   1.366   5.932   9.921 -0.0640  0.4015 -0.0906
17011SOL    HW151611   1.345   6.025   9.932  1.0672  0.4584  1.9047
17011SOL    HW251612   1.350   5.915   9.828  0.8529  2.8970 -0.7777
17012SOL     OW51613   7.707   2.465   7.850 -0.2611 -0.1246  0.1752
17012SOL    HW151614   7.727   2.470   7.757 -0.4480 -1.1662  0.0691
17012SOL    HW251615   7.772   2.404   7.885 -1.5488 -1.4512  0.3133
17013SOL     OW51616   2.092   7.952   8.101  0.2762  0.8918  0.0406
17013SOL    HW151617   2.094   7.856   8.101 -1.3948  0.8151 -0.3079
17013SOL    HW251618   2.172   7.978   8.145  1.1241 -0.6542 -0.5127
17014SOL     OW51619   6.930   5.455   5.183  0.5854 -0.0927  0.0595
17014SOL    HW151620   6.942   5.366   5.151 -0.7627 -1.2274  2.4383
17014SOL    HW251621   6.843   5.480   5.151 -0.4836 -0.9811  2.1211
17015SOL     OW51622   8.650   3.910   2.059  0.2088 -0.0151 -0.5922
17015SOL    HW151623   8.634   3.981   2.121 -1.3115  0.5331 -1.5463
17015SOL    HW251624   8.626   3.831   2.106  2.2793  0.0146  0.6115
17016SOL     OW51625   2.096   9.563   4.365  0.4156 -0.4169 -0.1314
17016SOL    HW151626   2.166   9.534   4.308  1.0803  1.1332 -0.1502
17016SOL    HW251627   2.018   9.566   4.309  0.9107  0.4004 -0.7971
17017SOL     OW51628   6.105   9.970   6.268  0.1949 -0.1497  1.0118
17017SOL    HW151629   6.070   9.883   6.249  2.6438 -1.2572  1.1270
17017SOL    HW251630   6.036  10.014   6.319 -1.3356 -1.7837  0.4374
17018SOL     OW51631   1.450   9.263   7.023  0.2627 -0.0183 -0.0864
17018SOL    HW151632   1.501   9.262   7.104  1.2631  0.0886 -0.7049
17018SOL    HW251633   1.382   9.329   7.038  1.0971  0.7746  0.2631
17019SOL     OW51634   1.089   0.852   9.680 -0.2496 -0.5320  0.1770
17019SOL    HW151635   0.997   0.867   9.655  0.1296  1.6943 -0.1072
17019SOL    HW251636   1.118   0.782   9.622 -1.7208 -1.1732  0.1586
17020SOL     OW51637   3.308   1.795   1.680 -0.6255 -0.0443  0.5083
17020SOL    HW151638   3.391   1.757   1.707 -0.0157  0.3758 -0.6977
17020SOL    HW251639   3.242   1.733   1.709  0.2309 -1.2137  0.0343
17021SOL     OW51640   2.031   1.411   4.020  0.4987  0.0754 -0.0475
17021SOL    HW151641   1.958   1.384   4.077  0.1542 -1.1797 -1.0393
17021SOL    HW251642   2.027   1.507   4.020 -0.8359  0.0425  0.3153
17022SOL     OW51643   6.811   7.738   5.552  0.1917  0.4961 -0.3828
17022SOL    HW151644   6.847   7.810   5.604  0.1203  0.4602 -0.2838
17022SOL    HW251645   6.858   7.742   5.469  0.3558  0.5107 -0.2894
17023SOL     OW51646   0.449   9.819   0.344  0.6021 -0.0758 -0.1406
17023SOL    HW151647   0.525   9.766   0.319 -0.0467 -0.4470 -1.4114
17023SOL    HW251648   0.426   9.789   0.432 -0.2711 -2.5882 -1.1286
17024SOL     OW51649   0.050   5.539   4.552  0.3025  0.5164  0.0508
17024SOL    HW151650   0.030   5.584   4.633  1.3748 -1.3726  1.4527
17024SOL    HW251651   0.028   5.601   4.483 -1.1348  1.9838  1.7533
17025SOL     OW51652   9.603   0.494   2.200  0.0096  0.2566 -0.4017
17025SOL    HW151653   9.588   0.555   2.128 -2.4164  0.8653  0.5023
17025SOL    HW251654   9.606   0.549   2.278  0.2843 -0.5762  0.1890
17026SOL     OW51655   6.110   5.405   2.744 -0.1323 -0.1865 -0.2907
17026SOL    HW151656   6.040   5.340   2.755  1.3050 -1.6167  0.9293
17026SOL    HW251657   6.077   5.464   2.676 -3.0824 -0.0012  1.1305
17027SOL     OW51658   7.428   8.864   8.306 -0.0676 -0.5771  0.3543
17027SOL    HW151659   7.501   8.834   8.252 -1.6234  0.0780 -2.2970
17027SOL    HW251660   7.470   8.903   8.384  2.4357  0.3528 -1.3309
17028SOL     OW51661   7.212   7.725   3.618 -0.2330 -0.1692  0.2892
17028SOL    HW151662   7.186   7.802   3.668  0.2924  0.5217 -0.4666
17028SOL    HW251663   7.305   7.713   3.638  0.2756  0.7724 -1.2973
17029SOL     OW51664   7.056   8.064   0.443  0.3254 -0.5520  0.1404
17029SOL    HW151665   7.054   8.015   0.361  0.2071  0.6897 -0.6270
17029SOL    HW251666   7.149   8.080   0.459  0.2707  2.4151 -1.7967
17030SOL     OW51667   6.324   7.943   5.511  0.2719  0.1522 -0.7033
17030SOL    HW151668   6.291   8.028   5.482 -0.4055 -0.7322 -2.7073
17030SOL    HW251669   6.279   7.927   5.594  1.9548  2.6022  0.8273
17031SOL     OW51670   1.942   3.700   6.313 -0.1626  0.2972  0.1180
17031SOL    HW151671   1.975   3.645   6.241  0.1927 -0.1365  0.6068
17031SOL    HW251672   1.985   3.785   6.299 -0.0037  0.1797 -0.1162
17032SOL     OW51673   5.835   8.820   7.843 -0.5132 -0.3627 -0.1255
17032SOL    HW151674   5.881   8.799   7.762 -1.0483  3.0424 -1.4657
17032SOL    HW251675   5.881   8.897   7.877 -3.4438  1.5383 -0.1274
17033SOL     OW51676   3.221   4.570   6.576  0.2236  0.3081  0.9327
17033SOL    HW151677   3.202   4.576   6.669  0.1555 -1.3128  1.0609
17033SOL    HW251678   3.216   4.476   6.557  0.0836  0.6218 -0.7332
17034SOL     OW51679   5.700   6.210   4.677 -0.1194 -0.2507 -0.6185
17034SOL    HW151680   5.778   6.159   4.657 -1.5633 -2.4380 -0.9710
17034SOL    HW251681   5.732   6.282   4.732  2.0716 -1.2820 -0.4336
17035SOL     OW51682   1.489   2.867   0.201  0.4577 -0.0329 -0.0665
17035SOL    HW151683   1.563   2.917   0.167 -0.8301  3.3520  1.5535
17035SOL    HW251684   1.435   2.847   0.124  0.7502  1.7304 -0.7705
17036SOL     OW51685   3.832   8.163   8.924 -0.3515 -0.2642 -0.5476
17036SOL    HW151686   3.890   8.146   8.850 -0.0296  0.3937 -0.4505
17036SOL    HW251687   3.768   8.092   8.920  0.4615 -1.0144 -0.6439
17037SOL     OW51688   3.591   7.775   7.923 -0.6921  0.0704  0.2263
17037SOL    HW151689   3.618   7.866   7.918  0.9644 -0.3808  0.2565
17037SOL    HW251690   3.535   7.771   8.001  0.6853  0.7443  1.3127
17038SOL     OW51691   1.969   8.421   3.011 -0.6337  0.0556 -0.5050
17038SOL    HW151692   2.015   8.339   3.028  1.4686  1.3499  0.4863
17038SOL    HW251693   1.888   8.414   3.060 -0.2994 -1.2769 -0.1079
17039SOL     OW51694   3.546   1.858   8.079  0.0424  0.4417 -0.4021
17039SOL    HW151695   3.573   1.793   8.144  0.8324  0.9262 -0.2332
17039SOL    HW251696   3.587   1.830   7.998 -1.4469 -0.5119 -0.8712
17040SOL     OW51697   2.202   5.957   8.936 -0.0063  0.1298 -0.0217
17040SOL    HW151698   2.150   5.909   8.871 -0.2877  1.3680 -0.7327
17040SOL    HW251699   2.153   6.038   8.951  0.7601  0.4691  0.7236
17041SOL     OW51700   5.491   7.238   6.745 -0.2483  0.3613 -0.3048
17041SOL    HW151701   5.500   7.150   6.780  4.3588  0.8888  0.5163
17041SOL    HW251702   5.456   7.290   6.817  0.0277 -0.2699  0.2896
17042SOL     OW51703   5.025   8.867   4.903  0.0035 -0.4915 -0.1217
17042SOL    HW151704   4.942   8.911   4.886 -0.3130 -1.0574 -0.0668
17042SOL    HW251705   5.006   8.774   4.890  1.2885 -0.4791 -2.9751
17043SOL     OW51706   0.779   5.021   7.187  0.0256  0.3459 -0.1147
17043SOL    HW151707   0.709   4.990   7.129 -1.8486  3.3171  0.3495
17043SOL    HW251708   0.737   5.025   7.273  1.6121 -0.2788  0.7259
17044SOL     OW51709   8.264   0.250   0.998  0.2033 -0.4816 -0.3281
17044SOL    HW151710   8.318   0.174   0.972  1.1959  0.2041 -0.3266
17044SOL    HW251711   8.320   0.325   0.982 -1.4849  0.4471 -2.2557
17045SOL     OW51712   7.727   6.963   9.470  0.1277 -0.0508 -0.3934
17045SOL    HW151713   7.768   6.959   9.384 -0.6494  1.8928 -0.8976
17045SOL    HW251714   7.757   7.046   9.507 -0.6903 -0.1868  0.6085
17046SOL     OW51715   0.729   8.661   6.021 -0.1733  0.1292 -0.1185
17046SOL    HW151716   0.746   8.569   6.043  0.1570 -0.0452 -1.0442
17046SOL    HW251717   0.664   8.689   6.085 -0.7580 -0.9478 -0.2065
17047SOL     OW51718   4.507   0.372   3.917  0.0571  0.1688 -0.0564
17047SOL    HW151719   4.487   0.459   3.950  1.4789  0.3637  0.3476
17047SOL    HW251720   4.432   0.318   3.944 -0.2631  1.0011  0.7599
17048SOL     OW51721   4.276   2.865   1.602 -0.2409 -0.2790 -0.0814
17048SOL    HW151722   4.292   2.771   1.610  0.2387 -0.3575 -1.6790
17048SOL    HW251723   4.187   2.877   1.636 -0.3645 -1.3380  0.0019
17049SOL     OW51724   5.064   5.463   5.527  0.7187  0.4126  0.6319
17049SOL    HW151725   5.151   5.490   5.500  0.9329 -0.2193  0.6794
17049SOL    HW251726   5.073   5.443   5.621  0.7388 -0.5148  0.4377
17050SOL     OW51727   5.185   3.186   4.585  0.1464 -0.1999 -0.0977
17050SOL    HW151728   5.135   3.261   4.554 -1.4356 -0.3624  1.8578
17050SOL    HW251729   5.139   3.110   4.550  0.5728 -0.3039 -0.4367
17051SOL     OW51730   5.155   6.551   3.580  0.1299  0.4271  0.0328
17051SOL    HW151731   5.070   6.595   3.581 -0.7556 -1.1797 -0.6733
17051SOL    HW251732   5.143   6.477   3.520  1.6975 -0.4677  0.7621
17052SOL     OW51733   5.425   0.435   6.219  0.3420 -0.0188 -0.2997
17052SOL    HW151734   5.478   0.515   6.227  0.2190  0.1043 -0.6916
17052SOL    HW251735   5.351   0.461   6.164 -1.0158  0.2682  1.5719
17053SOL     OW51736   4.233   7.040   3.230 -0.2414  0.2799 -0.1759
17053SOL    HW151737   4.206   6.974   3.166 -2.8916  0.1493  0.9505
17053SOL    HW251738   4.324   7.018   3.250 -0.6713 -2.3277 -0.6964
17054SOL     OW51739   4.171   6.625   4.267 -0.3454 -0.0654  0.7127
17054SOL    HW151740   4.206   6.693   4.209 -2.9547  1.3765  0.7133
17054SOL    HW251741   4.248   6.573   4.290  1.2424  0.9619 -1.8009
17055SOL     OW51742   8.410   3.695   5.931  0.2504 -0.9607  0.6309
17055SOL    HW151743   8.391   3.745   5.851 -1.5300 -0.6027  1.2381
17055SOL    HW251744   8.504   3.704   5.943  0.3612  0.0384 -0.7258
17056SOL     OW51745   3.833   9.311   0.884 -0.3339 -0.0549  0.1198
17056SOL    HW151746   3.812   9.403   0.871 -0.5095  0.1993  1.9160
17056SOL    HW251747   3.926   9.304   0.865 -0.6625  0.1251 -1.6700
17057SOL     OW51748   5.015   0.552   9.713 -0.3764 -0.3202 -0.0424
17057SOL    HW151749   4.940   0.609   9.732 -2.0223 -1.7952 -1.7811
17057SOL    HW251750   5.042   0.577   9.625 -1.3027 -2.3316 -0.9512
17058SOL     OW51751   0.236   8.914   3.338  0.3038 -0.5650 -0.2821
17058SOL    HW151752   0.182   8.855   3.286 -1.0140 -0.3850  0.8426
17058SOL    HW251753   0.239   8.873   3.425  1.0822 -0.0126 -0.0383
17059SOL     OW51754   0.012   6.456   1.740  0.1305  0.9592  0.4227
17059SOL    HW151755  -0.052   6.476   1.809  0.3655 -2.2564  1.7034
17059SOL    HW251756   0.091   6.433   1.787  0.5284 -0.5926 -0.9434
17060SOL     OW51757   7.495   2.298   6.189  0.4899  0.2523  0.2548
17060SOL    HW151758   7.427   2.250   6.141  2.3613 -1.1533 -1.1104
17060SOL    HW251759   7.484   2.270   6.280 -1.0690  0.4887  0.1797
17061SOL     OW51760   7.932   2.568   6.918  0.3111 -0.0570  0.4023
17061SOL    HW151761   7.863   2.525   6.868  0.3674  1.8826 -1.4830
17061SOL    HW251762   7.939   2.517   6.998 -2.0597 -1.3707 -0.1406
17062SOL     OW51763   6.150   3.487   1.585  0.3583  0.2260  0.0755
17062SOL    HW151764   6.222   3.428   1.565  0.3199  0.0158  0.5310
17062SOL    HW251765   6.084   3.431   1.626 -0.0911  0.4045 -0.3913
17063SOL     OW51766   3.384   4.118   1.870 -0.5545 -0.2609  0.2639
17063SOL    HW151767   3.411   4.193   1.924 -1.4925  0.4839 -0.2745
17063SOL    HW251768   3.465   4.070   1.855  0.5770  1.9833 -1.4399
17064SOL     OW51769   9.462   3.644   7.360  0.3023  0.3971  0.1385
17064SOL    HW151770   9.440   3.558   7.324  0.4318  0.7523 -0.8175
17064SOL    HW251771   9.486   3.626   7.451  0.9320 -0.6646 -0.2147
17065SOL     OW51772   4.025   2.098   1.261 -0.1701 -0.2982  0.0618
17065SOL    HW151773   3.996   2.185   1.287  1.6048  0.1636  0.5858
17065SOL    HW251774   4.062   2.060   1.340  2.8810  0.1085 -1.0435
17066SOL     OW51775   6.508   3.067   1.422 -0.0467 -0.1517 -0.1235
17066SOL    HW151776   6.573   3.020   1.368  0.3089 -0.1123  0.2679
17066SOL    HW251777   6.542   3.061   1.511  0.0038  0.8502 -0.0661
17067SOL     OW51778   3.644   7.926   0.731  0.0560 -0.1577 -0.0545
17067SOL    HW151779   3.556   7.912   0.766 -0.3686 -1.0187 -1.3749
17067SOL    HW251780   3.629   7.945   0.638  1.3184 -1.6397 -0.5940
17068SOL     OW51781   5.610   6.818   9.950  0.0261  0.2904  0.1477
17068SOL    HW151782   5.609   6.904   9.910  1.3074  0.4068  0.3121
17068SOL    HW251783   5.591   6.834  10.043  0.4126  0.4167  0.2058
17069SOL     OW51784   0.716   9.529   9.333  0.4472 -0.0599  0.2038
17069SOL    HW151785   0.701   9.510   9.425 -2.1139 -0.2526 -0.1573
17069SOL    HW251786   0.648   9.592   9.310  2.4324  1.7488 -1.0710
17070SOL     OW51787   9.627   9.797   4.900  0.2080  1.1932 -0.3701
17070SOL    HW151788   9.683   9.774   4.825 -0.0701  1.5246 -0.6785
17070SOL    HW251789   9.538   9.793   4.865 -0.1552 -1.3644  0.6198
17071SOL     OW51790   1.525   1.386   0.609 -0.5803  0.1034  0.0042
17071SOL    HW151791   1.522   1.349   0.521 -0.5357 -0.6978  0.3384
17071SOL    HW251792   1.616   1.411   0.622 -0.4342 -0.4924  0.1180
17072SOL     OW51793   0.754   9.396   3.697 -0.0336 -0.2312 -0.1262
17072SOL    HW151794   0.723   9.446   3.622 -0.3222  0.7224  0.5989
17072SOL    HW251795   0.840   9.435   3.717  0.3630 -0.9580 -0.3955
17073SOL     OW51796   1.271   2.489   9.509 -0.0240 -0.5546  0.4275
17073SOL    HW151797   1.180   2.506   9.483  0.7529  2.2897 -0.8792
17073SOL    HW251798   1.321   2.558   9.465  2.1482  1.5225  5.4633
17074SOL     OW51799   7.738   2.635   0.536 -0.7468  0.1269 -0.6935
17074SOL    HW151800   7.754   2.564   0.599 -0.3471  1.3988  0.6838
17074SOL    HW251801   7.659   2.678   0.568  1.0710  2.6357  0.7522
17075SOL     OW51802   6.460   0.952   7.132 -0.0046 -0.1807  0.3623
17075SOL    HW151803   6.387   0.892   7.118 -0.7704  0.6276  0.8078
17075SOL    HW251804   6.427   1.018   7.192  1.0022  0.3735  0.3439
17076SOL     OW51805   0.895   4.622   8.125 -0.2165  0.0131  0.2600
17076SOL    HW151806   0.945   4.541   8.128 -2.0392 -1.1234  2.0781
17076SOL    HW251807   0.912   4.664   8.209 -1.9244 -0.2002  0.7524
17077SOL     OW51808   9.064   6.954   6.411  0.4112 -0.1666  0.3633
17077SOL    HW151809   9.003   6.969   6.483 -0.8980 -0.6430 -0.6048
17077SOL    HW251810   9.054   7.030   6.354  0.8209 -0.1900  0.2522
17078SOL     OW51811   6.816   2.184   5.170  0.5496 -0.7921 -0.0349
17078SOL    HW151812   6.874   2.235   5.113 -0.6391  0.8502  0.1497
17078SOL    HW251813   6.813   2.233   5.252 -1.6635 -0.3583 -0.2962
17079SOL     OW51814   3.414   1.848   2.888  0.0301  0.3557  0.2928
17079SOL    HW151815   3.320   1.853   2.904  0.6592  1.6001  4.9169
17079SOL    HW251816   3.440   1.763   2.923  0.7973  0.6137  0.3725
17080SOL     OW51817   7.560   6.148   1.281  0.0008 -0.2030  0.2023
17080SOL    HW151818   7.599   6.113   1.361  1.5966  1.0631  0.0437
17080SOL    HW251819   7.541   6.240   1.302 -0.8103 -0.2026 -0.4637
17081SOL     OW51820   5.901   8.065   5.602 -0.1854  0.2533  0.3655
17081SOL    HW151821   5.918   8.051   5.696 -0.0096  0.7598  0.4129
17081SOL    HW251822   5.818   8.112   5.600 -0.6380 -0.5332  0.2204
17082SOL     OW51823   3.063   4.087   8.671 -0.3527  0.4288 -0.5092
17082SOL    HW151824   3.088   4.016   8.613  1.8777  0.1186  0.7618
17082SOL    HW251825   2.973   4.066   8.697 -0.3753 -0.9150 -1.5695
17083SOL     OW51826   1.496   0.199   6.768 -0.4181 -0.6607 -0.4765
17083SOL    HW151827   1.501   0.294   6.774  1.8593 -0.8264  2.8875
17083SOL    HW251828   1.406   0.178   6.793 -0.4109  0.5421  0.6136
17084SOL     OW51829   7.843   8.355   3.843 -0.5281 -0.0016 -0.6773
17084SOL    HW151830   7.898   8.277   3.855 -0.1544  0.3692  0.0453
17084SOL    HW251831   7.830   8.360   3.748 -0.6187 -0.9830 -0.7340
17085SOL     OW51832   8.566   0.462   1.985 -0.0529 -0.1516 -0.1762
17085SOL    HW151833   8.546   0.554   2.001  1.0667  0.1936 -0.6619
17085SOL    HW251834   8.594   0.460   1.893  0.8205 -0.8083  0.0893
17086SOL     OW51835   0.910   1.426   1.028  0.2534  0.2481  0.0451
17086SOL    HW151836   0.941   1.515   1.012  2.1732  0.0513  2.0590
17086SOL    HW251837   0.820   1.425   0.995  0.9183  2.2196 -2.0795
17087SOL     OW51838   4.462   1.995   0.334 -0.1727  0.6275  0.3365
17087SOL    HW151839   4.437   1.903   0.347  1.3958  0.4540  2.8850
17087SOL    HW251840   4.384   2.045   0.358 -1.3005  0.0318 -1.8141
17088SOL     OW51841   6.436   0.334   3.728 -0.0050 -0.1670 -0.2077
17088SOL    HW151842   6.415   0.380   3.647  1.6583  0.7847 -0.1521
17088SOL    HW251843   6.498   0.266   3.702 -1.0361 -1.1914 -0.0205
17089SOL     OW51844   2.383   8.500   1.636  0.4038 -0.1008  0.3033
17089SOL    HW151845   2.310   8.488   1.697  0.0685  0.3372 -0.0011
17089SOL    HW251846   2.427   8.415   1.634  2.1401  0.5893  3.3018
17090SOL     OW51847   7.773   6.872   8.081  0.6006  0.7755 -0.4619
17090SOL    HW151848   7.847   6.885   8.139  0.5534  2.6973 -0.7591
17090SOL    HW251849   7.810   6.830   8.003  0.8118 -0.9831  0.5415
17091SOL     OW51850   1.436   1.925   7.731  0.4750 -0.2319 -0.0308
17091SOL    HW151851   1.385   1.996   7.771  0.8957 -0.8534  1.7093
17091SOL    HW251852   1.384   1.846   7.747  1.3153 -0.6823  0.5455
17092SOL     OW51853   2.995   3.393   1.827  0.0583 -0.5393 -0.5240
17092SOL    HW151854   2.983   3.328   1.896  2.4677 -1.3216 -0.7397
17092SOL    HW251855   2.953   3.472   1.861 -1.4092 -1.6884  0.5025
17093SOL     OW51856   2.099   2.863   3.736  0.2814  0.0286  0.2534
17093SOL    HW151857   2.026   2.847   3.796 -0.9748  1.5877 -0.7715
17093SOL    HW251858   2.066   2.929   3.675  2.2645  0.1253 -0.8031
17094SOL     OW51859   7.017   5.660   8.104  0.2386  0.0150 -0.2630
17094SOL    HW151860   6.939   5.716   8.097 -0.3413 -0.7966 -0.4041
17094SOL    HW251861   7.020   5.613   8.021  0.8828  0.0262 -0.2532
17095SOL     OW51862   7.433   3.317   7.358  0.3278 -0.4608  0.1224
17095SOL    HW151863   7.503   3.334   7.295 -2.0035 -0.4269 -2.6801
17095SOL    HW251864   7.478   3.292   7.439  3.5017 -0.8899 -1.6436
17096SOL     OW51865   4.239   3.550   5.569  0.2849 -0.0450 -0.4590
17096SOL    HW151866   4.286   3.471   5.596 -0.4329 -0.0486  0.8234
17096SOL    HW251867   4.206   3.588   5.650  1.4474  2.1490 -0.9233
17097SOL     OW51868   2.285   0.645   6.095  0.0951  0.5685  0.1692
17097SOL    HW151869   2.204   0.682   6.128  0.3746  3.5647 -2.1509
17097SOL    HW251870   2.350   0.715   6.105  1.8022 -0.8343 -0.4083
17098SOL     OW51871   8.153   2.240   9.813 -0.1579 -0.0349 -0.1024
17098SOL    HW151872   8.076   2.184   9.826 -0.3760  0.4865  0.9036
17098SOL    HW251873   8.118   2.318   9.770 -0.6549  1.2465  2.4504
17099SOL     OW51874   6.566   1.189   0.781  0.1374 -0.5603  0.2768
17099SOL    HW151875   6.617   1.145   0.712  0.1331  0.1821 -0.2091
17099SOL    HW251876   6.544   1.274   0.743 -1.8786 -1.0358  0.2832
17100SOL     OW51877   0.366   1.493   6.353  0.0234 -0.0299  0.2324
17100SOL    HW151878   0.394   1.487   6.261  0.2806  2.3837  0.1012
17100SOL    HW251879   0.271   1.498   6.349  0.0411  0.2018  0.0850
17101SOL     OW51880   2.792   2.244   3.162  0.3193 -0.0914  0.1442
17101SOL    HW151881   2.766   2.173   3.104  1.7034 -0.6229  0.1394
17101SOL    HW251882   2.795   2.321   3.105  0.5057 -0.3704 -0.2264
17102SOL     OW51883   9.521   9.920   5.139 -0.1989  0.5138 -0.1286
17102SOL    HW151884   9.587   9.989   5.126 -0.2447  0.7074  0.6071
17102SOL    HW251885   9.535   9.860   5.066  0.4898  0.7956 -0.2429
17103SOL     OW51886   2.131   8.509   6.647 -0.0061 -0.2121  0.0103
17103SOL    HW151887   2.097   8.492   6.559  0.3203  0.8858 -0.3376
17103SOL    HW251888   2.110   8.429   6.696 -1.1704 -0.4126 -0.7657
17104SOL     OW51889   6.091   6.192   4.512 -0.0183 -0.1488  0.3579
17104SOL    HW151890   6.183   6.178   4.535  0.4928  1.9916 -0.1669
17104SOL    HW251891   6.077   6.135   4.436  1.2047  0.2806 -0.2243
17105SOL     OW51892   2.384   1.269   5.252  0.0378 -0.0698 -0.5232
17105SOL    HW151893   2.354   1.312   5.332 -0.6421  2.5329 -2.0588
17105SOL    HW251894   2.479   1.266   5.261 -0.1522 -3.5917  2.0747
17106SOL     OW51895   1.338   6.126   1.817  0.0544 -0.3891  0.1341
17106SOL    HW151896   1.295   6.047   1.850 -1.0742 -0.3567 -1.1422
17106SOL    HW251897   1.426   6.097   1.791  0.3181 -0.7875  1.4135
17107SOL     OW51898   4.544   1.995   8.920 -0.6413 -0.1086 -0.4721
17107SOL    HW151899   4.628   2.010   8.965 -2.2198 -0.2762  2.8238
17107SOL    HW251900   4.560   1.918   8.865  1.9733  1.3308 -1.9432
17108SOL     OW51901   2.701   9.255   5.766  0.2723 -0.5434 -0.1604
17108SOL    HW151902   2.615   9.262   5.724  0.3495 -0.0801 -0.2419
17108SOL    HW251903   2.761   9.299   5.705  0.3392  0.3850  0.5591
17109SOL     OW51904   9.808   7.635   9.413 -0.1228 -0.1154 -0.3082
17109SOL    HW151905   9.729   7.685   9.433 -1.2818 -1.8863 -0.2452
17109SOL    HW251906   9.782   7.543   9.423  1.5119 -0.8131 -1.8193
17110SOL     OW51907   1.425   1.468   6.683 -0.0251 -0.0183 -0.1768
17110SOL    HW151908   1.449   1.551   6.642  0.6715  0.8946  1.9297
17110SOL    HW251909   1.492   1.406   6.652 -0.1480  0.3499 -1.2263
17111SOL     OW51910   7.500   5.181   8.450 -0.0600 -0.4822 -0.1681
17111SOL    HW151911   7.485   5.152   8.359  1.0157 -1.0507 -0.1826
17111SOL    HW251912   7.504   5.099   8.500 -0.8631 -0.1591  0.4353
17112SOL     OW51913   0.628   7.994   8.558  0.7648  0.1876 -0.1577
17112SOL    HW151914   0.647   8.038   8.641  1.2280 -0.4578  0.0819
17112SOL    HW251915   0.633   8.064   8.493 -1.0752  1.0144  0.5116
17113SOL     OW51916   3.005   3.240   5.678  0.4316  0.1919  0.5732
17113SOL    HW151917   3.045   3.154   5.674 -1.4099 -0.6756 -0.5796
17113SOL    HW251918   2.954   3.247   5.597 -2.5570  0.7390  2.3485
17114SOL     OW51919   5.504   4.731   0.421 -0.7327  0.2606  0.0823
17114SOL    HW151920   5.492   4.652   0.368  0.0578 -0.5652  1.0944
17114SOL    HW251921   5.420   4.743   0.465 -0.3961 -0.9732  1.1479
17115SOL     OW51922   3.232   2.507   9.497 -0.3055 -0.2589  0.1616
17115SOL    HW151923   3.263   2.594   9.521  0.7845  0.2280 -2.5740
17115SOL    HW251924   3.269   2.449   9.564 -0.5177  1.2721  1.6700
17116SOL     OW51925   0.172   0.541   6.206  0.4034 -0.1311  0.0053
17116SOL    HW151926   0.100   0.506   6.153 -1.0009  0.1502  1.6314
17116SOL    HW251927   0.129   0.588   6.278  2.2255  1.7689 -0.0416
17117SOL     OW51928   0.008   3.367   4.222  0.4011  0.2193  0.0491
17117SOL    HW151929   0.083   3.415   4.258  1.1115  1.3207 -2.6368
17117SOL    HW251930   0.044   3.320   4.146 -1.3598 -0.4194 -0.4457
17118SOL     OW51931   1.598   9.425   1.529 -0.0986  0.0561  0.2828
17118SOL    HW151932   1.598   9.349   1.588 -0.3401  0.3620  0.6854
17118SOL    HW251933   1.642   9.494   1.579  1.6186 -0.2634 -0.6912
17119SOL     OW51934   4.906   5.678   5.102  0.4210  0.1551  0.4055
17119SOL    HW151935   4.834   5.713   5.155  0.0138 -0.4904  0.2878
17119SOL    HW251936   4.904   5.730   5.022 -1.8805 -1.7676 -0.9239
17120SOL     OW51937   3.272   2.086   0.847  0.1325  0.1799  0.5565
17120SOL    HW151938   3.330   2.054   0.778 -0.0632  0.4401  0.2686
17120SOL    HW251939   3.318   2.065   0.928 -0.2248 -1.2772  0.4017
17121SOL     OW51940   6.019   9.662   8.741  0.4084  0.7696 -0.3198
17121SOL    HW151941   6.052   9.699   8.823  0.9352 -0.8765  0.2482
17121SOL    HW251942   5.936   9.620   8.765  0.2704  0.7817 -0.7611
17122SOL     OW51943   9.607   1.125   9.618  0.2447  0.1214 -0.2897
17122SOL    HW151944   9.667   1.148   9.547 -0.8144  1.1079 -0.8955
17122SOL    HW251945   9.519   1.137   9.580 -0.3683 -1.8257  0.3849
17123SOL     OW51946   2.767   2.233   6.097  0.4374  0.2671  0.0917
17123SOL    HW151947   2.727   2.159   6.051 -0.6925  0.7578  0.2649
17123SOL    HW251948   2.845   2.253   6.045 -0.0887 -0.0483 -0.8556
17124SOL     OW51949   1.340   7.047   0.783 -0.1545 -0.0797  0.2630
17124SOL    HW151950   1.413   7.030   0.724 -1.4934 -2.0968 -0.9263
17124SOL    HW251951   1.293   7.119   0.743 -0.5496 -0.8464 -0.6738
17125SOL     OW51952   8.276   6.018   7.112  0.0752 -0.3020  0.6780
17125SOL    HW151953   8.201   6.068   7.078  0.7016  1.3387  1.6213
17125SOL    HW251954   8.237   5.937   7.144 -0.6874 -1.5711 -2.9206
17126SOL     OW51955   4.644   5.721   9.055  0.2315 -0.0553  0.2574
17126SOL    HW151956   4.734   5.745   9.034 -0.1489 -0.1882 -1.7172
17126SOL    HW251957   4.637   5.628   9.033 -0.9099  0.4318 -1.7222
17127SOL     OW51958   1.915   4.101   2.109 -0.7091  0.1114  0.5289
17127SOL    HW151959   1.980   4.167   2.084 -2.2520  0.9870 -1.5114
17127SOL    HW251960   1.967   4.026   2.137  1.1529  1.1668  0.1059
17128SOL     OW51961   9.918   5.973   1.069  0.3851  0.0221  0.0593
17128SOL    HW151962   9.880   5.912   1.006  1.6381 -0.5519 -0.1780
17128SOL    HW251963   9.970   5.917   1.128  2.3368  0.9068 -0.7353
17129SOL     OW51964   4.033   4.071   9.716  0.3031 -0.1787  0.1922
17129SOL    HW151965   4.024   3.977   9.700  0.4228 -0.4143  1.4048
17129SOL    HW251966   4.126   4.088   9.708  0.1364  0.1579 -1.5280
17130SOL     OW51967   4.586   7.723   2.417  0.1081  0.1305 -0.0346
17130SOL    HW151968   4.528   7.660   2.374  0.7131  0.6454 -1.6801
17130SOL    HW251969   4.669   7.715   2.370  0.6695  1.0184  0.7781
17131SOL     OW51970   4.237   5.189   7.496  0.0112 -0.1724 -0.0364
17131SOL    HW151971   4.303   5.149   7.439  0.2305  0.8529 -0.5272
17131SOL    HW251972   4.197   5.257   7.442 -0.9579 -0.3019  0.4987
17132SOL     OW51973   6.197   8.326   4.154 -0.0640 -0.1613  0.1219
17132SOL    HW151974   6.268   8.367   4.203  1.1510  0.6623 -2.1464
17132SOL    HW251975   6.120   8.379   4.175  0.7172  1.0406  0.0875
17133SOL     OW51976   9.367   5.235   1.994 -0.5173  0.3977  0.3504
17133SOL    HW151977   9.321   5.152   1.981  0.0973  0.0370  0.4360
17133SOL    HW251978   9.427   5.241   1.920 -0.4421  0.6861  0.4339
17134SOL     OW51979   7.822   8.086   7.074 -0.0137  0.1477  0.6696
17134SOL    HW151980   7.843   8.157   7.135  1.1603  0.8159 -0.4600
17134SOL    HW251981   7.860   8.008   7.114  1.5702  0.7384  0.3875
17135SOL     OW51982   7.490   7.712   8.015 -0.0358  0.2359  0.1457
17135SOL    HW151983   7.425   7.718   8.085 -0.7478  0.4769 -0.5192
17135SOL    HW251984   7.449   7.756   7.941  1.0446  0.7346 -0.1782
17136SOL     OW51985   6.187   4.657   0.098 -0.2636 -0.1315 -0.0794
17136SOL    HW151986   6.172   4.742   0.140  0.8730 -0.7960  1.7642
17136SOL    HW251987   6.259   4.672   0.037  0.6805  0.0027  1.0510
17137SOL     OW51988   1.690   5.422   6.245  0.1343  0.0707  0.4284
17137SOL    HW151989   1.649   5.357   6.302 -1.8470  0.4134 -0.5302
17137SOL    HW251990   1.678   5.388   6.157  1.5592  0.4234  0.0792
17138SOL     OW51991   5.798   7.804   6.768 -0.3405 -0.6275  0.0604
17138SOL    HW151992   5.703   7.803   6.775 -0.4789 -4.4070 -0.4817
17138SOL    HW251993   5.827   7.858   6.841 -2.8481 -0.1801  0.8255
17139SOL     OW51994   8.522   3.145   1.131 -0.3435  0.0242 -0.3223
17139SOL    HW151995   8.563   3.231   1.134  2.0485 -1.0461  0.8834
17139SOL    HW251996   8.545   3.110   1.045  1.1695 -0.4442  0.2289
17140SOL     OW51997   7.042   7.046   1.022 -0.0471 -0.2611  0.2562
17140SOL    HW151998   7.077   7.115   1.079  2.3216 -0.3755 -0.9350
17140SOL    HW251999   6.992   7.093   0.955 -0.1544  0.1298  0.6075
17141SOL     OW52000   1.070   4.992   0.099 -0.4617 -0.1901  0.4779
17141SOL    HW152001   1.160   4.967   0.078 -1.3038 -1.6036 -1.9416
17141SOL    HW252002   1.064   5.084   0.072  0.7353  0.5550  2.5626
17142SOL     OW52003   7.339   2.723   8.328  0.1133 -0.6029  0.1200
17142SOL    HW152004   7.369   2.811   8.349  1.3447 -0.5755 -1.5590
17142SOL    HW252005   7.417   2.678   8.294 -0.3931 -2.4731  1.2913
17143SOL     OW52006   6.460   5.611   2.638  0.1700  0.3751 -0.1556
17143SOL    HW152007   6.547   5.590   2.605 -1.2066 -0.3601 -3.7687
17143SOL    HW252008   6.410   5.530   2.628 -1.5758  1.4731 -0.7116
17144SOL     OW52009   0.409   2.259   5.810 -0.2210 -0.0544  0.1131
17144SOL    HW152010   0.370   2.217   5.733 -0.1616  1.1152 -0.5764
17144SOL    HW252011   0.395   2.197   5.881  1.0421 -1.8435 -1.1183
17145SOL     OW52012   7.975   4.625   7.709 -0.4394  0.0394 -0.0670
17145SOL    HW152013   7.962   4.539   7.668  1.3262  0.1378 -0.9395
17145SOL    HW252014   8.038   4.608   7.779  1.0073  0.7882 -1.1186
17146SOL     OW52015   0.503   4.660   6.859  0.8602 -0.0939  0.3418
17146SOL    HW152016   0.518   4.566   6.874  2.3274  0.0384 -0.0705
17146SOL    HW252017   0.553   4.703   6.928 -0.3045  0.3938  0.8945
17147SOL     OW52018   6.910   9.654   2.229  0.1303 -0.5346  0.2243
17147SOL    HW152019   6.877   9.723   2.287 -1.1894  0.6255 -1.8150
17147SOL    HW252020   6.995   9.631   2.267 -0.2850  0.7582  2.1240
17148SOL     OW52021   6.262   2.178   2.255  0.1972 -0.1031  0.4064
17148SOL    HW152022   6.186   2.211   2.207  0.0512 -0.7365  0.1878
17148SOL    HW252023   6.285   2.097   2.210  1.8881  0.7832 -0.4107
17149SOL     OW52024   2.990   7.049   4.849 -0.0577 -0.2596 -0.0049
17149SOL    HW152025   3.039   7.129   4.870 -0.1050 -0.3706  0.5469
17149SOL    HW252026   2.984   7.003   4.932 -1.7010  0.0675  0.0815
17150SOL     OW52027   9.805   0.087   8.355 -0.2909  0.2199 -0.3386
17150SOL    HW152028   9.852   0.026   8.411 -2.1774 -0.7265  0.2627
17150SOL    HW252029   9.831   0.063   8.266  0.5231 -0.1212 -0.0156
17151SOL     OW52030   9.423   6.720   0.859 -0.6448  0.1976 -0.0791
17151SOL    HW152031   9.332   6.696   0.841  0.3156 -2.4626 -1.9917
17151SOL    HW252032   9.450   6.659   0.928  0.0722 -0.0163 -0.5397
17152SOL     OW52033   0.228   6.545   4.915 -0.2458 -0.2499  0.1814
17152SOL    HW152034   0.207   6.517   5.004 -2.3087  0.1365 -0.1446
17152SOL    HW252035   0.150   6.591   4.885  1.0783  1.2107 -1.2066
17153SOL     OW52036   7.658   6.419   5.235 -0.3179 -0.0778  0.5987
17153SOL    HW152037   7.750   6.426   5.261 -0.2402 -0.9315  0.6014
17153SOL    HW252038   7.650   6.476   5.160  0.0823  0.4369  0.9415
17154SOL     OW52039   5.710   9.495   8.841  0.0660  0.1089 -0.1965
17154SOL    HW152040   5.646   9.458   8.902  0.4513  1.0549  0.8271
17154SOL    HW252041   5.795   9.475   8.879  0.3133  0.7326 -0.3948
17155SOL     OW52042   6.592   2.698   1.811  0.3659  0.0062  0.2892
17155SOL    HW152043   6.672   2.750   1.804 -0.4951  1.4523  0.9869
17155SOL    HW252044   6.567   2.702   1.903 -0.3673 -0.6642  0.1365
17156SOL     OW52045   4.467   5.370   4.975  0.4926 -0.3751  0.3597
17156SOL    HW152046   4.465   5.301   4.909 -1.1686 -1.2416  1.2454
17156SOL    HW252047   4.391   5.353   5.029  0.7389  1.4500  1.3595
17157SOL     OW52048   7.567   4.036   6.161  0.5781  0.2098 -0.7410
17157SOL    HW152049   7.568   3.977   6.236  0.0771 -0.9050 -1.5882
17157SOL    HW252050   7.574   4.124   6.199 -3.4431 -0.0076  0.9613
17158SOL     OW52051   1.303   2.592   1.458 -0.0149  0.0854 -0.1044
17158SOL    HW152052   1.323   2.675   1.415  0.1266 -1.2460 -2.7694
17158SOL    HW252053   1.225   2.559   1.413 -0.2139 -1.1269  1.0705
17159SOL     OW52054   4.778   1.242   4.792  0.3595 -0.6688 -0.4989
17159SOL    HW152055   4.683   1.247   4.782  0.4083  0.2485 -0.5536
17159SOL    HW252056   4.793   1.156   4.831 -0.3428 -1.5846 -2.1418
17160SOL     OW52057   4.338   5.050   2.740  0.3730 -0.0126  0.3292
17160SOL    HW152058   4.258   4.997   2.736 -0.2574  1.0074 -1.0841
17160SOL    HW252059   4.409   4.985   2.742 -0.3403 -0.9556 -2.0449
17161SOL     OW52060   9.456   2.688   6.435  0.0180 -0.4313  0.3518
17161SOL    HW152061   9.368   2.699   6.470 -0.1959 -0.0369 -0.2836
17161SOL    HW252062   9.448   2.709   6.342  0.6214 -1.1790  0.1158
17162SOL     OW52063   2.702   3.191   9.086 -0.0824 -0.1511 -0.1730
17162SOL    HW152064   2.649   3.265   9.055 -0.6982  0.0933  1.3861
17162SOL    HW252065   2.784   3.199   9.038 -1.0940 -0.0149 -2.0016
17163SOL     OW52066   0.244   1.219   8.311 -0.2156  0.2640  0.5974
17163SOL    HW152067   0.160   1.245   8.349 -0.0275 -0.5533  1.6331
17163SOL    HW252068   0.304   1.220   8.385  0.1646 -1.3893  0.3624
17164SOL     OW52069   8.671   7.358   8.161  0.0191 -0.1136 -0.0749
17164SOL    HW152070   8.747   7.416   8.162 -1.2053  1.6922 -2.1418
17164SOL    HW252071   8.596   7.415   8.180 -1.0915 -1.3091 -0.6558
17165SOL     OW52072   9.072   8.217   0.837 -0.6003  0.1229 -0.1162
17165SOL    HW152073   9.000   8.181   0.889 -0.4114  0.1496  0.1657
17165SOL    HW252074   9.150   8.200   0.889 -0.3885 -0.0083 -0.4770
17166SOL     OW52075   3.039   6.484   6.948 -0.0403 -0.4405 -0.5708
17166SOL    HW152076   3.079   6.461   7.031 -0.9064 -1.1126 -0.3179
17166SOL    HW252077   3.103   6.457   6.882 -0.8284 -3.3913 -0.2724
17167SOL     OW52078   4.423   0.608   4.043  0.2071  0.3611 -0.0278
17167SOL    HW152079   4.477   0.653   4.107 -1.3410  2.3665 -0.0159
17167SOL    HW252080   4.333   0.619   4.075 -0.3537 -2.0053 -0.5382
17168SOL     OW52081   0.880   7.924   9.855 -1.0642 -0.2599  0.2513
17168SOL    HW152082   0.905   7.850   9.800  0.5413  1.5468 -1.6142
17168SOL    HW252083   0.902   8.001   9.803 -2.5688  1.5713  2.1408
17169SOL     OW52084   5.959   5.674   8.807 -0.0539 -0.8546 -0.1492
17169SOL    HW152085   5.872   5.711   8.817 -0.4198 -1.7302 -0.0367
17169SOL    HW252086   6.016   5.736   8.853 -0.1974  1.2125 -2.5621
17170SOL     OW52087   2.607   2.145   6.284 -0.7148  0.0150 -0.5560
17170SOL    HW152088   2.675   2.199   6.244  0.9030 -1.4459  0.0489
17170SOL    HW252089   2.535   2.205   6.302  0.2250  1.5418 -1.6429
17171SOL     OW52090   9.475   7.756   2.327  0.2557 -0.3764 -0.3580
17171SOL    HW152091   9.538   7.699   2.372  0.2472  0.1128  0.2859
17171SOL    HW252092   9.389   7.720   2.350  0.1756  0.7706  1.3221
17172SOL     OW52093   7.040   8.031   9.073  0.4049  0.4555  0.1798
17172SOL    HW152094   7.079   7.946   9.052 -2.4174 -0.6859 -0.8474
17172SOL    HW252095   7.039   8.033   9.169  0.2379 -0.8379  0.2290
17173SOL     OW52096   6.199   5.239   9.730  0.1786 -0.2484  0.0093
17173SOL    HW152097   6.182   5.247   9.824  1.6967  0.9147  0.2223
17173SOL    HW252098   6.120   5.272   9.689 -0.2382 -0.1120  0.8904
17174SOL     OW52099   4.281   8.892   0.613 -0.2554  0.2636 -0.1511
17174SOL    HW152100   4.260   8.807   0.574 -0.0799  0.1900 -0.0877
17174SOL    HW252101   4.202   8.918   0.659  0.2157 -0.6432  1.2295
17175SOL     OW52102   4.325   8.078   3.173 -0.0925 -0.2757 -0.2483
17175SOL    HW152103   4.244   8.111   3.212 -0.2093 -1.2078  0.3469
17175SOL    HW252104   4.307   8.074   3.079 -0.3517  0.5623 -0.2388
17176SOL     OW52105   3.381   6.412   3.578 -0.0801 -0.1762 -0.0915
17176SOL    HW152106   3.428   6.334   3.550  1.1782 -0.1520  1.7631
17176SOL    HW252107   3.438   6.485   3.551  0.4555 -0.0956  1.1903
17177SOL     OW52108   7.685   0.372   2.116  0.0603 -0.3920  1.3395
17177SOL    HW152109   7.691   0.282   2.084  3.3174 -0.4266  1.6450
17177SOL    HW252110   7.689   0.363   2.211  0.1936  0.0371  1.3751
17178SOL     OW52111   5.565   8.386   7.746  0.3417  0.1134 -0.3565
17178SOL    HW152112   5.588   8.474   7.777 -1.1038  0.0670  0.9606
17178SOL    HW252113   5.543   8.338   7.826 -0.3736 -1.0018 -1.2029
17179SOL     OW52114   0.539   2.614   8.477  0.0197 -0.1543 -0.3687
17179SOL    HW152115   0.483   2.601   8.554 -0.5963  0.2506 -0.7395
17179SOL    HW252116   0.547   2.527   8.438 -0.9754 -0.0901 -0.7350
17180SOL     OW52117   3.530   4.273   4.516 -0.0065  0.1027 -0.1560
17180SOL    HW152118   3.595   4.286   4.447  0.4971 -1.5889 -0.0456
17180SOL    HW252119   3.575   4.300   4.596  0.7390 -1.4011 -0.0301
17181SOL     OW52120   2.581   5.497   3.398  0.0592  0.2780  0.0241
17181SOL    HW152121   2.516   5.431   3.373  0.0690  0.8048 -1.4905
17181SOL    HW252122   2.637   5.506   3.321  1.7413  0.0967  1.1772
17182SOL     OW52123   0.651   9.436   4.127 -0.3221  0.1195  0.5096
17182SOL    HW152124   0.620   9.482   4.205 -1.5824 -0.1433  0.1864
17182SOL    HW252125   0.692   9.357   4.160 -0.9568 -0.0467  0.9061
17183SOL     OW52126   4.219   4.772   2.460  0.0483 -0.1458 -0.3545
17183SOL    HW152127   4.135   4.762   2.415  0.3291  0.1699 -0.9617
17183SOL    HW252128   4.271   4.697   2.430  0.3900  0.3013 -0.9307
17184SOL     OW52129   1.741   1.456   3.025 -0.3065  0.7032 -0.7562
17184SOL    HW152130   1.653   1.423   3.009 -0.4318  1.5347 -1.9325
17184SOL    HW252131   1.779   1.466   2.937  0.4667  1.6415 -0.3354
17185SOL     OW52132   0.367   9.722   0.582 -0.1334 -0.2814 -0.0239
17185SOL    HW152133   0.347   9.800   0.634  0.5850 -0.6098  0.7713
17185SOL    HW252134   0.290   9.666   0.593  0.3868 -0.7472  1.4779
17186SOL     OW52135   5.873   9.382   0.584 -0.6465  0.7725 -0.1227
17186SOL    HW152136   5.927   9.427   0.519  0.8420  1.5565  1.5674
17186SOL    HW252137   5.867   9.292   0.553  0.1202  1.1096 -1.2892
17187SOL     OW52138   7.801   6.568   7.329  0.2325 -0.2947  0.3003
17187SOL    HW152139   7.881   6.608   7.295  0.5768 -0.5855  0.7464
17187SOL    HW252140   7.767   6.633   7.391  0.8188 -0.6939  1.0634
17188SOL     OW52141   4.640   3.339   1.886 -0.4006  0.4598  0.4656
17188SOL    HW152142   4.735   3.336   1.879 -0.1612  0.0006  2.9974
17188SOL    HW252143   4.622   3.421   1.933 -1.0290 -0.5901  2.1432
17189SOL     OW52144   3.721   9.780   3.532 -0.3419  0.1461 -0.6095
17189SOL    HW152145   3.793   9.843   3.525 -0.4980  0.9202  2.8889
17189SOL    HW252146   3.641   9.833   3.527 -0.5727 -0.2033 -0.7085
17190SOL     OW52147   5.376   3.483   9.095 -0.3860 -0.1997  0.0973
17190SOL    HW152148   5.364   3.441   9.010 -0.5548  0.6915 -0.3253
17190SOL    HW252149   5.315   3.557   9.094 -2.8084 -1.9647  2.2281
17191SOL     OW52150   7.343   7.697   8.277 -0.1016  0.2706  0.7008
17191SOL    HW152151   7.369   7.723   8.365  1.4804  1.2693 -0.0319
17191SOL    HW252152   7.269   7.755   8.256 -0.8251 -0.3150  1.5233
17192SOL     OW52153   9.093   4.437   3.665  0.7306  0.0162  0.2184
17192SOL    HW152154   9.030   4.366   3.679  1.3893 -0.3112  1.7118
17192SOL    HW252155   9.160   4.398   3.609  0.5942 -0.2323  0.2262
17193SOL     OW52156   6.706   3.042   1.158 -0.2055 -0.2589  0.2401
17193SOL    HW152157   6.768   3.027   1.087  0.3037 -1.6812  0.9365
17193SOL    HW252158   6.711   3.136   1.176  1.5995 -0.3049  0.1345
17194SOL     OW52159   4.891   4.211   8.955 -0.4796  0.2589 -0.3901
17194SOL    HW152160   4.874   4.290   8.903  1.4296  1.0090  0.0476
17194SOL    HW252161   4.986   4.210   8.966 -0.5888 -1.4541  0.6489
17195SOL     OW52162   5.730   5.725   9.284 -0.1247  0.2578 -0.2870
17195SOL    HW152163   5.681   5.717   9.366 -0.7795  0.2493 -0.6642
17195SOL    HW252164   5.765   5.814   9.286  0.0080  0.1971  0.0823
17196SOL     OW52165   6.811   5.820   0.279 -0.5442 -0.7019 -0.1752
17196SOL    HW152166   6.787   5.749   0.219  1.1318  0.7984 -2.8198
17196SOL    HW252167   6.727   5.861   0.302 -1.2391 -1.1998 -1.6785
17197SOL     OW52168   8.777   9.881   1.562 -0.8791 -0.2845  0.1562
17197SOL    HW152169   8.785   9.827   1.483 -0.8762  0.8285 -0.6186
17197SOL    HW252170   8.860   9.869   1.608 -0.8388 -0.8489 -0.0540
17198SOL     OW52171   9.236   7.401   4.987 -0.9527  0.2222 -0.7163
17198SOL    HW152172   9.278   7.451   4.917 -0.9262  1.1918 -0.0165
17198SOL    HW252173   9.194   7.466   5.042 -2.1317 -0.6328 -0.5681
17199SOL     OW52174   0.861   5.432   5.268 -0.1791  0.3287  0.4834
17199SOL    HW152175   0.768   5.454   5.274 -0.4716 -0.5536 -0.4370
17199SOL    HW252176   0.865   5.364   5.200  1.0422 -0.1989  1.0506
17200SOL     OW52177   0.672   7.346   3.131 -0.0514 -0.2239 -0.2134
17200SOL    HW152178   0.612   7.374   3.200 -0.4482  0.4559 -0.8323
17200SOL    HW252179   0.672   7.417   3.068  2.4477  0.4169  0.4122
17201SOL     OW52180   8.170   1.393   0.545 -0.5141  0.0609  0.2882
17201SOL    HW152181   8.206   1.402   0.633 -0.0088  0.9922 -0.0070
17201SOL    HW252182   8.208   1.311   0.512 -0.1195  0.0980  0.6522
17202SOL     OW52183   7.627   1.972   4.568  0.0260 -0.4290  0.1563
17202SOL    HW152184   7.718   1.957   4.542  0.0972 -0.7685  0.6048
17202SOL    HW252185   7.622   2.067   4.580 -0.4779  0.0450 -2.8742
17203SOL     OW52186   9.436   3.206   2.226  0.1745  0.1315 -0.0816
17203SOL    HW152187   9.371   3.166   2.169  0.3379  1.2597 -1.0926
17203SOL    HW252188   9.398   3.200   2.314 -0.3531 -1.0697 -0.3756
17204SOL     OW52189   6.235   7.950   7.114 -0.0641  0.6018 -0.0314
17204SOL    HW152190   6.270   8.017   7.054 -0.7668  0.1990 -0.9129
17204SOL    HW252191   6.313   7.909   7.151  0.3839  2.2033  0.8841
17205SOL     OW52192   9.698   9.510   2.205  0.0597 -0.1221 -0.2504
17205SOL    HW152193   9.784   9.545   2.228 -0.0428  0.8000 -1.1554
17205SOL    HW252194   9.711   9.469   2.119 -0.8443  2.1588 -1.5904
17206SOL     OW52195   9.383   5.943   0.140 -0.0348 -0.1950 -0.2039
17206SOL    HW152196   9.417   5.855   0.156 -0.2555 -0.5952 -1.7263
17206SOL    HW252197   9.435   5.975   0.066  0.0748  0.9846  0.3690
17207SOL     OW52198   2.201   0.072   7.470  0.2374  0.9007  0.1487
17207SOL    HW152199   2.208   0.162   7.436  0.4174  0.5185 -0.8772
17207SOL    HW252200   2.207   0.017   7.392 -0.6340  0.0139  0.6807
17208SOL     OW52201   3.694   8.175   8.558 -0.2200  0.4443  0.2149
17208SOL    HW152202   3.729   8.089   8.582  1.2460  1.4119  1.7485
17208SOL    HW252203   3.599   8.164   8.558 -0.0580 -1.6784 -1.7349
17209SOL     OW52204   4.706   9.933   9.795 -0.2107 -0.0449 -0.4130
17209SOL    HW152205   4.722   9.964   9.706  0.8719  0.5649 -0.0206
17209SOL    HW252206   4.620   9.968   9.818 -0.5429 -0.2910 -1.2459
17210SOL     OW52207   0.534   0.566   3.348  0.2738  0.0109  0.4526
17210SOL    HW152208   0.498   0.639   3.398 -0.3965  0.8417 -1.1796
17210SOL    HW252209   0.513   0.489   3.400 -1.7653  0.7019  0.7464
17211SOL     OW52210   8.148   9.185   4.115 -0.1539  0.0715 -0.3104
17211SOL    HW152211   8.071   9.217   4.068 -0.0216  0.2885 -0.3869
17211SOL    HW252212   8.215   9.177   4.047  0.0950  0.5714 -0.1308
17212SOL     OW52213   3.546   7.420   9.927 -0.0100  0.0839  0.4793
17212SOL    HW152214   3.554   7.327   9.949 -2.5460 -0.3613 -0.1391
17212SOL    HW252215   3.588   7.466  10.000  2.3816 -1.5055  0.2208
17213SOL     OW52216   8.164   8.785   0.488  0.8040  0.7684  0.3689
17213SOL    HW152217   8.200   8.870   0.512 -1.4479  1.8817  0.0942
17213SOL    HW252218   8.135   8.747   0.571  2.7238 -0.2587  0.6291
17214SOL     OW52219   4.139   8.920   8.250  0.0402  0.3196  0.1086
17214SOL    HW152220   4.057   8.885   8.215  0.0417  0.8619 -0.4483
17214SOL    HW252221   4.136   8.897   8.343 -1.7010  2.0747  0.5503
17215SOL     OW52222   4.244   5.294   9.737  0.3218  0.3112  0.4341
17215SOL    HW152223   4.331   5.257   9.720 -0.3758 -1.8054  1.1800
17215SOL    HW252224   4.211   5.245   9.812 -2.3289 -0.4364 -1.0835
17216SOL     OW52225   9.732   5.203   3.445  0.0108 -0.2605  0.0567
17216SOL    HW152226   9.821   5.204   3.410  0.4165 -0.4601  1.0708
17216SOL    HW252227   9.719   5.114   3.476  0.9147  0.6388  3.4737
17217SOL     OW52228   8.181   2.784   6.178 -0.1699  0.7365  0.1725
17217SOL    HW152229   8.119   2.720   6.143  0.7968 -0.8565  1.2566
17217SOL    HW252230   8.179   2.856   6.115 -0.8077 -0.6392 -1.4568
17218SOL     OW52231   1.913   7.153   5.056 -0.0322 -0.3163 -0.0454
17218SOL    HW152232   1.968   7.113   5.123 -0.4227 -0.7590  0.0154
17218SOL    HW252233   1.846   7.087   5.038 -0.6247  0.2736 -0.0183
17219SOL     OW52234   0.393   1.950   2.055 -0.3561  0.3938 -0.1643
17219SOL    HW152235   0.297   1.950   2.048 -0.3789 -2.5768 -1.4322
17219SOL    HW252236   0.419   2.037   2.028 -2.6876  1.2635  0.1354
17220SOL     OW52237   4.230   3.252   5.797  0.3138  0.1982 -0.2781
17220SOL    HW152238   4.241   3.167   5.753 -2.1420 -0.2410 -0.1905
17220SOL    HW252239   4.206   3.230   5.887 -1.5498  0.9132 -0.5607
17221SOL     OW52240   0.879   6.811   1.892  0.3546 -0.3661  0.2668
17221SOL    HW152241   0.951   6.848   1.943  0.3861  0.7942 -0.5758
17221SOL    HW252242   0.919   6.784   1.809  0.1786 -1.6081  0.5571
17222SOL     OW52243   3.803   0.462   9.339  0.1338 -0.0809  0.4169
17222SOL    HW152244   3.857   0.540   9.348  0.0237 -0.0584  0.9206
17222SOL    HW252245   3.718   0.496   9.309 -0.1477  0.0864  1.3594
17223SOL     OW52246   4.338   6.561   0.845  0.4883  0.7498  0.2068
17223SOL    HW152247   4.367   6.593   0.930  0.7012  1.0169  0.0332
17223SOL    HW252248   4.243   6.576   0.844  0.5637  1.2229  0.1893
17224SOL     OW52249   0.779   3.120   0.020 -0.1282 -0.4469  0.1374
17224SOL    HW152250   0.685   3.105   0.014 -0.5766  1.1147  2.3396
17224SOL    HW252251   0.815   3.035   0.048 -1.3970 -0.1870  2.8578
17225SOL     OW52252   9.891   0.472   8.998 -0.1057  0.0284 -0.0035
17225SOL    HW152253   9.829   0.428   8.940  0.6638  0.0906 -0.8922
17225SOL    HW252254   9.866   0.442   9.086 -2.4800  1.3932 -0.1377
17226SOL     OW52255   8.433   9.357   0.511  0.4200  0.1639  0.0575
17226SOL    HW152256   8.426   9.441   0.466 -1.1211  0.8725  1.4891
17226SOL    HW252257   8.519   9.324   0.488  0.7573  1.7847 -1.1499
17227SOL     OW52258   6.436   8.924   8.291 -0.0750  0.3865  0.2454
17227SOL    HW152259   6.523   8.914   8.329  0.2389  0.9149 -0.3110
17227SOL    HW252260   6.419   9.018   8.293 -0.8478  0.2443  0.7947
17228SOL     OW52261   8.569   5.642   5.795  0.1280  0.2644  0.2226
17228SOL    HW152262   8.533   5.580   5.733 -0.8060  0.5941  0.4223
17228SOL    HW252263   8.494   5.673   5.846  0.5722  1.4851  0.1854
17229SOL     OW52264   8.077   5.323   8.153  0.2832  0.0274 -0.3327
17229SOL    HW152265   8.143   5.288   8.093  0.0019 -0.4594 -0.3689
17229SOL    HW252266   8.111   5.302   8.240  0.2048 -0.1789 -0.3502
17230SOL     OW52267   1.357   0.380   3.177  0.6470 -0.4389  0.1904
17230SOL    HW152268   1.283   0.320   3.167 -0.3953  0.6136  1.2850
17230SOL    HW252269   1.344   0.447   3.109  1.3357 -0.9521 -0.4669
17231SOL     OW52270   5.255   2.196   5.936 -0.3072 -0.8807  0.1467
17231SOL    HW152271   5.202   2.166   5.863 -0.8119  0.9416 -0.2957
17231SOL    HW252272   5.210   2.162   6.014 -2.6593  1.2223 -0.1606
17232SOL     OW52273   8.775   1.803   4.120  0.4148 -0.1770 -0.1817
17232SOL    HW152274   8.699   1.759   4.082  0.3696 -0.5532  0.3231
17232SOL    HW252275   8.839   1.733   4.134  0.2387 -0.1435  0.8792
17233SOL     OW52276   3.442   9.871   1.593 -0.0385 -0.1229 -0.0796
17233SOL    HW152277   3.526   9.825   1.596  0.2640  0.4251 -0.1680
17233SOL    HW252278   3.464   9.963   1.584 -0.6608 -0.0160 -0.6230
17234SOL     OW52279   8.279   3.672   5.428 -0.0693 -0.0583  0.1799
17234SOL    HW152280   8.248   3.653   5.517 -0.3975 -0.7233 -0.0670
17234SOL    HW252281   8.222   3.742   5.397 -0.0742  0.0478  0.4230
17235SOL     OW52282   0.875   0.287   8.778  0.1247  0.1804 -0.2478
17235SOL    HW152283   0.966   0.285   8.809  0.3260 -1.4963 -0.8336
17235SOL    HW252284   0.877   0.346   8.703  0.6422  0.4877  0.0012
17236SOL     OW52285   3.262   2.018   1.861  0.2042 -0.3053  0.8831
17236SOL    HW152286   3.304   1.982   1.783 -1.9491  0.0264 -0.5203
17236SOL    HW252287   3.323   2.000   1.932  0.9474 -3.2893 -0.3781
17237SOL     OW52288   5.144   0.684   3.721 -0.5861  0.0892  0.2013
17237SOL    HW152289   5.134   0.697   3.815  2.8535  0.5860  0.6106
17237SOL    HW252290   5.177   0.767   3.688  0.8563 -0.8745 -0.9301
17238SOL     OW52291   1.889   4.394   6.156 -0.9157 -0.5564 -0.1613
17238SOL    HW152292   1.850   4.466   6.206 -1.1498 -0.6143 -0.2615
17238SOL    HW252293   1.848   4.315   6.190  0.2874 -0.7720  0.8660
17239SOL     OW52294   8.766   3.068   6.262 -0.4030  0.5037  0.1378
17239SOL    HW152295   8.789   2.976   6.246 -0.1938  0.9573 -2.8131
17239SOL    HW252296   8.771   3.078   6.357 -0.3073 -2.4837  0.5466
17240SOL     OW52297   4.955   0.524   1.401  0.0835  0.2493  0.3775
17240SOL    HW152298   4.988   0.453   1.346  2.2820  0.2991  1.5216
17240SOL    HW252299   4.894   0.482   1.460 -0.0322 -0.3482 -0.1529
17241SOL     OW52300   6.600   9.186   3.049  0.3007 -0.3712  0.0245
17241SOL    HW152301   6.545   9.108   3.056 -0.4593  0.2069  0.6684
17241SOL    HW252302   6.602   9.222   3.137 -1.2529  1.6007 -0.6720
17242SOL     OW52303   4.247   2.683   9.384 -0.1039 -0.2098  0.7630
17242SOL    HW152304   4.292   2.603   9.356  1.0912  1.2306 -1.8078
17242SOL    HW252305   4.316   2.749   9.387 -1.6362  1.6534 -1.3991
17243SOL     OW52306   0.496   7.343   5.934  0.0400 -0.3333 -0.4918
17243SOL    HW152307   0.581   7.350   5.977 -1.5572 -0.5162  2.9867
17243SOL    HW252308   0.482   7.249   5.924  0.1663 -0.3029 -1.0456
17244SOL     OW52309   6.640   9.209   0.700 -0.4531 -0.2881  0.2409
17244SOL    HW152310   6.629   9.150   0.625 -0.5207 -0.2426  0.2158
17244SOL    HW252311   6.566   9.269   0.696 -1.0674 -0.9718  0.9654
17245SOL     OW52312   6.331   6.456   4.255 -0.4769  0.7031 -0.3112
17245SOL    HW152313   6.235   6.451   4.254 -0.5487 -0.0024  2.3967
17245SOL    HW252314   6.349   6.544   4.289 -0.1199  1.1120 -1.5238
17246SOL     OW52315   1.291   8.879   9.225  0.0213  0.5736  0.1378
17246SOL    HW152316   1.379   8.842   9.219  0.2958  1.3490 -1.0105
17246SOL    HW252317   1.298   8.947   9.292  0.5203  1.1706 -0.4998
17247SOL     OW52318   2.721   4.625   0.339  0.1835  0.1712  0.0510
17247SOL    HW152319   2.780   4.599   0.410  1.7416  2.2184 -0.3939
17247SOL    HW252320   2.637   4.637   0.382  0.6995 -0.2427  1.2370
17248SOL     OW52321   2.295   3.308   8.783  0.1066  0.0591  0.1753
17248SOL    HW152322   2.367   3.245   8.775  1.8479  1.9950 -0.3983
17248SOL    HW252323   2.240   3.292   8.706 -0.7210 -2.1233  1.1431
17249SOL     OW52324   5.936   3.606   4.506 -0.0061  0.0375 -0.1623
17249SOL    HW152325   6.011   3.546   4.506 -1.1034 -1.3771  0.7818
17249SOL    HW252326   5.912   3.613   4.413 -0.0157 -1.2098 -0.2754
17250SOL     OW52327   1.952   3.294   7.588  0.3679  0.0424  0.2598
17250SOL    HW152328   1.983   3.288   7.497 -0.5378 -0.3291 -0.0370
17250SOL    HW252329   1.986   3.215   7.630  0.5626  0.0820  0.1815
17251SOL     OW52330   9.797   5.362   1.463  0.1886 -0.3887 -0.0349
17251SOL    HW152331   9.717   5.389   1.419  0.7069  2.0025  0.3556
17251SOL    HW252332   9.773   5.283   1.512 -1.6523 -0.2590 -0.6794
17252SOL     OW52333   3.349   3.412   4.749 -0.0002 -0.1594 -0.4748
17252SOL    HW152334   3.362   3.482   4.685  0.4442 -0.4093 -0.6661
17252SOL    HW252335   3.276   3.361   4.714  0.9426 -0.9377 -1.3704
17253SOL     OW52336   3.677   2.602   0.591  0.1245 -0.6156  0.2318
17253SOL    HW152337   3.637   2.689   0.589 -1.3327 -1.2522  0.4738
17253SOL    HW252338   3.763   2.614   0.551  0.1327  1.0225  0.6867
17254SOL     OW52339   4.799   6.195   1.720 -0.2836 -0.1286  0.0324
17254SOL    HW152340   4.729   6.201   1.785  0.7509  1.0406  1.0950
17254SOL    HW252341   4.858   6.129   1.755 -0.8517 -1.1720 -0.9027
17255SOL     OW52342   4.278   7.674   1.972 -0.5159  0.5796  0.1046
17255SOL    HW152343   4.223   7.625   2.033  0.7684 -2.5490 -1.0039
17255SOL    HW252344   4.367   7.661   2.005 -0.1248  3.1724  0.3075
17256SOL     OW52345   1.536   0.842   0.148  0.3089  0.0795  0.7183
17256SOL    HW152346   1.443   0.822   0.158  0.5228 -0.6491  1.3375
17256SOL    HW252347   1.547   0.861   0.055 -0.4120 -0.0634  0.6008
17257SOL     OW52348   6.725   8.009   8.380 -0.5883 -0.4016  0.0961
17257SOL    HW152349   6.788   8.042   8.315 -2.7799 -0.8063 -2.4067
17257SOL    HW252350   6.713   7.917   8.358 -1.5971 -0.4880  0.9055
17258SOL     OW52351   0.221   9.294   0.089 -0.1149  0.5151 -0.1587
17258SOL    HW152352   0.263   9.275   0.005 -3.7917  3.4024 -2.9584
17258SOL    HW252353   0.156   9.224   0.100  0.1608  0.3071  0.2142
17259SOL     OW52354   6.542   9.497   5.701 -1.1681 -0.2165 -0.3480
17259SOL    HW152355   6.448   9.491   5.683 -0.9708 -1.2635 -1.1758
17259SOL    HW252356   6.559   9.427   5.764 -1.2592  1.2621  1.3933
17260SOL     OW52357   8.254   3.467   4.406  0.4284  0.4600 -0.2802
17260SOL    HW152358   8.273   3.556   4.376 -1.5661  0.8831 -0.4828
17260SOL    HW252359   8.235   3.418   4.327  1.5124 -0.1622 -0.1663
17261SOL     OW52360   1.966   5.525   3.485  0.1495  0.6585 -0.5122
17261SOL    HW152361   1.909   5.522   3.409 -0.2922  1.2871 -0.2146
17261SOL    HW252362   2.052   5.548   3.450  0.3258 -0.6958 -1.0101
17262SOL     OW52363   4.904   7.078   2.112 -0.2548 -0.0316 -0.2895
17262SOL    HW152364   4.883   7.051   2.201  2.8702 -0.8235  0.3235
17262SOL    HW252365   4.907   7.174   2.116  1.4399 -0.0826  0.9654
17263SOL     OW52366   9.908   2.499   0.572 -0.3119  0.1067 -0.1135
17263SOL    HW152367   9.964   2.422   0.582 -2.0516 -1.3373 -0.8518
17263SOL    HW252368   9.836   2.484   0.633  0.1007  1.9618  0.8831
17264SOL     OW52369   1.227   1.205   4.089  0.2108 -0.2315  0.0424
17264SOL    HW152370   1.219   1.231   4.180 -1.2169  0.2917 -0.2134
17264SOL    HW252371   1.145   1.234   4.048  0.4491 -1.2334 -1.2066
17265SOL     OW52372   9.201   9.739   7.779 -0.0421 -0.5886  0.7474
17265SOL    HW152373   9.150   9.811   7.744 -0.1304 -1.6793 -1.5429
17265SOL    HW252374   9.292   9.761   7.757 -0.0004 -0.8415  0.6573
17266SOL     OW52375   9.732   5.230   6.538  0.0210 -0.2210  0.3043
17266SOL    HW152376   9.741   5.143   6.500 -0.9821  0.1084 -0.7397
17266SOL    HW252377   9.639   5.238   6.558  0.4559 -0.2534  2.5899
17267SOL     OW52378   5.438   9.517   4.124  0.1208 -0.0175  0.4156
17267SOL    HW152379   5.419   9.496   4.033 -1.8548  1.2312  0.4832
17267SOL    HW252380   5.534   9.525   4.128  0.1872  0.6070 -1.7059
17268SOL     OW52381   5.284   8.219   9.272 -0.4128 -0.3030 -0.7814
17268SOL    HW152382   5.207   8.183   9.315 -0.5652 -0.5214 -1.2255
17268SOL    HW252383   5.329   8.143   9.236  0.9978 -0.3819  1.0266
17269SOL     OW52384   6.082   1.825   6.072 -0.1779  0.2236  0.2199
17269SOL    HW152385   6.152   1.771   6.034 -0.2052  0.7010 -0.5195
17269SOL    HW252386   6.029   1.762   6.123 -0.4285 -0.5304 -0.9354
17270SOL     OW52387   7.577   7.365   6.651 -0.2526 -0.2516  0.5625
17270SOL    HW152388   7.533   7.312   6.584  1.0916 -0.1354 -0.4431
17270SOL    HW252389   7.508   7.383   6.716 -2.0275  0.8481 -1.4724
17271SOL     OW52390   3.623   5.940   9.377 -0.9909  0.2017 -0.4192
17271SOL    HW152391   3.632   6.015   9.436  0.0257  0.7403 -1.2255
17271SOL    HW252392   3.640   5.975   9.290  2.9172 -1.4536 -0.5562
17272SOL     OW52393   6.713   1.490   4.863  0.3575 -0.1317  0.2287
17272SOL    HW152394   6.674   1.543   4.793 -0.6087 -0.8317  0.2083
17272SOL    HW252395   6.707   1.546   4.941 -1.5534 -0.5090  0.4191
17273SOL     OW52396   6.286   7.421   0.167  0.2020  0.5151  0.6477
17273SOL    HW152397   6.346   7.435   0.095 -0.5091 -1.1125 -0.3173
17273SOL    HW252398   6.246   7.507   0.183  0.4714  0.9235 -0.7939
17274SOL     OW52399   7.304   8.992   6.518  0.5293 -0.6129  0.1185
17274SOL    HW152400   7.297   8.922   6.583  0.3178  0.6017  1.4638
17274SOL    HW252401   7.219   9.036   6.521  0.3802 -0.7684 -1.2885
17275SOL     OW52402   5.985   5.647   6.138  0.0415 -0.2583  0.6646
17275SOL    HW152403   5.991   5.552   6.148  0.5471 -0.3567 -0.4436
17275SOL    HW252404   5.932   5.676   6.212 -2.1264 -1.6725 -0.2564
17276SOL     OW52405   4.641   5.715   5.229  0.8994  0.1935 -0.5363
17276SOL    HW152406   4.632   5.809   5.247 -1.3098  0.0184 -0.4561
17276SOL    HW252407   4.583   5.698   5.155 -0.5036 -1.4733  0.8530
17277SOL     OW52408   4.549   3.461   1.642 -0.2875  0.1557  0.5707
17277SOL    HW152409   4.595   3.401   1.702 -0.2033 -0.2844  0.0707
17277SOL    HW252410   4.618   3.499   1.588 -0.5587 -1.1372 -0.7478
17278SOL     OW52411   5.037   4.073   5.089 -0.4849 -0.2568  0.8656
17278SOL    HW152412   5.066   4.145   5.032 -2.5100 -0.1056 -0.0795
17278SOL    HW252413   5.113   4.017   5.098  1.2112  2.0295  1.6997
17279SOL     OW52414   0.551   0.842   2.420 -0.0943 -0.2676  0.0079
17279SOL    HW152415   0.524   0.822   2.510  0.2561  2.1699  0.7126
17279SOL    HW252416   0.639   0.806   2.414 -0.4810 -1.3185  0.2791
17280SOL     OW52417   8.118   5.813   7.192 -0.3987 -0.6499 -0.0781
17280SOL    HW152418   8.119   5.742   7.257 -0.7056  0.1847  0.8566
17280SOL    HW252419   8.070   5.884   7.234  0.2277  0.2642 -0.8528
17281SOL     OW52420   4.826   8.621   6.348  0.4851  0.3360  0.0611
17281SOL    HW152421   4.830   8.711   6.380  0.3073  0.2048  0.4583
17281SOL    HW252422   4.915   8.601   6.318  0.8803  0.1591  1.3121
17282SOL     OW52423   2.089   5.114   7.221  0.9089 -0.3578  0.7030
17282SOL    HW152424   2.017   5.138   7.162  0.7335 -0.2120  0.9748
17282SOL    HW252425   2.132   5.197   7.241  2.3783 -0.6482 -1.0124
17283SOL     OW52426   9.436   3.584   5.524  0.0768  0.0493  0.3727
17283SOL    HW152427   9.373   3.606   5.456  0.1051  1.4799  0.7758
17283SOL    HW252428   9.385   3.535   5.589 -0.1819 -0.4143 -0.1758
17284SOL     OW52429   0.106   7.169   6.874  0.2047  0.0933 -0.0843
17284SOL    HW152430   0.069   7.200   6.957  1.1086 -2.7520  1.5001
17284SOL    HW252431   0.045   7.101   6.845  0.6983  0.0256 -0.9829
17285SOL     OW52432   3.795   8.761   2.963 -0.2158 -0.4684  0.7884
17285SOL    HW152433   3.783   8.667   2.950 -0.6631 -0.1356 -1.8927
17285SOL    HW252434   3.878   8.780   2.919  0.2355  0.2893  1.9451
17286SOL     OW52435   3.103   7.212   9.514 -0.3555 -0.4831  0.5042
17286SOL    HW152436   3.007   7.217   9.504 -0.3272 -1.2951 -0.3742
17286SOL    HW252437   3.118   7.221   9.608 -1.2052  0.8182  0.5503
17287SOL     OW52438   8.209   5.275   4.246 -0.1306  0.6621 -0.2033
17287SOL    HW152439   8.243   5.265   4.157 -0.3844 -1.0076 -0.1600
17287SOL    HW252440   8.114   5.285   4.235 -0.0206  1.8379 -0.1682
17288SOL     OW52441   3.348   9.520   1.411  0.5599 -0.4840 -1.1933
17288SOL    HW152442   3.428   9.469   1.395  0.7102 -0.2998 -1.0376
17288SOL    HW252443   3.316   9.542   1.324  2.6768  2.5622 -1.3506
17289SOL     OW52444   6.082   1.490   9.463 -0.0333 -0.2162 -0.5041
17289SOL    HW152445   6.079   1.424   9.393 -0.6270 -1.2878  0.4984
17289SOL    HW252446   6.127   1.447   9.535 -1.0890  0.2145  0.4315
17290SOL     OW52447   7.379   7.308   2.582  0.1611  0.4575  0.0573
17290SOL    HW152448   7.301   7.356   2.611  0.1557  1.2503 -1.1971
17290SOL    HW252449   7.373   7.308   2.487  1.1774 -0.3764 -0.0223
17291SOL     OW52450   7.124   7.902   8.130  0.4488  0.3970 -0.5013
17291SOL    HW152451   7.103   7.967   8.063  0.5276  0.4615 -0.4655
17291SOL    HW252452   7.050   7.904   8.190  0.9419  1.2668  0.1148
17292SOL     OW52453   5.108   5.464   2.721  0.1507  0.7218 -0.3315
17292SOL    HW152454   5.174   5.522   2.759  2.2023 -2.8416  2.1306
17292SOL    HW252455   5.151   5.426   2.644  1.4658 -1.9765  1.5470
17293SOL     OW52456   5.093   6.216   2.745  1.2119  0.3293 -0.2551
17293SOL    HW152457   5.077   6.176   2.659  1.2053  2.1049 -1.1106
17293SOL    HW252458   5.184   6.196   2.764  0.7990 -1.4158  0.0890
17294SOL     OW52459   7.647   4.255   2.928 -0.0661 -0.0532 -0.3076
17294SOL    HW152460   7.706   4.188   2.895  0.9869  1.2594 -1.1982
17294SOL    HW252461   7.640   4.237   3.022 -0.4300 -1.8381 -0.6329
17295SOL     OW52462   8.913   7.369   7.242  0.2274  0.4497  0.0547
17295SOL    HW152463   8.851   7.349   7.311 -0.4903 -2.0295 -1.1895
17295SOL    HW252464   8.998   7.342   7.277 -0.3856 -2.7159 -0.6180
17296SOL     OW52465   9.915   1.388   0.261  0.4081  0.0569  0.6774
17296SOL    HW152466   9.840   1.384   0.202  1.2652 -1.2189 -0.3901
17296SOL    HW252467   9.964   1.466   0.233  1.0451 -0.7810 -0.6603
17297SOL     OW52468   6.094   5.682   5.683  0.2643 -0.0851  0.5131
17297SOL    HW152469   6.009   5.709   5.649  0.0765 -1.9998 -0.7199
17297SOL    HW252470   6.147   5.761   5.681 -0.9063  0.7133 -0.6108
17298SOL     OW52471   5.568   7.991   6.764 -0.1447  0.0631  0.4125
17298SOL    HW152472   5.481   7.965   6.733 -0.6282 -0.6543  2.2216
17298SOL    HW252473   5.559   8.085   6.783 -0.7255 -0.1353  1.1701
17299SOL     OW52474   9.169   2.014   2.305  0.2210  0.2918  0.2634
17299SOL    HW152475   9.108   1.943   2.284  1.6846 -1.4017  1.4164
17299SOL    HW252476   9.220   2.026   2.225  0.6083 -0.6800  0.3435
17300SOL     OW52477   8.920   9.030   0.472 -0.1459  0.4847 -0.7582
17300SOL    HW152478   8.906   8.960   0.408  0.0747  1.7945 -2.2884
17300SOL    HW252479   9.005   9.068   0.449 -0.2078  1.1875  0.1139
17301SOL     OW52480   3.319   7.529   9.849 -0.6878 -0.5909  0.7565
17301SOL    HW152481   3.391   7.477   9.886  0.7071 -0.8859 -2.0969
17301SOL    HW252482   3.257   7.464   9.816  0.4679 -0.5321 -1.7160
17302SOL     OW52483   9.053   3.205   5.504  0.1310  0.1341 -0.2273
17302SOL    HW152484   9.106   3.259   5.562 -0.6766  1.8187 -0.9999
17302SOL    HW252485   8.967   3.200   5.546  1.0131 -3.5384  1.6114
17303SOL     OW52486   6.455   0.380   8.560  0.3204 -0.0094  0.5087
17303SOL    HW152487   6.386   0.344   8.616 -0.7745 -0.3181 -0.9824
17303SOL    HW252488   6.443   0.336   8.476  1.4311  0.9984 -0.2067
17304SOL     OW52489   9.341   5.745   9.718  0.1934 -0.7477  0.2103
17304SOL    HW152490   9.424   5.742   9.766 -0.1766 -0.6833  0.8699
17304SOL    HW252491   9.345   5.825   9.666  0.1642 -0.2513  0.9565
17305SOL     OW52492   4.712   8.262   6.243  0.1755  0.1803  0.5579
17305SOL    HW152493   4.789   8.304   6.207  1.1193 -1.2306  0.8428
17305SOL    HW252494   4.688   8.196   6.178 -1.8859  1.7138 -0.3708
17306SOL     OW52495   2.991   1.621   3.357  0.6415 -0.2104  0.3321
17306SOL    HW152496   3.004   1.670   3.276  1.9914 -0.2098  0.5412
17306SOL    HW252497   3.027   1.534   3.339  1.2571 -0.1059  1.0353
17307SOL     OW52498   2.336   4.231   1.138 -0.0820  0.1739  0.1927
17307SOL    HW152499   2.259   4.191   1.178  1.2712 -2.5565  0.2749
17307SOL    HW252500   2.325   4.214   1.044 -0.4330  1.4154 -0.0071
17308SOL     OW52501   1.934   9.204   6.334  0.0888 -0.3759  0.6984
17308SOL    HW152502   1.844   9.200   6.367  0.3720 -1.2564  1.3901
17308SOL    HW252503   1.926   9.188   6.240 -0.6520  1.3987  0.4109
17309SOL     OW52504   1.736   3.541   6.657 -0.1424  0.1779 -0.4527
17309SOL    HW152505   1.699   3.618   6.702 -0.7455 -0.0794 -0.4960
17309SOL    HW252506   1.824   3.533   6.693 -0.9553 -0.6555  1.5331
17310SOL     OW52507   9.112   9.552   2.465  0.0596 -0.6739  0.2090
17310SOL    HW152508   9.188   9.499   2.440 -0.3837 -1.6841  0.9547
17310SOL    HW252509   9.048   9.489   2.497 -0.5202  0.3090  1.0299
17311SOL     OW52510   0.576   7.683   8.795  0.4460 -1.1155 -0.5646
17311SOL    HW152511   0.586   7.595   8.758  0.4075 -1.3137 -0.1037
17311SOL    HW252512   0.664   7.720   8.790  0.1826 -0.6201 -2.1424
17312SOL     OW52513   4.941   4.573   0.511  0.2150  0.0632 -0.1687
17312SOL    HW152514   4.896   4.651   0.543 -0.4618  0.4623 -1.9641
17312SOL    HW252515   4.871   4.508   0.499  0.4293 -0.0418 -0.8875
17313SOL     OW52516   9.750   7.845   9.737  0.1334 -0.0175  0.2027
17313SOL    HW152517   9.845   7.854   9.726  0.2754 -1.2284  0.2937
17313SOL    HW252518   9.725   7.920   9.790  0.9711  0.5551 -0.1954
17314SOL     OW52519   2.360   6.994   3.997 -0.1669  0.0829  0.3688
17314SOL    HW152520   2.376   7.030   3.910  0.8057 -1.3842 -0.0937
17314SOL    HW252521   2.361   7.070   4.055  0.7152  0.9131 -0.6997
17315SOL     OW52522   6.405   2.285   4.485  0.0041 -0.0756  0.0312
17315SOL    HW152523   6.463   2.260   4.413  0.7653  1.0480  0.2399
17315SOL    HW252524   6.316   2.268   4.452  0.3176  0.9270 -1.3701
17316SOL     OW52525   9.381   6.323   9.278  0.1037  0.2719  0.1404
17316SOL    HW152526   9.377   6.270   9.199 -0.2614  1.0093 -0.3510
17316SOL    HW252527   9.472   6.351   9.284  0.6278 -1.5480  1.1889
17317SOL     OW52528   5.143   2.455   0.308  0.5231 -0.0061  0.3920
17317SOL    HW152529   5.127   2.392   0.238 -2.1972 -0.0789  0.9541
17317SOL    HW252530   5.227   2.428   0.346  0.6753 -1.6896 -1.0064
17318SOL     OW52531   5.675   0.256   0.224  0.4160 -0.2966 -0.0564
17318SOL    HW152532   5.680   0.219   0.136  0.6864  1.2619 -0.7286
17318SOL    HW252533   5.610   0.326   0.216  0.6273  0.0197  0.9209
17319SOL     OW52534   5.968   2.731   1.457  0.5398 -0.6498  0.4893
17319SOL    HW152535   5.878   2.711   1.431  0.5219 -0.0909  0.1095
17319SOL    HW252536   6.017   2.652   1.435  0.7919  0.2549 -2.6314
17320SOL     OW52537   2.326   7.213   4.187  0.7960  0.1060  0.3031
17320SOL    HW152538   2.280   7.275   4.244 -0.1186  0.2757 -0.5777
17320SOL    HW252539   2.416   7.243   4.187  0.3002  1.7077 -0.4036
17321SOL     OW52540   4.944   4.696   1.421  0.2792  0.4177 -0.0320
17321SOL    HW152541   4.973   4.698   1.330  1.1459 -3.5309 -0.0190
17321SOL    HW252542   4.849   4.691   1.416  0.3091  0.4297 -0.6953
17322SOL     OW52543   1.840   2.066   8.271 -0.7327 -0.4603 -0.4017
17322SOL    HW152544   1.791   2.139   8.233 -0.0411  0.0479 -0.3336
17322SOL    HW252545   1.914   2.107   8.315 -0.3771 -1.2014 -0.2972
17323SOL     OW52546   4.204   8.379   8.929  0.4732  0.4443  0.1241
17323SOL    HW152547   4.153   8.451   8.892  0.8874 -0.2217 -1.8890
17323SOL    HW252548   4.222   8.406   9.019  0.6947  2.9025 -0.5828
17324SOL     OW52549   3.253   1.124   6.430 -0.3525  0.7628  0.1500
17324SOL    HW152550   3.179   1.113   6.371  0.4984  1.7425 -1.1246
17324SOL    HW252551   3.321   1.066   6.394 -0.2244  0.4428  0.8805
17325SOL     OW52552   7.791   3.121   5.291  0.3436  0.8493  0.0384
17325SOL    HW152553   7.808   3.027   5.296  1.6985  1.1286  0.9696
17325SOL    HW252554   7.706   3.132   5.333 -1.2367 -0.2792 -2.5939
17326SOL     OW52555   3.454   5.987   7.171  0.3924 -0.1779  0.4687
17326SOL    HW152556   3.517   6.059   7.162  0.9511 -0.6452  0.5810
17326SOL    HW252557   3.498   5.923   7.226 -1.5394  1.0014  3.6317
17327SOL     OW52558   7.949   1.095   0.633  0.2334 -0.1858 -0.1318
17327SOL    HW152559   8.028   1.075   0.683  0.8840  0.8428 -0.7057
17327SOL    HW252560   7.899   1.154   0.690 -0.1864 -0.9252  0.2771
17328SOL     OW52561   0.343   4.230   8.431  0.8630 -0.2720 -0.7454
17328SOL    HW152562   0.422   4.282   8.447  0.3661  0.0825  0.7782
17328SOL    HW252563   0.274   4.275   8.481 -0.6972  0.3326 -3.2536
17329SOL     OW52564   2.691   5.293   0.128  0.1005 -0.5795  0.3825
17329SOL    HW152565   2.776   5.250   0.121 -0.0308 -0.6743 -0.9758
17329SOL    HW252566   2.710   5.377   0.169  0.6162 -1.1991  1.4675
17330SOL     OW52567   4.880   2.637   0.139  0.3156 -0.0940 -0.5296
17330SOL    HW152568   4.889   2.659   0.047  0.3148 -2.4713 -1.1526
17330SOL    HW252569   4.967   2.650   0.176  0.8430 -1.1747 -1.3642
17331SOL     OW52570   5.482   2.453   3.394 -0.7524  0.0518  0.1142
17331SOL    HW152571   5.544   2.509   3.441  0.0316  0.5092 -1.4225
17331SOL    HW252572   5.415   2.513   3.362 -2.4928 -0.5250  2.4102
17332SOL     OW52573   1.675   0.826   2.989 -0.5358 -0.5501  0.1483
17332SOL    HW152574   1.758   0.836   3.036 -0.5340  0.2635 -0.0272
17332SOL    HW252575   1.621   0.899   3.019 -0.1368  0.6864 -1.9525
17333SOL     OW52576   3.299   1.540   3.897  0.2924 -0.7261 -0.2327
17333SOL    HW152577   3.211   1.523   3.862  0.6362 -0.8298 -1.0817
17333SOL    HW252578   3.325   1.457   3.937  0.2446 -0.8832 -0.5238
17334SOL     OW52579   4.996   3.437   0.853 -0.0461 -0.6932 -0.3650
17334SOL    HW152580   4.917   3.464   0.900  0.5281 -0.5083  0.5198
17334SOL    HW252581   4.969   3.430   0.761 -0.5621  1.5291 -0.4231
17335SOL     OW52582   3.300   5.856   4.285 -0.1070 -0.0315  0.9777
17335SOL    HW152583   3.241   5.832   4.213 -0.1515 -1.3400  1.4322
17335SOL    HW252584   3.329   5.944   4.263 -0.3430 -0.2961 -0.5065
17336SOL     OW52585   9.245   5.260   8.610  0.4350 -0.2470  0.7329
17336SOL    HW152586   9.228   5.313   8.531 -1.3842  0.8100  1.7728
17336SOL    HW252587   9.161   5.257   8.656  0.9489 -2.5380  1.6671
17337SOL     OW52588   5.957   1.438   6.255  0.1188 -0.4432  0.1349
17337SOL    HW152589   6.042   1.424   6.297 -0.5593  0.8020  2.0330
17337SOL    HW252590   5.894   1.394   6.311 -0.7402  0.6421  0.0659
17338SOL     OW52591   6.494   4.128   2.284 -0.2620 -0.3125 -0.2969
17338SOL    HW152592   6.578   4.128   2.238 -0.4260  0.6136 -0.6275
17338SOL    HW252593   6.430   4.153   2.217 -1.2907 -3.7592 -0.7846
17339SOL     OW52594   2.010   5.458   8.366  0.0602  0.7602 -0.0735
17339SOL    HW152595   2.005   5.550   8.390 -0.7078 -0.0429  3.2891
17339SOL    HW252596   1.921   5.435   8.340  0.4863  1.1477 -2.0803
17340SOL     OW52597   5.117   6.523   4.181 -0.2613 -0.3788 -0.1267
17340SOL    HW152598   5.082   6.523   4.271 -0.9370  0.4817 -0.3843
17340SOL    HW252599   5.210   6.540   4.192 -0.4780  0.5502  0.3737
17341SOL     OW52600   4.934   5.124   3.937  0.0707  0.4942  0.1803
17341SOL    HW152601   4.861   5.140   3.878 -1.2342  0.5579  1.7264
17341SOL    HW252602   4.963   5.035   3.917 -0.6789  0.3293 -0.1960
17342SOL     OW52603   5.099   3.254   5.518  0.2945 -1.0396  0.2079
17342SOL    HW152604   5.153   3.299   5.583  0.3936 -0.8375 -0.0182
17342SOL    HW252605   5.106   3.306   5.439 -0.5416 -0.7955  0.2829
17343SOL     OW52606   8.210   4.932   9.876 -0.2930  0.2265 -0.2769
17343SOL    HW152607   8.239   4.881   9.952 -0.3467 -0.6510 -0.8215
17343SOL    HW252608   8.206   4.868   9.805 -1.2123  0.8260 -0.7872
17344SOL     OW52609   9.515   6.698   4.592  0.1948  0.4470  0.4539
17344SOL    HW152610   9.491   6.607   4.573  0.2124  0.1316  1.8473
17344SOL    HW252611   9.431   6.744   4.596  0.0522  0.1097  1.5631
17345SOL     OW52612   0.405   9.167   2.291 -0.0443 -0.0643  0.6482
17345SOL    HW152613   0.432   9.232   2.227 -1.2718  1.0796  1.2406
17345SOL    HW252614   0.311   9.155   2.276  0.3686 -2.8414 -0.4200
17346SOL     OW52615   9.461   7.372   6.502 -0.0506  0.2685 -0.0985
17346SOL    HW152616   9.378   7.331   6.477  0.1461  0.1142 -0.5092
17346SOL    HW252617   9.436   7.452   6.549 -0.4295  0.4001 -0.5224
17347SOL     OW52618   3.132   0.830   8.012  0.2146 -0.0024 -0.4381
17347SOL    HW152619   3.127   0.915   7.968 -1.1634  0.3763  0.3702
17347SOL    HW252620   3.114   0.850   8.104  1.0754 -1.0246 -0.0278
17348SOL     OW52621   7.512   1.869   7.999  0.4684  0.2816  0.1978
17348SOL    HW152622   7.465   1.937   8.047  0.3664  0.7130 -0.4937
17348SOL    HW252623   7.558   1.820   8.066 -1.2836 -0.4162  0.9494
17349SOL     OW52624   3.997   5.189   2.211  0.0296 -0.4007 -0.2625
17349SOL    HW152625   3.944   5.122   2.168  0.1970 -0.9481  0.3609
17349SOL    HW252626   3.986   5.267   2.157 -3.4041  0.2652  1.1597
17350SOL     OW52627   2.158   8.799   8.197  0.4257  0.6281 -0.0994
17350SOL    HW152628   2.229   8.856   8.225  0.9446 -0.5783  1.1374
17350SOL    HW252629   2.198   8.712   8.189 -0.5455  0.2395 -1.0416
17351SOL     OW52630   6.067   8.427   8.721  0.3657  0.0766 -0.6503
17351SOL    HW152631   5.973   8.418   8.738  0.6150 -0.6708  0.4823
17351SOL    HW252632   6.102   8.339   8.737  1.2098  0.2498 -1.4598
17352SOL     OW52633   2.909   3.123   0.232 -0.9226 -0.1859 -0.3136
17352SOL    HW152634   2.863   3.040   0.248 -1.6271 -0.2388 -2.4168
17352SOL    HW252635   2.858   3.188   0.281  0.4251 -1.0868  2.5312
17353SOL     OW52636   3.998   9.350   0.368 -0.7311 -0.3286  0.2336
17353SOL    HW152637   4.039   9.435   0.350 -1.3423 -0.4011 -1.8366
17353SOL    HW252638   4.069   9.296   0.402 -0.3281  0.9872  1.5669
17354SOL     OW52639   1.139   9.667   3.226  0.5086  0.7166  0.2579
17354SOL    HW152640   1.228   9.695   3.250  0.8950  0.4596 -0.8079
17354SOL    HW252641   1.091   9.748   3.213  0.7389  0.8613  0.3060
17355SOL     OW52642   4.435   8.848   9.207 -0.2405  0.2648  0.3849
17355SOL    HW152643   4.530   8.840   9.204 -0.0382  2.4676 -0.2286
17355SOL    HW252644   4.409   8.795   9.283  1.4651 -0.2983  0.6152
17356SOL     OW52645   4.239   4.825   4.062 -0.1485  0.1302 -0.3742
17356SOL    HW152646   4.174   4.854   4.125 -0.5666 -0.4117 -0.5482
17356SOL    HW252647   4.221   4.875   3.982 -0.8315 -0.5373 -0.6561
17357SOL     OW52648   1.102   7.678   7.456 -0.0945  0.0248 -0.3454
17357SOL    HW152649   1.038   7.612   7.428 -0.4019  0.9756 -2.0409
17357SOL    HW252650   1.170   7.628   7.500 -0.7078 -1.3359 -0.8651
17358SOL     OW52651   1.495   0.008   2.144 -0.3132  0.2940 -0.1701
17358SOL    HW152652   1.410   0.051   2.134 -0.4901 -0.2396 -1.0522
17358SOL    HW252653   1.520   0.024   2.235 -1.6821 -0.1442  0.3021
17359SOL     OW52654   4.851   5.780   8.896  0.1103 -0.6889 -0.1016
17359SOL    HW152655   4.940   5.749   8.881 -0.2633 -1.2676 -1.1571
17359SOL    HW252656   4.837   5.845   8.827 -1.3982 -2.9300 -2.0656
17360SOL     OW52657   0.629   5.701   1.220  0.0965 -0.1874 -0.2940
17360SOL    HW152658   0.724   5.699   1.232  0.0263  0.6006  0.5537
17360SOL    HW252659   0.598   5.761   1.289 -1.2603 -2.4128  1.1508
17361SOL     OW52660   1.822   5.684   7.928  0.4731 -0.0896 -0.7124
17361SOL    HW152661   1.742   5.647   7.965  0.1101 -0.5166 -1.8847
17361SOL    HW252662   1.832   5.769   7.972 -1.4014  0.6153 -1.5536
17362SOL     OW52663   7.087   9.590   1.528 -0.2199 -0.2123 -0.2133
17362SOL    HW152664   7.153   9.552   1.470 -0.0834 -2.3684  1.2369
17362SOL    HW252665   7.136   9.647   1.588  0.0081 -0.1218 -0.4857
17363SOL     OW52666   8.507   6.640   2.739 -0.2084  0.0992  0.0523
17363SOL    HW152667   8.534   6.724   2.701 -2.0121  0.3511 -0.8127
17363SOL    HW252668   8.443   6.605   2.676 -0.9505 -0.9892  1.3515
17364SOL     OW52669   5.516   6.289   3.016 -0.0752 -0.3118  0.4123
17364SOL    HW152670   5.457   6.280   3.091 -0.0928 -0.1393  0.4179
17364SOL    HW252671   5.545   6.380   3.019 -0.7445 -0.0680 -0.2940
17365SOL     OW52672   7.086   1.826   4.327 -0.2216 -0.4473 -0.0406
17365SOL    HW152673   7.175   1.793   4.319 -0.2509 -0.5471  0.0315
17365SOL    HW252674   7.033   1.749   4.345 -0.3970 -0.4556 -0.5822
17366SOL     OW52675   8.140   3.874   2.481  0.6909  0.1024 -0.2488
17366SOL    HW152676   8.090   3.860   2.401  0.1907  0.6122 -0.0306
17366SOL    HW252677   8.205   3.803   2.482  1.5137  0.7956 -1.7244
17367SOL     OW52678   8.388   5.915   0.156  0.0759 -1.3841 -0.5221
17367SOL    HW152679   8.461   5.910   0.217 -1.1405  1.1540  1.3366
17367SOL    HW252680   8.423   5.959   0.079  0.3654  0.7331  0.7526
17368SOL     OW52681   8.317   9.365   6.527 -0.0848  0.1118  0.0437
17368SOL    HW152682   8.365   9.314   6.592  0.1435  0.0887 -0.1377
17368SOL    HW252683   8.384   9.420   6.486  0.2242 -1.4266 -1.6754
17369SOL     OW52684   8.816   3.450   6.693 -0.2991  0.6689  0.1597
17369SOL    HW152685   8.760   3.438   6.616 -0.9728 -0.4879  0.8094
17369SOL    HW252686   8.765   3.414   6.766  0.2523  1.9120  1.1886
17370SOL     OW52687   2.194   6.301   3.101  0.3138  0.1051 -0.2625
17370SOL    HW152688   2.143   6.257   3.033 -0.5922  0.1248  0.3894
17370SOL    HW252689   2.284   6.298   3.069 -0.1377  0.3828 -1.5978
17371SOL     OW52690   1.676   6.497   0.611 -0.1611  0.3363  0.5795
17371SOL    HW152691   1.705   6.407   0.595 -0.9200  0.1082  0.4781
17371SOL    HW252692   1.706   6.516   0.701 -0.5360 -0.2330  0.8262
17372SOL     OW52693   1.568   1.656   9.082 -0.2814 -0.3684  0.7289
17372SOL    HW152694   1.472   1.658   9.089 -0.6666 -0.5584 -2.7129
17372SOL    HW252695   1.587   1.702   9.000  2.4797 -1.4083  0.6759
17373SOL     OW52696   9.515   4.116   5.792  0.2433  0.1040 -0.1354
17373SOL    HW152697   9.610   4.122   5.799  0.2467 -0.4412  0.2785
17373SOL    HW252698   9.500   4.054   5.721  0.1963  0.0957 -0.1184
17374SOL     OW52699   0.473   8.482   4.709 -0.7590 -0.6902 -0.5719
17374SOL    HW152700   0.491   8.575   4.702 -0.8807 -0.3349  2.5704
17374SOL    HW252701   0.558   8.440   4.696  0.6557  0.3384  3.6422
17375SOL     OW52702   9.764   8.974   2.667  0.2135 -0.3206 -0.0572
17375SOL    HW152703   9.807   8.890   2.658  0.9463 -0.0876  1.0690
17375SOL    HW252704   9.765   8.992   2.761  1.0129  1.4156 -0.3561
17376SOL     OW52705   9.072   1.251   9.296 -0.0154 -0.4627  0.0620
17376SOL    HW152706   9.088   1.345   9.302 -1.5084 -0.0120 -2.0871
17376SOL    HW252707   9.055   1.224   9.387  1.0838  1.1700  0.8020
17377SOL     OW52708   1.466   9.010   5.538  0.3144  0.5317  0.3957
17377SOL    HW152709   1.452   8.976   5.450  0.4788  2.0120 -0.2284
17377SOL    HW252710   1.378   9.020   5.575  0.2880 -1.5642  1.0253
17378SOL     OW52711   0.426   5.021   3.211  0.4405  0.5183 -0.4723
17378SOL    HW152712   0.332   5.035   3.228  0.1719 -0.8964 -0.7414
17378SOL    HW252713   0.444   5.073   3.133  0.1528  1.6816  0.1993
17379SOL     OW52714   7.387   5.318   4.708  0.4558  0.5410 -0.2849
17379SOL    HW152715   7.369   5.282   4.795 -1.4518 -1.3047 -1.3188
17379SOL    HW252716   7.360   5.410   4.714 -1.3902  0.0041  0.6512
17380SOL     OW52717   4.050   6.561   2.469 -0.3215  0.1447  0.0090
17380SOL    HW152718   4.121   6.550   2.533 -1.9969 -0.5151  1.8618
17380SOL    HW252719   4.025   6.472   2.446 -0.5324  0.3779 -0.6755
17381SOL     OW52720   6.082   6.957   7.026 -0.2292  0.2799 -0.6682
17381SOL    HW152721   5.990   6.981   7.013 -0.1199  0.0381 -2.0787
17381SOL    HW252722   6.131   7.018   6.971  0.4252  0.1169 -0.2805
17382SOL     OW52723   3.002   9.026   5.817 -0.8491 -0.1906  0.3770
17382SOL    HW152724   2.998   9.020   5.913 -3.0040  0.8229  0.4027
17382SOL    HW252725   2.912   9.043   5.790  0.0390  1.6701 -1.6915
17383SOL     OW52726   7.354   0.969   3.342  0.0428  0.5809 -0.2069
17383SOL    HW152727   7.437   1.016   3.354 -0.3029  1.1099  0.1448
17383SOL    HW252728   7.337   0.928   3.427 -0.5563  1.3027  0.0335
17384SOL     OW52729   4.622   3.350   3.921  0.1472  0.1768  0.2223
17384SOL    HW152730   4.659   3.271   3.884  0.1330 -0.4698  1.5355
17384SOL    HW252731   4.695   3.413   3.921  0.5357 -0.2692  0.4280
17385SOL     OW52732   8.672   3.514   5.714 -0.2400 -0.2931 -0.3773
17385SOL    HW152733   8.612   3.488   5.784 -2.0839  0.9169 -1.4188
17385SOL    HW252734   8.635   3.595   5.680  2.0121  0.5067 -1.1109
17386SOL     OW52735   7.237   0.124   1.883 -0.1341 -0.3854  0.1519
17386SOL    HW152736   7.142   0.118   1.878 -0.0237 -2.6591 -0.3892
17386SOL    HW252737   7.265   0.131   1.792  0.2000  2.2297  0.3808
17387SOL     OW52738   0.643   1.125   7.177 -0.6104  0.5083 -0.1132
17387SOL    HW152739   0.606   1.197   7.126 -0.7245  0.9313  0.5569
17387SOL    HW252740   0.693   1.074   7.113  1.0285  2.1996 -0.2941
17388SOL     OW52741   8.639   1.566   5.660 -0.8015 -0.0667  0.4258
17388SOL    HW152742   8.627   1.660   5.647  2.4622  0.1164 -2.3684
17388SOL    HW252743   8.633   1.528   5.573 -0.6308 -2.3219  1.3203
17389SOL     OW52744   1.809   7.817   0.902 -0.1285 -0.1214 -0.3196
17389SOL    HW152745   1.882   7.757   0.886  0.3038  0.2680  0.1631
17389SOL    HW252746   1.847   7.887   0.954 -0.8253  0.1453 -0.1638
17390SOL     OW52747   0.289   1.587   2.845 -0.0573  0.0323 -0.0869
17390SOL    HW152748   0.334   1.671   2.850 -1.2312  0.7977 -1.7067
17390SOL    HW252749   0.336   1.531   2.908  0.6147  1.9251  1.1815
17391SOL     OW52750   4.689   5.658   7.321 -0.1685  0.1740  0.1657
17391SOL    HW152751   4.732   5.742   7.301  2.7627 -0.2868  3.4713
17391SOL    HW252752   4.739   5.593   7.271 -0.0372  0.0656  0.4365
17392SOL     OW52753   3.193   2.255   8.438  0.7030 -0.1922  0.6320
17392SOL    HW152754   3.182   2.344   8.404  2.7502 -1.1872 -3.2807
17392SOL    HW252755   3.287   2.249   8.456  0.5048 -1.4234  1.2700
17393SOL     OW52756   7.859   7.992   9.734  0.3780 -0.8138 -0.3630
17393SOL    HW152757   7.770   7.971   9.758  0.1662  0.3325 -0.0680
17393SOL    HW252758   7.879   7.933   9.661 -0.1892 -1.8882  0.3273
17394SOL     OW52759   6.014   2.137   7.748  1.5091  0.2275 -0.1149
17394SOL    HW152760   6.021   2.172   7.659  0.9346 -0.4167 -0.4184
17394SOL    HW252761   6.034   2.212   7.805  3.6702  0.2220 -0.7849
17395SOL     OW52762   5.195   9.380   8.674  0.5952  0.4725  0.0335
17395SOL    HW152763   5.214   9.411   8.586  1.0816  2.4362  0.7752
17395SOL    HW252764   5.100   9.382   8.680  0.5892  1.3170 -0.1487
17396SOL     OW52765   3.739   1.549   3.422 -0.8168 -0.6368 -0.4748
17396SOL    HW152766   3.796   1.523   3.349 -0.0444 -1.5656  0.4220
17396SOL    HW252767   3.711   1.466   3.461 -1.2985 -0.1566  0.2174
17397SOL     OW52768   9.781   0.551   0.353 -0.1875  0.3390  0.7225
17397SOL    HW152769   9.836   0.620   0.318  0.4532 -1.0347 -1.1605
17397SOL    HW252770   9.814   0.536   0.441  1.0721  0.9701  0.3814
17398SOL     OW52771   8.028   7.354   6.639  0.1468 -0.1584 -0.1342
17398SOL    HW152772   8.074   7.400   6.710 -0.3904  0.0187  0.1048
17398SOL    HW252773   8.098   7.314   6.587  0.6127  0.6494 -0.1497
17399SOL     OW52774   5.609   2.245   8.869 -0.3836 -0.1796  0.2088
17399SOL    HW152775   5.623   2.339   8.884 -0.8507 -0.2117  0.8962
17399SOL    HW252776   5.582   2.239   8.777  0.3400  0.2756 -0.0434
17400SOL     OW52777   0.690   4.074   6.937 -0.2172  0.7490  0.0827
17400SOL    HW152778   0.710   4.074   6.843  0.9335  1.6673  0.2949
17400SOL    HW252779   0.611   4.021   6.945  0.6859 -0.8822 -1.1826
17401SOL     OW52780   7.405   5.660   0.519 -0.4278  0.8079  0.4794
17401SOL    HW152781   7.329   5.718   0.513 -0.2943  1.1106  1.5955
17401SOL    HW252782   7.472   5.712   0.563  0.9712  1.0712 -1.8239
17402SOL     OW52783   0.774   3.174   6.617 -0.8448  0.3523  0.2281
17402SOL    HW152784   0.718   3.185   6.541 -1.3783 -1.1246  0.3751
17402SOL    HW252785   0.796   3.263   6.645  0.6782  0.9708 -2.5785
17403SOL     OW52786   6.161   5.242   5.902 -0.5423  0.1699  0.4761
17403SOL    HW152787   6.117   5.186   5.838  1.9226 -0.8491 -0.4590
17403SOL    HW252788   6.162   5.191   5.983  1.7833 -1.3212 -0.3970
17404SOL     OW52789   1.968   2.636   8.375  0.8817  0.5940  0.2261
17404SOL    HW152790   2.031   2.621   8.446  3.0357 -0.1826 -1.7033
17404SOL    HW252791   2.016   2.688   8.311 -0.4743  0.0429 -1.3169
17405SOL     OW52792   6.416   9.307   1.676  0.2540  0.1767 -0.1662
17405SOL    HW152793   6.405   9.295   1.582  0.0078  1.0803 -0.2585
17405SOL    HW252794   6.335   9.274   1.714  0.4162 -0.3308 -0.2546
17406SOL     OW52795   3.980   8.357   2.743  0.4301  0.2818  0.7342
17406SOL    HW152796   3.912   8.399   2.692  2.3703  1.1729 -1.3141
17406SOL    HW252797   4.021   8.295   2.682  0.4442 -1.4315  2.3857
17407SOL     OW52798   2.945   5.091   2.200 -0.4683  0.0139 -0.4230
17407SOL    HW152799   3.033   5.112   2.168  0.5767 -2.0858  0.8270
17407SOL    HW252800   2.922   5.011   2.152 -0.2332 -1.3457  1.6240
17408SOL     OW52801   4.737   6.495   4.672 -0.5028 -0.9658  0.0509
17408SOL    HW152802   4.712   6.442   4.596  1.0412 -1.3471 -0.2428
17408SOL    HW252803   4.792   6.565   4.635  2.0909 -2.3799  0.9524
17409SOL     OW52804   6.373   0.098   4.226  0.3213 -0.2168  0.1631
17409SOL    HW152805   6.422   0.161   4.277  1.1562 -0.6982 -0.0194
17409SOL    HW252806   6.374   0.018   4.278 -0.9451 -0.0325  0.5111
17410SOL     OW52807   3.927   6.354   7.127  0.8174 -0.4495  0.0249
17410SOL    HW152808   3.952   6.261   7.132 -1.8520 -1.2386  0.2220
17410SOL    HW252809   3.931   6.385   7.218 -2.8418 -1.8135  0.8298
17411SOL     OW52810   9.520   3.779   8.088 -0.4823 -0.6266 -0.3389
17411SOL    HW152811   9.531   3.774   7.993 -2.3560  2.7188 -0.8777
17411SOL    HW252812   9.428   3.759   8.103 -0.0583 -1.8217  0.9162
17412SOL     OW52813   8.651   6.285   8.556  0.2149 -0.2177 -0.4743
17412SOL    HW152814   8.559   6.276   8.528 -0.5273 -1.3014  1.9974
17412SOL    HW252815   8.691   6.201   8.531  0.9601  0.7267 -2.7066
17413SOL     OW52816   6.524   1.572   5.301 -0.1257  0.0555 -0.2178
17413SOL    HW152817   6.588   1.604   5.364  0.4649 -1.7620  0.1689
17413SOL    HW252818   6.562   1.591   5.215  0.1093  0.5240 -0.0103
17414SOL     OW52819   2.126   4.610   5.887  0.1331 -0.4927 -0.3849
17414SOL    HW152820   2.169   4.631   5.804 -1.0461 -0.2852 -0.9692
17414SOL    HW252821   2.033   4.625   5.870 -0.2155 -1.2645  0.7267
17415SOL     OW52822   8.859   5.590   8.333  0.0455  0.3720 -0.0152
17415SOL    HW152823   8.949   5.582   8.364  0.9368 -1.5569 -2.7090
17415SOL    HW252824   8.854   5.678   8.296  0.8340  0.4917  0.1402
17416SOL     OW52825   3.452   3.557   3.943  0.1765 -0.6971 -0.5835
17416SOL    HW152826   3.523   3.508   3.983  0.4834 -1.0085 -1.4686
17416SOL    HW252827   3.374   3.504   3.958  0.3791 -1.0752 -0.8578
17417SOL     OW52828   1.316   9.919   0.586  0.0645 -0.1225 -0.4974
17417SOL    HW152829   1.375   9.975   0.636 -1.3980  0.3371  0.7866
17417SOL    HW252830   1.336   9.830   0.615 -0.1234  0.0657  0.2115
17418SOL     OW52831   1.831   3.761   8.909 -0.5856  0.2014 -0.2237
17418SOL    HW152832   1.739   3.779   8.929 -0.7612  1.1751 -1.7582
17418SOL    HW252833   1.834   3.666   8.894 -1.5693  0.2857 -1.1385
17419SOL     OW52834   7.710   2.705   4.887 -0.3555  0.3904  0.3362
17419SOL    HW152835   7.629   2.696   4.836  0.5640  0.8749 -1.2498
17419SOL    HW252836   7.682   2.746   4.969 -1.6167  1.1385 -0.4467
17420SOL     OW52837   8.350   7.640   6.170 -0.1149  0.4091  0.1333
17420SOL    HW152838   8.303   7.669   6.248 -1.4810  0.2510 -0.6062
17420SOL    HW252839   8.309   7.687   6.098  0.3738 -0.3003 -0.6210
17421SOL     OW52840   9.015   5.201   0.222  0.1390  0.2736  0.4409
17421SOL    HW152841   8.928   5.238   0.209 -1.3414 -2.1759  2.4711
17421SOL    HW252842   9.073   5.277   0.231 -2.0191  1.9888  0.5269
17422SOL     OW52843   8.493   1.312   6.883  0.3992  0.1675  0.3174
17422SOL    HW152844   8.418   1.263   6.916  0.1039  1.1461  1.1550
17422SOL    HW252845   8.515   1.373   6.953  1.9684 -0.0656  0.0778
17423SOL     OW52846   2.970   1.208   6.495  0.0892  0.4664 -0.6507
17423SOL    HW152847   2.909   1.273   6.530 -0.5727  0.4937 -1.7984
17423SOL    HW252848   3.046   1.212   6.553 -0.7200  0.9145  0.4105
17424SOL     OW52849   9.811   0.147   9.850  0.3326 -0.0528  0.3306
17424SOL    HW152850   9.878   0.170   9.786 -0.3428 -0.4833 -0.5525
17424SOL    HW252851   9.772   0.067   9.816 -1.4574  0.8463  0.1979
17425SOL     OW52852   2.571   5.110   6.833  0.1217  0.4688  0.8841
17425SOL    HW152853   2.552   5.189   6.781  0.4867  0.3574  0.5780
17425SOL    HW252854   2.579   5.041   6.768 -0.7749  0.0558  1.1876
17426SOL     OW52855   4.876   1.887   3.544 -0.2531 -0.6393  0.0882
17426SOL    HW152856   4.822   1.912   3.620 -0.4913  0.9795 -0.5755
17426SOL    HW252857   4.915   1.804   3.570 -1.5466 -0.9005  1.3714
17427SOL     OW52858   3.548   0.639   3.754 -0.2489  0.0751 -0.2516
17427SOL    HW152859   3.638   0.670   3.761 -0.6267  1.1106  0.1947
17427SOL    HW252860   3.507   0.697   3.690 -1.1667  1.0361  1.1508
17428SOL     OW52861   0.989   2.506   9.479  1.0418  0.0743  0.6097
17428SOL    HW152862   0.961   2.463   9.398 -0.3864 -2.6942  2.4086
17428SOL    HW252863   0.946   2.591   9.477 -0.7404 -0.7853 -0.5816
17429SOL     OW52864   9.583   1.231   1.559 -0.3532  0.4996  0.2426
17429SOL    HW152865   9.557   1.322   1.579  2.1489  1.2589  0.4468
17429SOL    HW252866   9.585   1.188   1.645  2.2487  1.4329  0.7579
17430SOL     OW52867   6.868   9.986   8.180  0.3096  0.1378  0.2078
17430SOL    HW152868   6.955  10.025   8.182  0.4489 -0.1010 -0.9987
17430SOL    HW252869   6.881   9.898   8.146 -0.2998 -0.2098  0.8433
17431SOL     OW52870   1.292   6.662   6.523 -0.5049  0.2543 -0.3154
17431SOL    HW152871   1.299   6.730   6.590 -2.1961 -0.8466  1.0516
17431SOL    HW252872   1.229   6.696   6.460 -1.2601  0.0389  0.3059
17432SOL     OW52873   8.103   1.534   2.572  0.5985 -0.0342 -0.0440
17432SOL    HW152874   8.074   1.619   2.539 -0.7493 -0.6797 -0.6342
17432SOL    HW252875   8.077   1.473   2.503 -2.5790 -1.4989  2.2093
17433SOL     OW52876   5.213   6.605   8.063 -0.2548 -0.0235  0.1819
17433SOL    HW152877   5.154   6.552   8.117  0.0469  0.6821  1.2372
17433SOL    HW252878   5.299   6.565   8.075  0.3190  1.6442  2.4023
17434SOL     OW52879   3.814   7.772   7.732  0.4361 -0.0260  0.7341
17434SOL    HW152880   3.872   7.807   7.801 -0.4884 -0.3185  1.6850
17434SOL    HW252881   3.736   7.743   7.779 -0.3032 -0.0587 -0.4755
17435SOL     OW52882   7.069   1.335   9.217  0.6801 -0.4364  0.0260
17435SOL    HW152883   6.980   1.336   9.252  0.4647 -0.5724 -0.5082
17435SOL    HW252884   7.125   1.337   9.294  0.2157 -0.0114  0.3620
17436SOL     OW52885   0.789   3.736   7.710 -0.7684  0.2853 -0.4470
17436SOL    HW152886   0.855   3.786   7.664  1.8778  0.1482  2.8288
17436SOL    HW252887   0.714   3.796   7.718  0.1928  1.6577 -1.3787
17437SOL     OW52888   5.410   1.023   5.120  0.1001 -0.0426 -0.0661
17437SOL    HW152889   5.429   0.952   5.059  0.2830 -0.6158  0.6484
17437SOL    HW252890   5.341   0.989   5.176  0.4201  0.2207  0.4954
17438SOL     OW52891   1.482   2.329   7.772  0.4806 -0.4455 -0.3943
17438SOL    HW152892   1.414   2.339   7.705  1.0794 -2.3058 -1.3710
17438SOL    HW252893   1.457   2.250   7.820  1.8611 -1.1089 -0.7144
17439SOL     OW52894   2.762   8.255   9.170  0.1273  0.3590  0.2454
17439SOL    HW152895   2.803   8.178   9.130 -0.8449  0.3873 -0.8529
17439SOL    HW252896   2.733   8.224   9.256  1.3558  0.0186  0.5631
17440SOL     OW52897   1.079   6.812   6.367  0.4055  0.2565 -0.3715
17440SOL    HW152898   1.013   6.780   6.428  2.8035  1.1398  2.9866
17440SOL    HW252899   1.029   6.854   6.296 -2.5853 -2.9649 -0.4017
17441SOL     OW52900   6.500   1.932   9.955 -0.5869 -0.6192  0.1729
17441SOL    HW152901   6.526   1.997  10.020 -1.1987  0.5563 -0.7236
17441SOL    HW252902   6.512   1.976   9.871 -1.4942 -1.4943 -0.4342
17442SOL     OW52903   1.714   9.457   3.011  0.1150  0.3865  0.4123
17442SOL    HW152904   1.686   9.528   2.953 -0.1881 -0.8818 -1.0442
17442SOL    HW252905   1.685   9.377   2.967  2.1770 -0.7693  1.0241
17443SOL     OW52906   1.849   8.269   6.548  1.3054  0.1405  0.4075
17443SOL    HW152907   1.928   8.305   6.507  0.9739 -0.8554 -1.2104
17443SOL    HW252908   1.848   8.178   6.520  0.8942 -0.5388  2.4869
17444SOL     OW52909   0.851   0.679   8.498 -0.1115  0.2068  0.2921
17444SOL    HW152910   0.912   0.702   8.427  2.4676 -0.6585  2.0650
17444SOL    HW252911   0.818   0.763   8.529  1.5897  0.8855  0.3868
17445SOL     OW52912   3.974   4.091   2.361 -0.3927 -0.2693 -0.5505
17445SOL    HW152913   4.039   4.113   2.428 -0.9096  1.7390 -0.6619
17445SOL    HW252914   3.984   4.159   2.295 -2.0455 -0.4118 -0.9783
17446SOL     OW52915   1.172   6.595   0.405 -0.4766 -0.1643  0.2781
17446SOL    HW152916   1.119   6.634   0.475  1.1710 -0.9146  2.0421
17446SOL    HW252917   1.251   6.649   0.402  0.0848 -0.9867 -0.0189
17447SOL     OW52918   7.439   3.460   9.984 -0.2045 -0.5072 -0.2059
17447SOL    HW152919   7.520   3.414  10.009  0.8399  1.9138  1.1853
17447SOL    HW252920   7.455   3.490   9.895 -0.2303 -1.3788 -0.5146
17448SOL     OW52921   5.748   9.082   2.026  0.5714  0.1728 -0.6032
17448SOL    HW152922   5.782   9.160   1.983  0.5270  1.1129  0.9985
17448SOL    HW252923   5.659   9.106   2.052  0.4226 -0.5528 -0.4277
17449SOL     OW52924   5.085   9.650   3.057 -0.5665  0.5142 -0.1254
17449SOL    HW152925   5.008   9.605   3.091 -1.0377  1.0443 -0.4794
17449SOL    HW252926   5.089   9.731   3.106 -1.0461  1.1254 -1.0727
17450SOL     OW52927   7.079   5.812   0.245 -0.0860  0.4039 -0.3802
17450SOL    HW152928   7.109   5.845   0.330 -0.5778 -0.0181 -0.0388
17450SOL    HW252929   6.987   5.791   0.258 -0.1878  0.4163 -1.0457
17451SOL     OW52930   5.954   2.444   9.973 -0.1004 -0.4730 -0.2851
17451SOL    HW152931   6.025   2.464   9.912  2.0407  2.1530  2.7261
17451SOL    HW252932   5.885   2.506   9.950  0.8899  0.8467  0.1690
17452SOL     OW52933   6.369   8.562   1.631  0.3692 -0.2825  0.2604
17452SOL    HW152934   6.345   8.650   1.603  1.4620  0.1536  0.6099
17452SOL    HW252935   6.376   8.512   1.550  0.7144  0.2235 -0.0297
17453SOL     OW52936   1.819   5.195   1.976 -0.7003  0.0265  0.4459
17453SOL    HW152937   1.775   5.168   2.056 -0.3980 -2.0930 -0.0315
17453SOL    HW252938   1.749   5.208   1.913 -0.8220 -1.1855  0.2931
17454SOL     OW52939   5.515   7.822   1.471 -0.6627  0.3598  0.0372
17454SOL    HW152940   5.440   7.763   1.471 -0.9793  0.7251 -1.6831
17454SOL    HW252941   5.582   7.777   1.419  0.1859  0.2357  1.1847
17455SOL     OW52942   6.360   7.244   2.519  0.1831  0.1710  0.5408
17455SOL    HW152943   6.333   7.296   2.443  0.6039 -0.7207 -0.2489
17455SOL    HW252944   6.437   7.197   2.488 -0.7485 -1.6656  0.8876
17456SOL     OW52945   2.827   7.998   7.095  0.1450  0.2259  0.1959
17456SOL    HW152946   2.913   8.040   7.095  0.4201 -0.2662 -1.5816
17456SOL    HW252947   2.779   8.041   7.024  0.4196 -2.3346 -1.6759
17457SOL     OW52948   3.540   5.931   0.991  0.0722 -0.8831 -0.0982
17457SOL    HW152949   3.594   5.948   0.914  0.2876  0.8959  0.3844
17457SOL    HW252950   3.450   5.939   0.960  0.0940  3.1441  0.3139
17458SOL     OW52951   3.082   5.068   5.706  0.1135 -0.8138 -0.3014
17458SOL    HW152952   3.154   5.096   5.764  0.1793 -2.0984  0.2662
17458SOL    HW252953   3.005   5.066   5.763 -0.3042  0.0811 -0.7998
17459SOL     OW52954   7.003   3.237   2.572  0.0271  0.1121  0.0708
17459SOL    HW152955   6.936   3.171   2.551  0.0612  0.2186 -0.3884
17459SOL    HW252956   7.000   3.244   2.667  0.5276 -1.0977  0.2041
17460SOL     OW52957   0.504   6.489   9.310 -0.6564  0.3885  0.1779
17460SOL    HW152958   0.507   6.409   9.256  0.2811 -0.7785  1.8718
17460SOL    HW252959   0.411   6.500   9.330 -0.8693  0.0852 -0.5679
17461SOL     OW52960   6.481   4.210   1.482 -0.1328 -0.3372 -0.3718
17461SOL    HW152961   6.545   4.139   1.491  2.2236  1.4844 -1.5656
17461SOL    HW252962   6.414   4.175   1.424  0.6138 -1.8034 -0.4060
17462SOL     OW52963   7.831   9.615   5.632  0.2891 -0.4285  0.1310
17462SOL    HW152964   7.918   9.596   5.667  0.5352 -1.2560 -0.8860
17462SOL    HW252965   7.811   9.703   5.664  1.8415  0.1032 -0.2557
17463SOL     OW52966   7.397   2.602   1.336  0.5460 -0.6687  0.4632
17463SOL    HW152967   7.480   2.563   1.365  1.0087 -0.3875 -0.4222
17463SOL    HW252968   7.374   2.663   1.405  1.4403 -0.2531  0.4136
17464SOL     OW52969   8.255   3.035   4.298  0.5308 -0.6211  0.0367
17464SOL    HW152970   8.179   3.061   4.246  0.3859  2.5381  1.6047
17464SOL    HW252971   8.323   3.019   4.233 -0.4175  0.3393 -1.2587
17465SOL     OW52972   1.182   7.994   0.791 -0.1794 -0.2125  0.0989
17465SOL    HW152973   1.090   7.973   0.776 -0.4595  0.1987  1.1460
17465SOL    HW252974   1.183   8.089   0.798  0.5950 -0.0629 -1.5079
17466SOL     OW52975   4.651   4.319   6.524 -0.3608 -0.3158  0.3866
17466SOL    HW152976   4.668   4.394   6.466 -2.0350  0.2313  0.5553
17466SOL    HW252977   4.692   4.245   6.479  1.0676  0.6242  0.0643
17467SOL     OW52978   3.008   4.784   2.285  0.0287  0.0214  0.0397
17467SOL    HW152979   3.060   4.809   2.208 -0.4099  0.5928 -0.0762
17467SOL    HW252980   2.951   4.714   2.254  1.5628 -1.4899  0.4714
17468SOL     OW52981   7.444   4.584   2.892 -0.5752 -0.6459  0.7540
17468SOL    HW152982   7.354   4.587   2.923 -0.7188 -1.0711  0.3888
17468SOL    HW252983   7.486   4.660   2.932 -1.6055  0.7608 -0.7207
17469SOL     OW52984   3.523   8.152   9.095 -0.1201 -0.1416 -0.2611
17469SOL    HW152985   3.475   8.217   9.147 -2.2784 -0.8466 -1.2801
17469SOL    HW252986   3.558   8.091   9.160 -1.1821  0.0230  0.4837
17470SOL     OW52987   9.740   0.394   1.482  0.3568 -0.2182  0.8078
17470SOL    HW152988   9.720   0.458   1.414  0.9242 -0.1750  0.6755
17470SOL    HW252989   9.821   0.352   1.452  0.3981 -0.4688  1.2651
17471SOL     OW52990   8.183   1.566   4.067  0.1214  0.1173  0.2187
17471SOL    HW152991   8.219   1.481   4.039 -0.3126 -0.0309  0.0951
17471SOL    HW252992   8.200   1.624   3.993  0.0012  0.0168  0.1108
17472SOL     OW52993   7.697   4.451   0.102 -0.1812 -0.0823  0.4327
17472SOL    HW152994   7.772   4.467   0.159 -1.0606  0.2736  1.5257
17472SOL    HW252995   7.656   4.372   0.136 -0.0313 -0.5600 -0.4650
17473SOL     OW52996   8.641   8.295   8.888 -0.5984 -0.2389 -0.2393
17473SOL    HW152997   8.707   8.298   8.819  0.2383 -0.2407  0.5499
17473SOL    HW252998   8.565   8.340   8.850  0.5258  1.5755 -0.4563
17474SOL     OW52999   6.744   6.097   1.643 -0.4029 -0.3198  0.0937
17474SOL    HW153000   6.792   6.053   1.714 -0.2604 -1.5435 -0.7237
17474SOL    HW253001   6.792   6.072   1.564 -0.3330  1.3420 -0.4119
17475SOL     OW53002   5.811   6.109   0.677  0.5432 -0.2689  0.0329
17475SOL    HW153003   5.861   6.099   0.596  0.6677 -0.8316  0.1789
17475SOL    HW253004   5.874   6.094   0.747  0.4122  0.1062  0.2403
17476SOL     OW53005   6.043   4.182   7.832 -0.2624 -0.1044 -0.5374
17476SOL    HW153006   6.009   4.255   7.780 -0.4290 -0.2456 -0.6272
17476SOL    HW253007   6.087   4.224   7.905 -0.7408  0.0807 -0.3503
17477SOL     OW53008   7.255   4.056   0.316 -0.4322  0.0695  0.1823
17477SOL    HW153009   7.234   4.122   0.382 -0.3879  0.2429  0.0265
17477SOL    HW253010   7.177   4.002   0.309 -0.2588 -0.2558  0.7346
17478SOL     OW53011   3.210   2.012   2.994 -0.2781 -0.0784 -0.0893
17478SOL    HW153012   3.199   2.107   2.996 -1.5742 -0.2117 -0.0960
17478SOL    HW253013   3.214   1.987   3.087  0.5980  0.0248 -0.0902
17479SOL     OW53014   4.132   0.737   3.989  0.0126 -0.4229 -0.1774
17479SOL    HW153015   4.121   0.789   4.069 -1.1660  0.8581 -1.1173
17479SOL    HW253016   4.049   0.691   3.979 -0.6910  1.0803 -1.7515
17480SOL     OW53017   4.956   6.196   5.278  0.0558  0.2505  0.3210
17480SOL    HW153018   4.966   6.104   5.302  2.3154  0.0605 -1.0158
17480SOL    HW253019   4.942   6.195   5.183  0.7361  1.2861  0.1886
17481SOL     OW53020   7.416   0.145   4.765 -0.2023 -0.1888  0.3565
17481SOL    HW153021   7.427   0.074   4.828 -1.8552 -0.4518  0.4081
17481SOL    HW253022   7.505   0.171   4.742  0.4389 -0.5255  2.2802
17482SOL     OW53023   9.194   4.201   1.202  0.1709 -0.1692 -0.2210
17482SOL    HW153024   9.180   4.292   1.229  0.0429 -0.8142  2.0376
17482SOL    HW253025   9.127   4.185   1.136 -0.3707  1.1008 -0.0107
17483SOL     OW53026   5.754   8.892   8.527  0.2952  0.3280  0.0525
17483SOL    HW153027   5.727   8.977   8.564  0.1733  0.2532  0.1367
17483SOL    HW253028   5.849   8.901   8.516 -0.0043  1.3605 -2.2150
17484SOL     OW53029   7.861   3.592   8.678 -0.0279  0.0125 -0.0065
17484SOL    HW153030   7.849   3.595   8.773 -1.5385  0.1958 -0.1708
17484SOL    HW253031   7.940   3.642   8.662 -1.2469  2.3728  0.9525
17485SOL     OW53032   3.682   0.316   0.148 -0.0018  0.1277 -0.0063
17485SOL    HW153033   3.660   0.403   0.114  0.3337  0.3996  0.4624
17485SOL    HW253034   3.774   0.304   0.126 -0.0755 -0.1497 -0.1604
17486SOL     OW53035   1.178   6.306   5.710 -0.3759  0.6203  0.8797
17486SOL    HW153036   1.206   6.369   5.644  0.5340  0.5207  1.1550
17486SOL    HW253037   1.115   6.250   5.664  1.1603 -0.2280 -0.2896
17487SOL     OW53038   2.646   6.644   1.679 -0.2691  0.0926 -0.0218
17487SOL    HW153039   2.606   6.558   1.666 -0.6109  0.2210  0.1688
17487SOL    HW253040   2.710   6.629   1.749  1.1664 -0.4638 -1.3883
17488SOL     OW53041   3.496   5.558   7.949 -0.6366 -0.0687 -0.3172
17488SOL    HW153042   3.554   5.565   8.024  2.7316 -2.1877 -2.4784
17488SOL    HW253043   3.451   5.474   7.961 -1.6407  0.5195  0.2233
17489SOL     OW53044   3.142   2.963   8.566  0.0792  0.2634 -0.0801
17489SOL    HW153045   3.174   2.987   8.653 -0.6993 -0.0499  0.2998
17489SOL    HW253046   3.219   2.968   8.510  0.2963  1.9941  0.3160
17490SOL     OW53047   3.010   2.268   2.852 -0.2130 -0.1887  0.5369
17490SOL    HW153048   3.058   2.247   2.772  0.7995 -0.0080  1.0793
17490SOL    HW253049   3.077   2.294   2.914 -0.8719 -1.2685  1.7606
17491SOL     OW53050   7.308   6.773   7.282 -0.1162  0.4083 -0.3894
17491SOL    HW153051   7.342   6.763   7.193  0.1393  0.9859 -0.3615
17491SOL    HW253052   7.304   6.683   7.316 -1.1071  0.0915 -1.2952
17492SOL     OW53053   1.525   7.576   4.702  0.1559 -0.3552  0.5013
17492SOL    HW153054   1.462   7.627   4.652  0.5607 -0.5104 -0.1769
17492SOL    HW253055   1.514   7.606   4.793 -1.1381 -0.6520  0.4494
17493SOL     OW53056   3.101   8.785   5.703  0.3201  0.2156 -0.3443
17493SOL    HW153057   3.127   8.815   5.616 -0.0221  0.8515 -0.2315
17493SOL    HW253058   3.094   8.865   5.755  2.4613 -0.2712  0.8187
17494SOL     OW53059   3.429   0.228   6.569 -0.5888  0.2884  0.0979
17494SOL    HW153060   3.372   0.151   6.569 -0.8065  0.4527  0.0634
17494SOL    HW253061   3.408   0.273   6.650  1.3223 -1.0237  1.4165
17495SOL     OW53062   8.085   6.788   4.931  0.1444  0.0218  0.4917
17495SOL    HW153063   8.046   6.844   4.998 -1.5711 -0.9795  0.3753
17495SOL    HW253064   8.152   6.738   4.978  2.7060  2.9772  0.3546
17496SOL     OW53065   9.248   0.861   3.015  0.3523  0.0261 -0.1921
17496SOL    HW153066   9.291   0.946   3.003 -0.3794  0.2700 -1.2391
17496SOL    HW253067   9.319   0.802   3.039  0.7662  1.0663  1.2896
17497SOL     OW53068   8.692   1.135   8.733 -0.7337  0.0771  0.5712
17497SOL    HW153069   8.760   1.068   8.720 -0.4066  0.6400 -0.7936
17497SOL    HW253070   8.613   1.086   8.756 -0.4634 -0.7771 -0.2837
17498SOL     OW53071   2.624   5.766   0.483 -0.2814  0.3917 -0.4241
17498SOL    HW153072   2.687   5.706   0.522  1.6339  2.1326 -0.6505
17498SOL    HW253073   2.673   5.808   0.411 -2.4251  0.1842 -2.1030
17499SOL     OW53074   8.815   8.187   8.631  0.4528 -0.0539  0.1672
17499SOL    HW153075   8.851   8.272   8.605 -0.9602  1.0490  1.6191
17499SOL    HW253076   8.784   8.149   8.549  0.0011  1.4004 -0.3759
17500SOL     OW53077   5.822   0.552   5.898 -0.0706 -0.5307  0.0535
17500SOL    HW153078   5.746   0.510   5.939 -0.6221 -0.2337 -0.6400
17500SOL    HW253079   5.863   0.482   5.847 -0.6966 -0.3704 -0.6928
17501SOL     OW53080   0.224   9.264   6.333 -0.3835  0.3318  0.5629
17501SOL    HW153081   0.201   9.348   6.293 -2.8320 -0.7024 -0.4380
17501SOL    HW253082   0.265   9.287   6.416 -2.9639  2.5850  1.3835
17502SOL     OW53083   5.747   2.151   4.100 -0.0265 -0.4123  0.1255
17502SOL    HW153084   5.687   2.080   4.078  0.5304 -0.7459 -0.3365
17502SOL    HW253085   5.826   2.106   4.130 -0.2485  0.0222  1.4375
17503SOL     OW53086   7.896   3.029   0.376 -0.7697 -0.4310  0.2131
17503SOL    HW153087   7.914   3.001   0.287 -0.9162  0.6237 -0.1678
17503SOL    HW253088   7.983   3.048   0.413 -0.6902 -1.1390  0.3875
17504SOL     OW53089   4.651   1.880   5.193 -0.1792  0.0117  0.3169
17504SOL    HW153090   4.567   1.919   5.170 -0.3343 -0.5367 -0.0714
17504SOL    HW253091   4.636   1.838   5.278 -1.2327 -2.7455 -1.0745
17505SOL     OW53092   8.056   1.199   1.962 -0.0344 -0.0978  0.7590
17505SOL    HW153093   8.083   1.174   1.874  0.1549  0.4680  0.6499
17505SOL    HW253094   8.115   1.153   2.020 -0.8038 -1.2821  0.6378
17506SOL     OW53095   4.431   3.817   9.615 -0.1312 -0.3484 -0.1872
17506SOL    HW153096   4.427   3.811   9.710 -0.3024 -0.3571 -0.1955
17506SOL    HW253097   4.470   3.903   9.598  0.4859 -0.6036 -0.1013
17507SOL     OW53098   8.555   4.507   0.790 -0.2797  0.2363  0.4097
17507SOL    HW153099   8.623   4.573   0.775  0.0353  0.2510  1.8299
17507SOL    HW253100   8.537   4.472   0.702  3.0781 -1.2591  0.1311
17508SOL     OW53101   7.846   0.442   4.350  0.2066  0.2508 -0.1264
17508SOL    HW153102   7.782   0.421   4.282  0.3185 -1.2903  0.2233
17508SOL    HW253103   7.792   0.467   4.426  0.0770  1.3265 -0.5467
17509SOL     OW53104   4.537   0.180   5.922  0.0781 -0.4936 -0.3574
17509SOL    HW153105   4.581   0.201   6.005  0.2679 -2.6174  0.1488
17509SOL    HW253106   4.544   0.085   5.915 -1.6526 -0.5643 -1.8624
17510SOL     OW53107   2.716   1.170   3.489 -0.3966 -0.2718 -0.1287
17510SOL    HW153108   2.627   1.146   3.515 -0.6098 -0.7288 -1.2497
17510SOL    HW253109   2.708   1.260   3.456 -0.1256  0.3078  1.2754
17511SOL     OW53110   6.950   3.039   8.551  0.0837 -0.0651  0.1673
17511SOL    HW153111   6.950   3.045   8.646  1.0894  0.3213  0.1436
17511SOL    HW253112   7.036   3.069   8.524 -0.4285  0.4973 -0.9136
17512SOL     OW53113   3.086   8.579   6.604  0.2756  0.1068 -0.4394
17512SOL    HW153114   3.167   8.545   6.565  0.4498  0.9414 -0.8113
17512SOL    HW253115   3.084   8.540   6.691 -0.2956 -2.0990 -1.3441
17513SOL     OW53116   3.642   2.366   7.602  0.2767  0.3208 -0.5328
17513SOL    HW153117   3.635   2.446   7.549  0.6285 -0.2041 -1.4000
17513SOL    HW253118   3.650   2.296   7.537 -0.8881 -0.5160  0.1901
17514SOL     OW53119   5.222   8.735   3.483 -0.6132 -0.7892  0.0681
17514SOL    HW153120   5.252   8.768   3.398 -1.1549 -0.4054  0.0219
17514SOL    HW253121   5.257   8.646   3.488  0.6528 -0.3117  0.0822
17515SOL     OW53122   4.967   5.600   9.700 -0.5994 -0.2993 -0.9966
17515SOL    HW153123   5.035   5.563   9.644  0.5745 -0.4895  0.4875
17515SOL    HW253124   4.950   5.532   9.766 -1.9905 -0.1128 -1.1381
17516SOL     OW53125   7.287   9.713   3.041  0.1125  0.5230 -0.5887
17516SOL    HW153126   7.195   9.715   3.067  0.3466 -1.0159  0.4669
17516SOL    HW253127   7.318   9.627   3.067  1.9206  1.0840 -0.7258
17517SOL     OW53128   2.693   5.910   9.922  0.5388 -0.8879 -0.0355
17517SOL    HW153129   2.662   5.907  10.013  0.7266 -1.0941  0.0214
17517SOL    HW253130   2.657   5.831   9.882 -0.2081 -0.4003 -0.3569
17518SOL     OW53131   5.631   6.133   7.023 -0.3152 -0.2679 -0.1495
17518SOL    HW153132   5.585   6.167   6.947 -0.4572 -0.2929 -0.0750
17518SOL    HW253133   5.664   6.210   7.069  1.5235 -0.2910 -1.3046
17519SOL     OW53134   4.983   6.865   4.809 -0.5600 -0.3759  0.6956
17519SOL    HW153135   5.065   6.816   4.813 -1.0337 -1.3062 -0.3874
17519SOL    HW253136   4.936   6.842   4.889  0.0469 -0.1774  1.1096
17520SOL     OW53137   5.321   7.429   1.841 -0.4072  0.3823  0.1021
17520SOL    HW153138   5.302   7.491   1.912 -1.6036  0.3615 -0.1918
17520SOL    HW253139   5.389   7.473   1.790  0.3823  0.4595  1.1678
17521SOL     OW53140   4.356   2.434   2.279  0.3711 -0.3794 -0.1087
17521SOL    HW153141   4.314   2.360   2.323  0.3194  1.2405  2.7611
17521SOL    HW253142   4.288   2.471   2.223 -0.3910 -0.9234  0.4462
17522SOL     OW53143   4.034   6.510   0.739  0.1860 -0.8115  0.3756
17522SOL    HW153144   4.034   6.419   0.708  0.1958 -0.3431 -1.0825
17522SOL    HW253145   3.979   6.509   0.817  0.0024 -2.0248  0.2473
17523SOL     OW53146   8.303   6.223   1.733 -0.4096 -0.2698 -0.2654
17523SOL    HW153147   8.357   6.146   1.713 -0.6190 -0.4082 -0.2947
17523SOL    HW253148   8.213   6.195   1.716 -0.4036  0.3243 -1.3769
17524SOL     OW53149   3.972   0.268   6.614  0.2458 -0.0353 -0.2460
17524SOL    HW153150   3.963   0.358   6.582  2.3614  0.1571 -0.4660
17524SOL    HW253151   4.065   0.260   6.635 -0.1774 -1.7195  1.2034
17525SOL     OW53152   7.538   3.900   5.198 -0.2795  0.2015  0.3193
17525SOL    HW153153   7.571   3.926   5.284 -0.7988 -0.6987  0.8110
17525SOL    HW253154   7.520   3.806   5.207 -0.9808  0.2410 -0.5688
17526SOL     OW53155   0.043   4.151   7.232 -0.3992  0.6468 -0.1176
17526SOL    HW153156  -0.002   4.074   7.267 -0.6296  0.4302 -0.8513
17526SOL    HW253157   0.079   4.195   7.308 -1.2653  0.4413  0.4318
17527SOL     OW53158   3.683   1.962   3.269  0.3540 -0.2087  0.4571
17527SOL    HW153159   3.699   2.008   3.352  1.3560 -1.0129  0.7338
17527SOL    HW253160   3.665   1.871   3.295 -1.0258 -0.1228 -0.1130
17528SOL     OW53161   2.928   8.076   4.668  0.4422  0.3874 -0.2290
17528SOL    HW153162   2.868   8.125   4.612  0.7659  0.4317 -0.5422
17528SOL    HW253163   2.917   7.985   4.640 -0.0527  0.2948  0.2529
17529SOL     OW53164   8.043   0.378   7.964  0.6288 -0.1271 -0.1230
17529SOL    HW153165   8.124   0.352   7.921  0.3564 -0.2387 -0.5860
17529SOL    HW253166   8.054   0.472   7.982  0.2293  0.2498 -1.6746
17530SOL     OW53167   1.219   9.761   3.886  0.5516 -0.0223  0.2032
17530SOL    HW153168   1.228   9.718   3.972 -1.3222  0.2925  0.5960
17530SOL    HW253169   1.162   9.703   3.836 -0.3340  0.9830  0.0205
17531SOL     OW53170   5.491   8.636   5.116  0.1632 -0.6609  0.0672
17531SOL    HW153171   5.446   8.694   5.179 -0.1043  1.6575 -2.0971
17531SOL    HW253172   5.573   8.612   5.160  0.4422  1.6649  0.9722
17532SOL     OW53173   1.470   6.870   5.829  0.3629  0.7649 -0.0883
17532SOL    HW153174   1.433   6.809   5.893  0.8716  0.6296  0.0786
17532SOL    HW253175   1.406   6.872   5.758  1.2914 -1.5608 -1.0922
17533SOL     OW53176   0.698   5.309   6.361  0.2687 -0.3587  0.4750
17533SOL    HW153177   0.790   5.287   6.345  0.4475  0.4112  0.3998
17533SOL    HW253178   0.649   5.235   6.325  0.8584 -0.8141  0.5840
17534SOL     OW53179   4.228   4.510   0.593 -0.4894  0.1888  0.6215
17534SOL    HW153180   4.169   4.439   0.569 -0.4783  0.0796  0.9099
17534SOL    HW253181   4.305   4.498   0.538  0.7984 -1.8046  2.6799
17535SOL     OW53182   8.863   5.231   1.845  0.6947 -0.3062  0.2047
17535SOL    HW153183   8.805   5.306   1.855  1.7380  0.9219 -2.1787
17535SOL    HW253184   8.807   5.160   1.814  0.1221  0.2281  0.0180
17536SOL     OW53185   0.539   7.215   8.902 -0.7367  0.3148  0.0330
17536SOL    HW153186   0.588   7.231   8.821 -3.3849 -0.7899 -1.9640
17536SOL    HW253187   0.552   7.122   8.920 -0.8825  0.3535  0.3480
17537SOL     OW53188   7.629   0.713   1.785  0.2652  0.4952  0.2444
17537SOL    HW153189   7.608   0.689   1.875  3.5800 -0.7271  0.8399
17537SOL    HW253190   7.615   0.808   1.782 -0.6877  0.4461  1.7753
17538SOL     OW53191   6.589   0.346   0.218  0.0418 -0.0285 -0.1744
17538SOL    HW153192   6.658   0.373   0.279 -0.4859  0.7653  0.0911
17538SOL    HW253193   6.518   0.408   0.233  0.1873  0.7149 -2.1547
17539SOL     OW53194   6.498   6.034   1.564  0.0767 -0.0414 -0.4965
17539SOL    HW153195   6.581   6.055   1.607 -0.8069  2.4501  0.1057
17539SOL    HW253196   6.448   5.986   1.630  1.2153 -2.2597 -1.1082
17540SOL     OW53197   5.845   7.152   2.643  0.4537 -0.1773 -0.0929
17540SOL    HW153198   5.811   7.182   2.728  0.3329  0.7821 -0.4650
17540SOL    HW253199   5.857   7.233   2.593  0.2051 -0.7613 -1.1121
17541SOL     OW53200   4.668   4.179   4.128  0.2382  0.3442 -0.2789
17541SOL    HW153201   4.738   4.143   4.073  0.4810  0.0210  0.2326
17541SOL    HW253202   4.653   4.112   4.194  0.3925  0.9985  0.4275
17542SOL     OW53203   4.329   0.322   7.599 -0.1980 -0.3652 -0.6215
17542SOL    HW153204   4.331   0.294   7.691 -0.2462 -0.3509 -0.6159
17542SOL    HW253205   4.407   0.378   7.589 -0.7758  0.5101 -0.3086
17543SOL     OW53206   5.685   0.371   2.253 -0.2467  0.3075 -0.3257
17543SOL    HW153207   5.641   0.290   2.228 -1.7947  1.3758 -1.2814
17543SOL    HW253208   5.648   0.438   2.194 -2.2506  2.5067  3.0589
17544SOL     OW53209   3.312   6.830   8.168 -0.6245 -0.0755  0.0382
17544SOL    HW153210   3.249   6.761   8.186  0.0047 -1.3088 -2.2062
17544SOL    HW253211   3.281   6.871   8.088  0.4910  0.4445 -0.1490
17545SOL     OW53212   3.077   3.231   6.748  0.6993 -0.6903  0.8359
17545SOL    HW153213   2.983   3.222   6.735  0.4980  1.7245  0.0737
17545SOL    HW253214   3.088   3.320   6.782  2.6450 -1.2422  1.8226
17546SOL     OW53215   7.202   4.760   6.038  0.1175 -0.4330  0.2736
17546SOL    HW153216   7.134   4.827   6.044  1.4145  1.0253 -0.3566
17546SOL    HW253217   7.270   4.789   6.099  0.9671 -0.8036 -0.4607
17547SOL     OW53218   4.185   1.230   3.321  0.2408  0.6627  0.4688
17547SOL    HW153219   4.205   1.145   3.360  1.5160  1.1132  0.8505
17547SOL    HW253220   4.119   1.211   3.255 -0.0683 -0.5071  1.0826
17548SOL     OW53221   8.665   1.351   8.920  0.1570 -0.2251 -0.2298
17548SOL    HW153222   8.657   1.420   8.855  1.1172  0.4263  0.3285
17548SOL    HW253223   8.674   1.271   8.869  1.7814  0.3769 -0.9252
17549SOL     OW53224   5.113   6.156   4.109 -0.0013 -0.5910 -0.2333
17549SOL    HW153225   5.122   6.191   4.020  1.8914  0.7090  0.4043
17549SOL    HW253226   5.194   6.107   4.124 -0.4215 -1.0293  0.6767
17550SOL     OW53227   4.874   6.448   3.850  0.1207  0.0567  0.1671
17550SOL    HW153228   4.798   6.390   3.846 -0.2088  0.3246  1.7425
17550SOL    HW253229   4.887   6.477   3.760 -1.2604 -0.4866 -0.2352
17551SOL     OW53230   7.102   5.622   8.838 -0.4263 -0.0306 -0.9087
17551SOL    HW153231   7.070   5.707   8.867 -0.1066 -0.0727 -0.4080
17551SOL    HW253232   7.103   5.627   8.743  2.0402  1.4810 -0.9024
17552SOL     OW53233   1.153   8.199   2.002  0.1982 -0.0641 -0.4650
17552SOL    HW153234   1.192   8.285   1.987  0.5271 -0.0781  0.2597
17552SOL    HW253235   1.060   8.216   2.013  0.1227  0.0827 -1.2938
17553SOL     OW53236   9.885   9.544   6.565  0.0749  0.4270 -0.4932
17553SOL    HW153237   9.968   9.501   6.587 -0.1823  0.5345  0.7122
17553SOL    HW253238   9.879   9.617   6.626 -1.5421 -0.3566  0.3409
17554SOL     OW53239   4.229   2.237   4.801 -0.2207  0.0363  0.0997
17554SOL    HW153240   4.270   2.151   4.798  0.3907  0.2224  1.8717
17554SOL    HW253241   4.144   2.221   4.842  0.5254  0.4519  1.8921
17555SOL     OW53242   9.301   5.275   9.976  0.1503  0.5631 -0.0673
17555SOL    HW153243   9.275   5.216  10.047 -0.9124  0.6287 -0.3980
17555SOL    HW253244   9.283   5.226   9.896  0.8681  0.6895 -0.3205
17556SOL     OW53245   6.642   0.054   8.708  0.0171 -0.2335  0.0590
17556SOL    HW153246   6.640   0.068   8.803  1.0369 -1.3123  0.2626
17556SOL    HW253247   6.554   0.078   8.678 -0.2105  0.4562  1.2150
17557SOL     OW53248   7.259   4.223   6.784 -0.8703  0.2072 -1.2209
17557SOL    HW153249   7.177   4.177   6.804 -0.1616 -0.8810 -0.6789
17557SOL    HW253250   7.313   4.156   6.742  0.4310  0.3583  0.1541
17558SOL     OW53251   2.676   8.388   2.382 -0.4144 -0.9193 -0.5744
17558SOL    HW153252   2.679   8.474   2.424  0.1091 -1.4102  0.4165
17558SOL    HW253253   2.639   8.405   2.296 -0.7159  0.2390 -0.2323
17559SOL     OW53254   5.904   9.284   5.847 -0.5123  0.4641  0.4444
17559SOL    HW153255   5.957   9.236   5.911  0.1631 -0.5076 -0.8054
17559SOL    HW253256   5.896   9.225   5.773 -2.3965  1.0439  0.1133
17560SOL     OW53257   5.623   6.925   9.382 -0.0696 -0.8361  0.4538
17560SOL    HW153258   5.577   7.002   9.349 -0.7631 -0.9432  1.1459
17560SOL    HW253259   5.607   6.858   9.315  1.4189 -0.1220 -0.6841
17561SOL     OW53260   1.383   5.117   2.975 -0.1029  0.2743 -0.5438
17561SOL    HW153261   1.447   5.078   3.035 -0.6386  0.9644  0.5189
17561SOL    HW253262   1.415   5.096   2.888  2.0610  1.3727 -0.0769
17562SOL     OW53263   8.318   3.422   5.351 -0.2001 -0.2069 -0.4493
17562SOL    HW153264   8.309   3.508   5.392 -0.0313  0.7866 -2.4093
17562SOL    HW253265   8.413   3.406   5.348 -0.1809  0.0005 -0.9953
17563SOL     OW53266   0.880   0.356   8.097  0.6154 -0.5048 -0.7429
17563SOL    HW153267   0.833   0.347   8.179  0.9315  1.0414 -0.3669
17563SOL    HW253268   0.831   0.421   8.047  0.7283 -1.0288 -1.5523
17564SOL     OW53269   1.939   9.565   7.372 -0.6296 -0.2709 -0.0980
17564SOL    HW153270   1.857   9.562   7.421 -1.3541 -0.4967 -1.3062
17564SOL    HW253271   1.921   9.619   7.296  0.4559 -0.0145 -0.1988
17565SOL     OW53272   2.765   6.059   1.667 -0.4845  0.5872 -0.4603
17565SOL    HW153273   2.758   5.996   1.739 -1.8347  0.4650 -0.6806
17565SOL    HW253274   2.859   6.069   1.654 -0.2186 -1.2936 -0.3262
17566SOL     OW53275   8.924   3.278   1.273  0.2107  0.3825 -0.3483
17566SOL    HW153276   9.010   3.319   1.274  0.7994 -0.7973 -0.3348
17566SOL    HW253277   8.913   3.247   1.183  0.9260 -1.6713  0.2190
17567SOL     OW53278   7.102   9.312   3.974 -0.1609  0.3588 -0.2692
17567SOL    HW153279   7.012   9.343   3.977 -0.8658 -1.6047  0.4538
17567SOL    HW253280   7.151   9.374   4.029 -1.2639  0.8384  0.1941
17568SOL     OW53281   5.363   7.508   6.335 -0.6678  0.3789 -0.4822
17568SOL    HW153282   5.437   7.547   6.382  0.6845 -0.7190 -1.5928
17568SOL    HW253283   5.335   7.435   6.390  1.0569 -1.0457 -1.3690
17569SOL     OW53284   1.124   9.687   4.152 -0.0200 -0.4408 -0.0491
17569SOL    HW153285   1.100   9.722   4.238  1.5122 -0.8278  0.5679
17569SOL    HW253286   1.097   9.595   4.155 -1.5517 -0.0430 -0.6585
17570SOL     OW53287   2.896   0.093   2.341  0.6074 -0.4095  0.3133
17570SOL    HW153288   2.965   0.124   2.282  0.8177  1.7197  1.5909
17570SOL    HW253289   2.891   0.159   2.410 -1.8589 -1.1611  0.9617
17571SOL     OW53290   8.918   5.847   7.159  0.2020 -0.1105 -0.1653
17571SOL    HW153291   8.850   5.794   7.201  0.3908  0.3267  0.7278
17571SOL    HW253292   9.000   5.815   7.198  0.3217  0.7731  0.3314
17572SOL     OW53293   9.710   6.664   3.691 -0.1486  0.0145  0.2282
17572SOL    HW153294   9.697   6.569   3.698  0.3317 -0.2612 -1.8723
17572SOL    HW253295   9.636   6.694   3.638 -0.0511  0.7324  0.4939
17573SOL     OW53296   1.890   2.942   6.525 -0.2648  0.0194  0.0777
17573SOL    HW153297   1.891   2.954   6.430 -2.1115 -0.4891 -0.0510
17573SOL    HW253298   1.854   3.024   6.559 -0.3486 -0.0936  0.2650
17574SOL     OW53299   7.569   3.410   6.845 -0.5848 -0.6642  0.0905
17574SOL    HW153300   7.649   3.412   6.898 -0.2231 -1.8669 -0.3670
17574SOL    HW253301   7.592   3.457   6.765 -0.6126 -0.2673  0.3129
17575SOL     OW53302   6.596   0.659   1.853  0.4564 -0.3355  0.3055
17575SOL    HW153303   6.530   0.727   1.864 -1.4320 -1.6968 -1.6258
17575SOL    HW253304   6.671   0.704   1.814  0.2120  1.0272  1.3574
17576SOL     OW53305   0.814   2.011   6.891  0.1932  0.3814 -0.5393
17576SOL    HW153306   0.721   2.034   6.883 -0.3316 -1.6981 -1.1155
17576SOL    HW253307   0.858   2.095   6.905 -1.8172  1.3792  0.3734
17577SOL     OW53308   0.878   3.400   8.196 -0.0673  0.0920  0.5146
17577SOL    HW153309   0.875   3.486   8.238 -3.1051  0.1876  0.3280
17577SOL    HW253310   0.889   3.339   8.269 -0.7034  0.5255  0.9900
17578SOL     OW53311   0.160   8.657   8.749 -0.1510 -0.0113 -0.3382
17578SOL    HW153312   0.171   8.600   8.673 -0.3756 -0.7733  0.1860
17578SOL    HW253313   0.164   8.598   8.824 -0.9896  0.5750  0.1966
17579SOL     OW53314   1.816   4.861   0.857  0.2266 -0.3486 -0.3418
17579SOL    HW153315   1.727   4.894   0.844  0.6806  1.2601  0.4812
17579SOL    HW253316   1.872   4.921   0.808  1.2409  1.2585  2.5540
17580SOL     OW53317   7.411   1.560   1.871 -0.2309 -0.6311 -0.3270
17580SOL    HW153318   7.417   1.600   1.784 -0.1669 -0.5837 -0.3018
17580SOL    HW253319   7.320   1.571   1.896 -0.5870 -1.9416 -0.9920
17581SOL     OW53320   5.358   2.482   8.465  0.2663 -0.6293  0.3115
17581SOL    HW153321   5.439   2.450   8.426 -0.8021 -1.4754 -1.3278
17581SOL    HW253322   5.382   2.566   8.504  2.1347 -1.3208  0.7383
17582SOL     OW53323   5.023   0.663   6.259 -0.2723  0.0469 -0.0287
17582SOL    HW153324   5.042   0.720   6.185 -3.0150 -1.0188 -1.7317
17582SOL    HW253325   5.092   0.682   6.323  0.5429  3.1615 -1.6213
17583SOL     OW53326   8.880   0.508   6.662 -0.0704  0.9740  0.2791
17583SOL    HW153327   8.874   0.488   6.569  2.0838 -0.0164  0.2963
17583SOL    HW253328   8.960   0.560   6.671  1.2662 -1.1773  1.8464
17584SOL     OW53329   4.481   9.278   0.246  0.4104 -0.4452 -0.5370
17584SOL    HW153330   4.399   9.311   0.210  0.7955  0.4813 -0.6116
17584SOL    HW253331   4.485   9.313   0.335  1.4493  0.8745 -1.0659
17585SOL     OW53332   7.017   7.644   5.680 -0.0689 -0.1522  0.0860
17585SOL    HW153333   7.084   7.637   5.612 -0.2467  1.5094 -0.2983
17585SOL    HW253334   6.935   7.656   5.633 -0.6258 -1.8031  0.5654
17586SOL     OW53335   9.829   4.174   1.914 -0.5798  0.1341 -0.3916
17586SOL    HW153336   9.866   4.208   1.995 -3.8843  0.1287  1.2730
17586SOL    HW253337   9.822   4.251   1.857  1.3500  0.2147 -0.5992
17587SOL     OW53338   2.209   2.409   2.869 -0.0095 -0.1965  0.2492
17587SOL    HW153339   2.277   2.473   2.890  0.3959 -0.7465  0.6252
17587SOL    HW253340   2.151   2.411   2.945 -1.5047  1.6420 -0.8424
17588SOL     OW53341   8.328   4.311   9.963 -1.2397 -0.3832  0.2571
17588SOL    HW153342   8.347   4.235   9.909 -1.9655 -0.4591  0.0915
17588SOL    HW253343   8.299   4.379   9.902 -1.9923 -0.4450  0.5250
17589SOL     OW53344   2.634   2.985   8.214 -0.8645 -0.1882 -0.2343
17589SOL    HW153345   2.567   2.991   8.145 -1.6651  0.0448  0.5463
17589SOL    HW253346   2.695   3.056   8.194 -0.4518 -0.8388 -1.3531
17590SOL     OW53347   8.378   7.573   9.719  0.4555  0.2095  0.6625
17590SOL    HW153348   8.331   7.493   9.742 -0.3148 -0.4049 -2.5347
17590SOL    HW253349   8.310   7.637   9.699  1.0424  0.8663  0.7154
17591SOL     OW53350   7.448   6.466   4.012  0.2432 -0.2023  0.1641
17591SOL    HW153351   7.375   6.496   3.957  1.4147  1.8320 -0.4031
17591SOL    HW253352   7.526   6.486   3.960  1.2909 -0.3612  1.6272
17592SOL     OW53353   1.531   0.049   2.427  0.5193  0.4148  0.4950
17592SOL    HW153354   1.593  -0.019   2.453 -0.0689 -0.0917  0.6068
17592SOL    HW253355   1.583   0.129   2.426  1.0717  0.0798  1.0442
17593SOL     OW53356   9.905   6.741   6.306 -0.0989 -0.0339  0.2183
17593SOL    HW153357   9.874   6.822   6.266  0.4794 -0.4152 -1.0717
17593SOL    HW253358   9.894   6.754   6.400  1.8916  2.3546  0.2087
17594SOL     OW53359   2.078   3.824   9.269 -0.8225 -0.7729  0.3895
17594SOL    HW153360   1.998   3.772   9.260 -1.3337 -0.0536  0.6295
17594SOL    HW253361   2.091   3.862   9.182 -2.1177  1.0165  0.9091
17595SOL     OW53362   0.551   8.120   1.998  0.2583 -0.2913 -0.8813
17595SOL    HW153363   0.627   8.150   2.048  0.3908 -0.5524 -0.9224
17595SOL    HW253364   0.584   8.047   1.946 -0.2658 -1.1126 -0.0943
17596SOL     OW53365   2.479   8.580   3.949 -0.0461 -0.0766  0.2235
17596SOL    HW153366   2.436   8.641   3.889  1.7361  1.5095  0.4546
17596SOL    HW253367   2.411   8.555   4.011 -1.1131  0.7832 -0.5613
17597SOL     OW53368   4.985   8.996   0.279 -0.1616 -1.0609  0.2750
17597SOL    HW153369   5.011   8.904   0.288 -0.7461 -1.2465  0.0775
17597SOL    HW253370   4.996   9.033   0.367 -3.1728 -2.1759  1.2376
17598SOL     OW53371   3.717   2.396   8.341 -0.2176 -0.4046 -0.6288
17598SOL    HW153372   3.640   2.406   8.285 -0.9089  0.0703  0.3682
17598SOL    HW253373   3.729   2.483   8.380 -2.1893 -1.5399  2.9641
17599SOL     OW53374   4.135   7.338   6.271  0.5062 -0.2509 -0.3389
17599SOL    HW153375   4.138   7.271   6.339  0.2436 -0.9797 -1.0252
17599SOL    HW253376   4.056   7.317   6.220  0.1317  0.8858 -0.2652
17600SOL     OW53377   0.548   0.182   9.455  0.0060  0.1640 -0.2817
17600SOL    HW153378   0.613   0.167   9.387 -0.6513 -1.0850 -0.6586
17600SOL    HW253379   0.468   0.143   9.421 -1.4067  2.9422 -0.4964
17601SOL     OW53380   0.413   1.315   6.557  0.3107 -0.4199 -0.1575
17601SOL    HW153381   0.401   1.376   6.484 -2.2631 -2.4723 -1.6526
17601SOL    HW253382   0.406   1.228   6.517  2.3323 -1.7419  2.0763
17602SOL     OW53383   3.548   3.788   9.198 -0.1711 -0.6338  0.0244
17602SOL    HW153384   3.528   3.725   9.268 -3.7708 -0.0985 -0.3327
17602SOL    HW253385   3.477   3.776   9.135 -0.1340  2.7128 -0.7944
17603SOL     OW53386   6.996   5.037   2.825  0.6284  0.0015 -0.7987
17603SOL    HW153387   6.939   5.027   2.749  0.0689  1.9882 -0.7075
17603SOL    HW253388   7.076   5.076   2.790  1.1290 -0.8513 -0.6239
17604SOL     OW53389   5.906   6.073   3.560  0.4615  0.9821 -0.0599
17604SOL    HW153390   5.968   6.062   3.487 -0.3490 -3.0158 -0.3823
17604SOL    HW253391   5.959   6.056   3.638  0.1347 -1.6184 -0.2891
17605SOL     OW53392   0.767   0.991   6.973  0.0306  0.0172 -0.7417
17605SOL    HW153393   0.858   1.011   6.950 -0.3033 -1.3539 -3.7307
17605SOL    HW253394   0.719   0.999   6.890 -1.9694 -2.4246  0.0395
17606SOL     OW53395   1.056   7.516   4.532  0.0601 -0.1984 -0.2799
17606SOL    HW153396   1.142   7.477   4.522  0.6632  1.5728 -3.1630
17606SOL    HW253397   0.997   7.456   4.485  0.3519  0.2884 -1.3138
17607SOL     OW53398   5.477   9.834   5.186  0.2538  0.1917 -0.4335
17607SOL    HW153399   5.565   9.871   5.185  0.3357  0.0288  0.2046
17607SOL    HW253400   5.486   9.752   5.234 -0.2430  0.1623 -0.3833
17608SOL     OW53401   3.291   1.941   8.391 -0.5176  0.1050 -0.4303
17608SOL    HW153402   3.237   1.931   8.470 -1.2781  0.5352 -0.8894
17608SOL    HW253403   3.229   1.966   8.323  0.2350  0.3763 -1.0220
17609SOL     OW53404   5.086   3.337   7.537  0.0780  0.4103 -0.1469
17609SOL    HW153405   5.026   3.274   7.576 -0.1421  1.0703  0.6029
17609SOL    HW253406   5.103   3.302   7.449 -1.9457  0.5487 -0.6479
17610SOL     OW53407   8.005   1.809   6.795  0.2924  0.0915 -0.0246
17610SOL    HW153408   7.920   1.816   6.838  0.1867  1.8000 -0.4433
17610SOL    HW253409   7.986   1.775   6.707  0.1586 -0.3744  0.1816
17611SOL     OW53410   9.433   2.780   2.539  0.3387  0.0547 -0.3505
17611SOL    HW153411   9.438   2.865   2.582  0.1401 -0.0054 -0.2088
17611SOL    HW253412   9.350   2.781   2.492  0.9814  0.4853 -1.5101
17612SOL     OW53413   1.956   4.214   7.484  0.4720 -0.1001  0.2025
17612SOL    HW153414   1.984   4.125   7.462  0.4761  0.1956 -1.0716
17612SOL    HW253415   2.020   4.243   7.549  1.8181 -0.2500 -0.9892
17613SOL     OW53416   0.052   5.935   5.328 -1.0460 -0.2763 -0.1162
17613SOL    HW153417  -0.006   5.912   5.401  1.2606 -0.0803  1.9354
17613SOL    HW253418   0.140   5.924   5.364  0.2232  2.7607 -1.9104
17614SOL     OW53419   6.134   4.502   6.840 -0.4296  0.3435  0.0298
17614SOL    HW153420   6.223   4.538   6.842 -0.2779 -0.0114 -0.2795
17614SOL    HW253421   6.136   4.437   6.770 -0.9429  0.3564  0.0007
17615SOL     OW53422   3.721   8.351   7.360  0.4525 -0.0731  0.3875
17615SOL    HW153423   3.763   8.433   7.333  0.4905  0.2237  1.3102
17615SOL    HW253424   3.747   8.288   7.293  1.8623  0.2522  0.6006
17616SOL     OW53425   2.444   2.345   8.716  0.2489  0.1436  0.5275
17616SOL    HW153426   2.475   2.320   8.803  1.2603  0.5778  0.3030
17616SOL    HW253427   2.421   2.437   8.723  0.9069  0.3430  0.1968
17617SOL     OW53428   8.360   2.612   5.209 -0.1832 -0.3142  0.3206
17617SOL    HW153429   8.265   2.615   5.211 -0.2029 -1.1627  1.3456
17617SOL    HW253430   8.382   2.596   5.117 -1.0447 -0.4419  0.1338
17618SOL     OW53431   6.156   8.366   7.201 -0.5287 -0.1950 -0.0077
17618SOL    HW153432   6.117   8.298   7.257 -1.1200  0.5158  0.4542
17618SOL    HW253433   6.248   8.368   7.228 -0.7561 -0.0332  0.7737
17619SOL     OW53434   5.748   4.972   1.813  0.1926  0.0746 -0.2388
17619SOL    HW153435   5.704   4.978   1.898 -0.8188  0.0096 -0.7444
17619SOL    HW253436   5.836   4.940   1.834 -0.7894 -2.3132  0.5838
17620SOL     OW53437   9.466   6.718   1.421 -0.3711 -0.4133 -0.4096
17620SOL    HW153438   9.480   6.773   1.344  0.4224  1.6256  1.0945
17620SOL    HW253439   9.384   6.751   1.458 -0.2778 -0.7480  0.0993
17621SOL     OW53440   7.205   1.661   5.957  0.7010 -0.3470 -0.9048
17621SOL    HW153441   7.254   1.581   5.977  1.0535 -0.2828 -1.5114
17621SOL    HW253442   7.161   1.683   6.040 -0.3102 -1.7815 -1.0161
17622SOL     OW53443   2.029   4.708   2.409 -0.1691  0.6495  0.1017
17622SOL    HW153444   1.979   4.784   2.441 -2.4324 -0.4771 -0.5082
17622SOL    HW253445   2.004   4.700   2.317  1.3895  0.1583 -0.3069
17623SOL     OW53446   6.986   0.062   1.741 -0.5150 -0.3686  0.4813
17623SOL    HW153447   6.918   0.128   1.756 -2.3042 -2.2349  0.9521
17623SOL    HW253448   6.949  -0.020   1.773  2.0042 -1.4851  0.8363
17624SOL     OW53449   5.431   7.801   7.909 -0.2344 -0.3535  0.1176
17624SOL    HW153450   5.354   7.775   7.858 -0.1418 -1.1628  0.3714
17624SOL    HW253451   5.395   7.855   7.980 -0.2651  1.6389 -1.3173
17625SOL     OW53452   6.301   2.401   8.254  0.3688  0.1825  0.0124
17625SOL    HW153453   6.349   2.319   8.265  0.0443 -0.0638 -0.3421
17625SOL    HW253454   6.284   2.431   8.343  0.1818 -0.3239  0.1535
17626SOL     OW53455   5.476   0.081   7.777 -0.5765 -0.1718 -0.0772
17626SOL    HW153456   5.466   0.148   7.845 -0.3831 -0.9504  0.7305
17626SOL    HW253457   5.398   0.025   7.787 -1.5019  0.7434 -1.7034
17627SOL     OW53458   2.229   8.189   3.420 -0.0779  0.2129 -0.0467
17627SOL    HW153459   2.227   8.245   3.497 -1.4618  2.3126 -1.5107
17627SOL    HW253460   2.318   8.195   3.387  0.2941 -0.0326  0.8991
17628SOL     OW53461   5.404   8.983   7.391 -0.0609 -0.1691  0.2597
17628SOL    HW153462   5.358   8.909   7.429 -1.6071  0.4650 -0.2832
17628SOL    HW253463   5.416   9.044   7.464 -1.5475  0.3359  0.1259
17629SOL     OW53464   2.742   6.036   8.676  0.5819 -0.4244 -0.2968
17629SOL    HW153465   2.694   6.010   8.754 -0.7149  2.1690 -0.1385
17629SOL    HW253466   2.828   6.063   8.709  0.3866 -0.2909  0.1047
17630SOL     OW53467   8.512   3.206   9.899 -1.1557 -0.5117 -0.2210
17630SOL    HW153468   8.550   3.235   9.816 -0.0789 -1.7427 -0.1968
17630SOL    HW253469   8.494   3.287   9.947  0.2469  0.1704 -0.7871
17631SOL     OW53470   8.658   5.819   2.172  0.0551  0.2320  0.2409
17631SOL    HW153471   8.589   5.792   2.111 -1.3244  1.4011  1.1878
17631SOL    HW253472   8.676   5.741   2.224  0.2600 -0.3963 -0.7518
17632SOL     OW53473   0.555   2.842   4.766  0.0668  0.0761 -0.0503
17632SOL    HW153474   0.502   2.888   4.700 -0.4031 -0.2036  0.1293
17632SOL    HW253475   0.560   2.904   4.839  1.0144  0.5948 -0.5277
17633SOL     OW53476   6.547   8.152   0.519  0.5201 -0.5929  0.1780
17633SOL    HW153477   6.548   8.248   0.519  0.3800 -0.5830 -0.8160
17633SOL    HW253478   6.469   8.130   0.571  1.6247 -0.2247  2.1009
17634SOL     OW53479   9.190   0.621   4.652  0.1388  0.0474  0.4306
17634SOL    HW153480   9.141   0.681   4.708  0.3420 -1.6156  2.4982
17634SOL    HW253481   9.122   0.569   4.609  0.0235  0.0665  0.5880
17635SOL     OW53482   4.989   3.416   1.382 -0.4832 -0.0188  0.2103
17635SOL    HW153483   4.946   3.486   1.431 -1.6846  0.2800 -1.1856
17635SOL    HW253484   5.031   3.461   1.308 -0.6845 -0.6799 -0.3195
17636SOL     OW53485   5.096   3.054   3.993  0.3018 -0.0004 -0.2724
17636SOL    HW153486   5.114   2.969   3.952 -1.8526 -0.0828 -1.1612
17636SOL    HW253487   5.160   3.060   4.064 -0.0303 -2.7466  0.3471
17637SOL     OW53488   8.193   4.752   1.280 -0.3986  0.5073  0.0280
17637SOL    HW153489   8.129   4.707   1.225  0.6404 -0.1652 -0.6725
17637SOL    HW253490   8.195   4.842   1.245  0.8101 -0.0973 -1.6231
17638SOL     OW53491   2.636   2.847   4.390  0.3638  0.1642  0.3337
17638SOL    HW153492   2.560   2.806   4.348  1.1862 -2.9062  1.6069
17638SOL    HW253493   2.709   2.824   4.333  0.8542 -0.1168  1.0763
17639SOL     OW53494   8.384   4.554   0.231  0.3439  0.2736  0.1166
17639SOL    HW153495   8.302   4.506   0.223  0.1366  0.7334 -0.5394
17639SOL    HW253496   8.422   4.522   0.313 -0.0752 -0.5678 -0.0064
17640SOL     OW53497   0.823   3.152   8.385  0.3552 -0.0950 -0.2918
17640SOL    HW153498   0.881   3.221   8.416  0.2073 -0.4209  0.7429
17640SOL    HW253499   0.762   3.136   8.458  0.0366 -0.9243 -0.7203
17641SOL     OW53500   2.176   6.585   9.747 -0.1116  0.0840 -0.5637
17641SOL    HW153501   2.148   6.556   9.660  0.1467 -2.3108  0.0594
17641SOL    HW253502   2.271   6.590   9.740 -0.2364  3.5834 -1.3718
17642SOL     OW53503   8.884   0.512   8.296 -0.2444 -0.0162 -0.4483
17642SOL    HW153504   8.876   0.432   8.348 -0.9203 -0.2599 -0.9032
17642SOL    HW253505   8.820   0.572   8.336 -1.0789 -0.3519 -1.2355
17643SOL     OW53506   1.256   1.596   0.236 -0.0112  0.2909  1.1215
17643SOL    HW153507   1.244   1.608   0.330 -1.3521 -0.0898  1.0245
17643SOL    HW253508   1.171   1.563   0.205  1.2322 -2.4591  0.2748
17644SOL     OW53509   5.923   4.818   7.741 -0.6950 -0.5700 -0.3086
17644SOL    HW153510   5.883   4.774   7.816 -0.4549 -0.7838 -0.3078
17644SOL    HW253511   6.014   4.787   7.740 -0.4970 -0.0140 -0.2511
17645SOL     OW53512   3.034   6.619   5.217 -0.2255  0.2972 -0.1084
17645SOL    HW153513   3.100   6.686   5.197 -2.2888  1.9930 -1.6185
17645SOL    HW253514   2.972   6.662   5.275 -1.8957 -0.0627 -1.5424
17646SOL     OW53515   6.325   7.675   6.512 -0.7607 -0.2845 -0.7714
17646SOL    HW153516   6.242   7.680   6.559 -0.0028 -1.9939  0.8813
17646SOL    HW253517   6.353   7.766   6.503 -1.6229  0.1877  0.8943
17647SOL     OW53518   9.073   9.625   6.227 -0.2641 -0.0224  0.2086
17647SOL    HW153519   9.013   9.570   6.278  1.4058 -1.5652  0.6004
17647SOL    HW253520   9.043   9.614   6.136 -0.0295 -1.5547  0.2898
17648SOL     OW53521   4.310   3.729   1.844 -0.7135  0.3089 -0.1985
17648SOL    HW153522   4.300   3.778   1.926  2.1205 -0.0035  0.4251
17648SOL    HW253523   4.383   3.772   1.799  0.1031 -1.6635 -0.8792
17649SOL     OW53524   7.924   7.220   6.946 -0.3031  0.3472 -0.1506
17649SOL    HW153525   8.014   7.221   6.913 -0.6050  1.4004 -1.0208
17649SOL    HW253526   7.924   7.287   7.014 -0.4051  0.3140 -0.1186
17650SOL     OW53527   1.153   7.299   4.325 -0.4284 -0.2649 -0.4872
17650SOL    HW153528   1.167   7.278   4.233 -0.2172  0.4877 -0.6362
17650SOL    HW253529   1.190   7.225   4.372 -1.4772 -1.1626 -1.0186
17651SOL     OW53530   4.091   5.493   7.756  0.2678 -0.2273  0.1270
17651SOL    HW153531   4.077   5.411   7.708  1.8795 -1.2501  1.3015
17651SOL    HW253532   4.056   5.477   7.843  0.3424  0.4470  0.2898
17652SOL     OW53533   5.395   1.259   3.334 -0.3811  0.2086 -0.7064
17652SOL    HW153534   5.306   1.260   3.298 -0.3593  2.4192 -0.8408
17652SOL    HW253535   5.402   1.342   3.382  0.8696 -0.9386  1.2563
17653SOL     OW53536   1.162   6.638   4.581 -0.2276  0.1176  0.1446
17653SOL    HW153537   1.225   6.587   4.634  0.4741  1.6884  0.8928
17653SOL    HW253538   1.077   6.613   4.616  0.2300  1.4295  2.3985
17654SOL     OW53539   7.495   3.011   5.732  0.6077 -0.7446  0.1229
17654SOL    HW153540   7.557   2.944   5.758  0.0081 -0.5376  2.3488
17654SOL    HW253541   7.409   2.968   5.737  0.3158 -0.1447  0.4839
17655SOL     OW53542   0.416   2.172   5.082 -0.4999  0.1977  0.1491
17655SOL    HW153543   0.384   2.120   5.009  1.4529  2.1280 -2.2979
17655SOL    HW253544   0.377   2.259   5.069  0.7557  0.8795  0.7131
17656SOL     OW53545   8.511   5.615   4.671 -1.3516  0.1313 -0.2692
17656SOL    HW153546   8.495   5.690   4.729 -3.3705  1.3020 -2.1873
17656SOL    HW253547   8.607   5.609   4.666 -1.1358  1.3801  1.4029
17657SOL     OW53548   5.004   2.921   1.023  0.1732  0.2644  0.4509
17657SOL    HW153549   5.003   3.016   1.035  0.2984  0.8782 -3.1426
17657SOL    HW253550   4.918   2.892   1.050  0.5137  1.1595  2.7118
17658SOL     OW53551   3.547   5.417   1.519  0.0741  0.2919  0.1758
17658SOL    HW153552   3.586   5.483   1.462  0.1086 -0.1705 -0.3491
17658SOL    HW253553   3.504   5.467   1.588  1.0768  0.8285  0.4261
17659SOL     OW53554   4.230   6.967   4.136  0.3410  0.5004 -0.1973
17659SOL    HW153555   4.272   6.913   4.069  0.8818 -0.7256  1.0793
17659SOL    HW253556   4.224   7.054   4.097  2.9378  0.4381 -0.8960
17660SOL     OW53557   4.990   8.574   4.907  0.1155  0.0057 -0.7208
17660SOL    HW153558   4.946   8.582   4.822  0.5606  2.4192 -0.7853
17660SOL    HW253559   4.992   8.480   4.923 -3.3336 -0.3752 -1.6110
17661SOL     OW53560   9.186   3.482   8.348  0.7354 -0.5091 -0.5791
17661SOL    HW153561   9.165   3.402   8.396  1.8890  0.8783  2.4487
17661SOL    HW253562   9.276   3.469   8.318  0.4464 -0.8523 -1.3436
17662SOL     OW53563   2.028   7.909   4.011 -0.5104 -0.3440  0.4925
17662SOL    HW153564   2.108   7.858   3.997 -1.9443 -2.9428  1.2739
17662SOL    HW253565   1.991   7.919   3.923 -0.5860 -1.3288  0.4008
17663SOL     OW53566  -0.016   5.609   0.437  0.0760 -0.5774  0.2236
17663SOL    HW153567   0.039   5.566   0.372  1.1840  0.6585  0.2744
17663SOL    HW253568   0.039   5.614   0.515 -0.6163 -0.5309  0.7185
17664SOL     OW53569   8.364   5.360   8.830  0.2535 -0.2202  0.3579
17664SOL    HW153570   8.443   5.409   8.855  0.3027 -0.9731  1.7876
17664SOL    HW253571   8.306   5.367   8.906 -1.0514  0.2431 -0.6370
17665SOL     OW53572   1.699   3.409   7.377 -0.4316  0.3926 -0.1473
17665SOL    HW153573   1.656   3.324   7.376  0.0527  0.1372 -0.9802
17665SOL    HW253574   1.755   3.407   7.455 -2.8680  1.2577  1.7406
17666SOL     OW53575   7.877   0.472   0.826 -0.3499 -0.0274  0.1751
17666SOL    HW153576   7.909   0.560   0.847 -0.5242  0.0146  0.2647
17666SOL    HW253577   7.834   0.481   0.741  2.6012 -0.7078 -1.5172
17667SOL     OW53578   7.924   4.871   1.027  0.2712  0.5534  0.3145
17667SOL    HW153579   7.939   4.782   1.060 -1.0403 -0.5763 -1.9112
17667SOL    HW253580   8.002   4.890   0.974  0.4835  0.6808  0.6690
17668SOL     OW53581   4.543   6.270   9.327 -0.0820 -0.1450  0.3021
17668SOL    HW153582   4.590   6.242   9.248  0.5838  0.0657  0.6142
17668SOL    HW253583   4.581   6.355   9.349 -1.6137  0.7137 -0.2477
17669SOL     OW53584   5.025   7.398   1.232 -0.5953  0.1694  0.2161
17669SOL    HW153585   4.995   7.325   1.177  0.2206  0.6468 -0.8961
17669SOL    HW253586   5.089   7.359   1.291  1.3178  0.2858 -1.6745
17670SOL     OW53587   1.491   0.184   0.175 -0.1403 -0.1381  0.1448
17670SOL    HW153588   1.442   0.266   0.171  0.3085  0.0741 -1.9607
17670SOL    HW253589   1.424   0.116   0.184 -0.5726  0.3517  0.8065
17671SOL     OW53590   2.022   8.852   2.665  0.1694  0.1883  0.4180
17671SOL    HW153591   2.090   8.795   2.701 -1.9129 -0.7658  3.1386
17671SOL    HW253592   1.986   8.803   2.591  1.1006 -0.1801  0.2040
17672SOL     OW53593   1.564   4.878   8.209 -0.5770  0.5385 -0.7030
17672SOL    HW153594   1.642   4.928   8.232 -0.3237  0.4491 -1.3671
17672SOL    HW253595   1.598   4.799   8.167 -1.0213  0.3846 -0.7726
17673SOL     OW53596   0.079   3.890   1.837 -0.5434 -0.6900 -0.5665
17673SOL    HW153597   0.056   3.891   1.930  0.1549  0.7401 -0.3721
17673SOL    HW253598   0.175   3.898   1.836 -0.5263 -0.8900 -1.4110
17674SOL     OW53599   7.905   8.007   1.105  0.1778  0.0007 -0.1210
17674SOL    HW153600   7.962   7.969   1.172  1.8343  1.9189 -0.3278
17674SOL    HW253601   7.919   8.101   1.112 -1.6347  0.4268 -1.4237
17675SOL     OW53602   0.041   8.078   6.409 -0.0201 -0.1909  0.0978
17675SOL    HW153603  -0.039   8.036   6.443 -0.6784  1.3039  0.4673
17675SOL    HW253604   0.033   8.070   6.314  0.4158 -1.8571  0.1792
17676SOL     OW53605   4.470   3.407   8.616 -0.3576  0.5182  0.5087
17676SOL    HW153606   4.492   3.494   8.648  1.3527  0.3172 -0.0206
17676SOL    HW253607   4.438   3.421   8.527  1.0426  0.5545 -0.0248
17677SOL     OW53608   0.378   5.245   4.344 -0.2344  0.0782 -0.2538
17677SOL    HW153609   0.407   5.190   4.417  0.9558  0.5154 -0.3898
17677SOL    HW253610   0.349   5.326   4.386  0.0973  0.1876 -0.2334
17678SOL     OW53611   8.943   1.716   1.978  0.6847 -0.6735 -0.5992
17678SOL    HW153612   9.010   1.655   2.008 -0.6253 -2.9897 -2.0654
17678SOL    HW253613   8.875   1.711   2.045  1.5937  1.1459  0.5326
17679SOL     OW53614   2.528   0.374   3.334  0.2205 -0.6671  0.2346
17679SOL    HW153615   2.572   0.449   3.374  0.6954 -0.3463 -0.8545
17679SOL    HW253616   2.444   0.368   3.380 -0.2485  1.1520 -0.3123
17680SOL     OW53617   8.604   3.928   0.965  0.6799 -0.3683  0.6730
17680SOL    HW153618   8.651   3.958   0.886 -1.1991 -1.3009 -0.8772
17680SOL    HW253619   8.554   4.005   0.993  0.8183 -0.2299  0.5467
17681SOL     OW53620   5.777   2.945   4.458 -0.1028  0.5138  0.0470
17681SOL    HW153621   5.702   2.971   4.406 -1.0180  1.3239  1.7035
17681SOL    HW253622   5.784   3.013   4.526  1.9554  0.3109  0.1024
17682SOL     OW53623   7.053   4.025   2.581  0.0138  0.3243 -0.2549
17682SOL    HW153624   6.959   4.041   2.592 -0.0436  0.4212 -0.8408
17682SOL    HW253625   7.095   4.103   2.617 -0.1082  0.0961  0.4000
17683SOL     OW53626   9.070   7.695   6.240 -0.2419 -0.1663 -0.0125
17683SOL    HW153627   8.989   7.746   6.235 -1.9113 -2.6872 -0.3648
17683SOL    HW253628   9.126   7.734   6.172 -1.8107  0.5567 -0.9564
17684SOL     OW53629   2.727   4.643   0.046  0.4606 -0.0667  0.1225
17684SOL    HW153630   2.724   4.623   0.140  3.6077 -0.2821  0.2756
17684SOL    HW253631   2.791   4.714   0.038 -0.4233  0.5908 -1.8042
17685SOL     OW53632   1.114   4.632   3.192 -0.3753  0.0640 -0.0746
17685SOL    HW153633   1.020   4.652   3.190  0.0419  2.3064  0.8574
17685SOL    HW253634   1.153   4.703   3.243  1.6641 -1.6175  0.8590
17686SOL     OW53635   0.009   6.498   1.079  0.0073  0.5267  0.4101
17686SOL    HW153636   0.048   6.555   1.146 -0.3703  0.3699  0.7645
17686SOL    HW253637   0.041   6.411   1.100 -1.5477  0.1802  1.4933
17687SOL     OW53638   0.763   4.109   6.688 -0.0422  0.2403  0.5422
17687SOL    HW153639   0.858   4.112   6.687 -0.0120 -0.4604  0.9765
17687SOL    HW253640   0.740   4.061   6.608 -0.0907  1.4526 -0.2018
17688SOL     OW53641   3.053   8.373   0.073  0.3375 -0.3690 -0.3930
17688SOL    HW153642   3.127   8.330   0.118  1.0474  2.9883  2.0778
17688SOL    HW253643   3.086   8.392  -0.014  2.6380  1.2131  0.7083
17689SOL     OW53644   1.328   3.348   6.743 -0.2224 -0.0778 -0.3124
17689SOL    HW153645   1.354   3.415   6.680 -2.2441  2.1125  1.0079
17689SOL    HW253646   1.405   3.338   6.800  0.2526  0.8709 -0.7681
17690SOL     OW53647   8.734   8.209   3.093  0.7623  0.5781  0.4789
17690SOL    HW153648   8.826   8.189   3.075  1.0882  0.8281  1.7758
17690SOL    HW253649   8.730   8.305   3.091  1.1217  0.6985  2.9852
17691SOL     OW53650   4.931   4.874   7.763 -0.3901  0.0212  0.0683
17691SOL    HW153651   4.968   4.909   7.682 -1.3321  1.0398  0.0559
17691SOL    HW253652   4.948   4.943   7.828 -2.1093  0.4591  0.0905
17692SOL     OW53653   6.225   8.788   6.492  0.0434  0.0212  0.0178
17692SOL    HW153654   6.286   8.831   6.432 -2.1651 -0.2822 -2.6608
17692SOL    HW253655   6.165   8.857   6.520 -0.3157 -0.2882  0.0200
17693SOL     OW53656   2.283   5.573   8.000  0.4038 -0.4549  0.2883
17693SOL    HW153657   2.318   5.564   8.089 -1.5697 -1.0967  1.0639
17693SOL    HW253658   2.266   5.483   7.972  1.4817 -0.2916 -0.9756
17694SOL     OW53659   1.269   4.107   8.028  0.1588 -0.4288 -0.6876
17694SOL    HW153660   1.248   4.197   8.000 -1.8477 -1.0656 -1.3727
17694SOL    HW253661   1.205   4.052   7.983 -1.0769 -1.8735  2.5744
17695SOL     OW53662   6.550   5.916   1.323 -0.2653  0.1775  0.6707
17695SOL    HW153663   6.530   5.975   1.396  0.1934 -0.3873  1.2588
17695SOL    HW253664   6.556   5.974   1.247 -0.0565  0.8630  1.1998
17696SOL     OW53665   8.159   2.497   0.960  0.2075 -0.0293 -0.5509
17696SOL    HW153666   8.159   2.593   0.955 -1.6186  0.1957  1.7144
17696SOL    HW253667   8.183   2.478   1.051 -1.2710 -1.5869 -0.4255
17697SOL     OW53668   9.246   8.964   2.440 -0.1846  0.4953  0.0796
17697SOL    HW153669   9.284   9.051   2.455  0.7286 -0.0444  1.0196
17697SOL    HW253670   9.209   8.939   2.524 -0.1499 -0.1664 -0.0980
17698SOL     OW53671   7.219   9.335   1.634  0.8455 -0.2405  0.1170
17698SOL    HW153672   7.160   9.270   1.597  1.6471 -0.7825 -0.2327
17698SOL    HW253673   7.184   9.352   1.721  1.0956 -1.7718  0.5448
17699SOL     OW53674   4.478   9.094   6.674 -0.8216 -0.5605  0.2797
17699SOL    HW153675   4.521   9.130   6.751 -0.4893  1.1832 -0.6751
17699SOL    HW253676   4.536   9.117   6.602 -2.6480  0.6598 -0.8838
17700SOL     OW53677   4.606   0.036   4.915 -0.0449 -0.0256  0.0528
17700SOL    HW153678   4.533   0.081   4.956  0.7103  0.0892  1.3377
17700SOL    HW253679   4.566  -0.034   4.864 -0.9990 -1.9214  3.1474
17701SOL     OW53680   0.956   9.272   5.717 -0.0514 -0.3150 -0.3297
17701SOL    HW153681   0.926   9.186   5.689 -0.8636 -0.3989  0.7329
17701SOL    HW253682   0.958   9.324   5.637 -2.2673 -0.5500 -0.5954
17702SOL     OW53683   7.371   8.884   1.073  0.0034 -0.0897  0.1644
17702SOL    HW153684   7.294   8.899   1.128 -0.1174 -0.3962  0.0850
17702SOL    HW253685   7.356   8.797   1.035  1.4085 -1.1448  1.8583
17703SOL     OW53686   4.151   7.905   9.330 -0.3064 -0.3017  0.1323
17703SOL    HW153687   4.243   7.915   9.355 -0.2013 -1.4360  0.2357
17703SOL    HW253688   4.129   7.987   9.286  1.0944 -0.4819 -0.9644
17704SOL     OW53689   3.314   9.251   3.578 -0.4754 -0.0209 -0.0574
17704SOL    HW153690   3.244   9.256   3.644  0.7315  1.5245  1.1732
17704SOL    HW253691   3.272   9.211   3.502 -2.3097 -0.4972  1.1314
17705SOL     OW53692   9.470   8.308   2.649 -0.0860 -0.0887 -0.4133
17705SOL    HW153693   9.542   8.359   2.687 -1.3153  1.1228  0.3612
17705SOL    HW253694   9.512   8.227   2.619  1.6878  0.7873 -0.4529
17706SOL     OW53695   3.368   5.514   9.306  0.0947 -0.9270  0.4357
17706SOL    HW153696   3.436   5.575   9.276  0.2437 -0.4524  1.7110
17706SOL    HW253697   3.332   5.555   9.384 -1.1865 -1.5236  0.1808
17707SOL     OW53698   6.732   1.923   1.969 -0.3560 -0.1573 -0.1878
17707SOL    HW153699   6.666   1.992   1.980 -0.5257 -0.4394  0.6153
17707SOL    HW253700   6.783   1.926   2.050 -1.1248 -1.7653  0.3935
17708SOL     OW53701   5.064   7.068   4.224  0.3631  0.0625  1.0337
17708SOL    HW153702   5.151   7.040   4.197 -0.3696 -0.6370 -0.7393
17708SOL    HW253703   5.013   7.070   4.143 -1.7388 -1.2101  2.2296
17709SOL     OW53704   3.534   4.362   6.745 -0.0966  0.3478 -0.1166
17709SOL    HW153705   3.524   4.361   6.650  1.3935  2.4529 -0.3752
17709SOL    HW253706   3.628   4.357   6.759 -0.2545  0.7096  1.2107
17710SOL     OW53707   4.636   6.277   5.411  0.0975 -0.8816 -0.0068
17710SOL    HW153708   4.671   6.289   5.499 -0.3919  0.2677  0.0515
17710SOL    HW253709   4.697   6.324   5.354 -0.0171 -0.9566 -0.1922
17711SOL     OW53710   7.608   8.368   2.293 -0.1394  0.1274 -0.1279
17711SOL    HW153711   7.699   8.338   2.287 -0.3611 -0.5191 -0.2522
17711SOL    HW253712   7.614   8.450   2.343  0.5200  0.1408 -0.2144
17712SOL     OW53713   3.752   3.741   1.855 -0.2605  0.7566  0.7215
17712SOL    HW153714   3.707   3.820   1.825  0.8632  0.9376 -0.5849
17712SOL    HW253715   3.685   3.692   1.901 -1.3897  1.7555  0.2038
17713SOL     OW53716   6.208   4.404   3.254 -0.0980  0.5674  0.1915
17713SOL    HW153717   6.181   4.330   3.201  1.9503 -0.4102  0.4220
17713SOL    HW253718   6.128   4.431   3.300 -1.3863  0.0107 -1.6430
17714SOL     OW53719   6.649   1.044   9.687  0.5657  0.1758 -0.1230
17714SOL    HW153720   6.632   1.011   9.775 -0.6714 -0.0482 -0.4366
17714SOL    HW253721   6.585   0.999   9.631 -1.2569  3.1078 -0.5729
17715SOL     OW53722   4.464   6.740   4.454 -0.2348 -0.3241  0.0780
17715SOL    HW153723   4.460   6.822   4.403  0.4202 -0.7595 -0.6882
17715SOL    HW253724   4.417   6.760   4.534 -2.2281  0.0902 -1.1168
17716SOL     OW53725   3.723   8.844   7.838  0.6557 -0.2478  0.5559
17716SOL    HW153726   3.673   8.861   7.758 -0.4565 -1.4801  0.9630
17716SOL    HW253727   3.814   8.852   7.810  0.3233 -1.6647 -1.1074
17717SOL     OW53728   7.879   3.625   7.688 -0.4324 -0.0279  0.2759
17717SOL    HW153729   7.958   3.618   7.634 -1.5365 -1.3677 -1.2411
17717SOL    HW253730   7.823   3.554   7.659 -2.3150  1.0022  1.1863
17718SOL     OW53731   7.435   3.870   7.101  0.3031  0.3697  0.0548
17718SOL    HW153732   7.392   3.838   7.022 -0.8182 -0.3005  0.8898
17718SOL    HW253733   7.375   3.935   7.137  0.1957 -0.2025  0.9708
17719SOL     OW53734   6.094   9.337   8.073 -0.0907 -0.6236 -0.1143
17719SOL    HW153735   6.136   9.266   8.025 -0.8122 -0.6412 -0.7444
17719SOL    HW253736   6.000   9.324   8.059 -0.2390  2.0273 -2.6431
17720SOL     OW53737   2.558   0.232   4.746  0.1102 -0.0301  0.1565
17720SOL    HW153738   2.512   0.285   4.681  0.1843  1.6459  1.3935
17720SOL    HW253739   2.651   0.253   4.732  0.1211  0.4074  0.8209
17721SOL     OW53740   8.666   2.723   6.592  0.4538 -0.7147  0.1078
17721SOL    HW153741   8.609   2.655   6.555  2.4106 -1.2587 -2.1030
17721SOL    HW253742   8.632   2.805   6.556  0.0270 -0.8382  0.2195
17722SOL     OW53743   8.955   1.444   8.451  0.2474 -0.0078  0.0118
17722SOL    HW153744   8.873   1.418   8.492 -0.2317 -0.3853 -1.1404
17722SOL    HW253745   9.023   1.410   8.509 -0.3839 -2.0486 -0.3754
17723SOL     OW53746   6.973   5.988   5.435 -0.4749 -0.1521  0.4089
17723SOL    HW153747   6.931   5.904   5.452 -1.9953  0.8935  2.2565
17723SOL    HW253748   6.917   6.031   5.371 -0.3603 -0.0673  0.3648
17724SOL     OW53749   8.644   2.141   7.190 -0.3154  0.3107  0.1541
17724SOL    HW153750   8.678   2.229   7.176 -1.2187  0.6408 -0.0395
17724SOL    HW253751   8.721   2.085   7.188  0.0270  0.7576 -2.3782
17725SOL     OW53752   5.883   5.657   1.435  0.3597 -0.1456 -0.4824
17725SOL    HW153753   5.931   5.669   1.353  4.3159  1.1285  1.7510
17725SOL    HW253754   5.848   5.568   1.430 -0.3823  0.2285 -3.8543
17726SOL     OW53755   8.426   0.745   0.149  0.4824 -0.3340 -0.4027
17726SOL    HW153756   8.398   0.690   0.076 -0.3294  0.4656 -0.7117
17726SOL    HW253757   8.388   0.831   0.130 -0.2463 -0.2592  1.2493
17727SOL     OW53758   2.899   3.906   9.780 -0.4266  0.2444  0.4571
17727SOL    HW153759   2.817   3.946   9.749 -0.8761 -0.7228  0.3446
17727SOL    HW253760   2.871   3.826   9.823  0.5191 -0.4838 -0.2333
17728SOL     OW53761   4.877   3.556   6.054 -0.2506 -0.0683 -0.0241
17728SOL    HW153762   4.901   3.579   5.965 -0.5466  0.9133  0.1374
17728SOL    HW253763   4.789   3.593   6.065 -0.2679 -0.2961  0.6320
17729SOL     OW53764   3.728   2.159   7.435  0.3008 -0.4079 -0.0950
17729SOL    HW153765   3.808   2.156   7.382  1.7522  0.0712  1.9440
17729SOL    HW253766   3.685   2.075   7.419  0.4183 -0.1145 -2.3258
17730SOL     OW53767   8.005   9.035   5.475  0.3860  0.4185 -0.2050
17730SOL    HW153768   7.954   9.046   5.556  1.0025  1.0021  0.1093
17730SOL    HW253769   8.096   9.031   5.504  0.4768 -1.8380 -0.6517
17731SOL     OW53770   2.369   8.855   4.699  0.1691 -0.1525  0.0659
17731SOL    HW153771   2.313   8.872   4.774  1.0830 -0.0254  0.7354
17731SOL    HW253772   2.391   8.942   4.666  1.0275 -0.1490  0.6153
17732SOL     OW53773   7.805   7.473   7.656 -0.1494  0.8224 -0.0729
17732SOL    HW153774   7.743   7.409   7.621  1.1985  1.1174 -3.4249
17732SOL    HW253775   7.773   7.493   7.744 -2.5554 -1.8494 -0.2007
17733SOL     OW53776   0.022   7.117   3.855  0.4493 -0.1758 -0.4748
17733SOL    HW153777  -0.014   7.118   3.944  0.3318  0.0334 -0.5223
17733SOL    HW253778   0.011   7.027   3.825  1.2554 -0.4496  0.0294
17734SOL     OW53779   5.221   9.503   1.530  0.1842  0.2353 -0.1721
17734SOL    HW153780   5.179   9.564   1.590 -1.0120 -0.6161 -0.1090
17734SOL    HW253781   5.305   9.544   1.510 -0.3009  1.5756  0.3758
17735SOL     OW53782   1.751   6.507   5.397  0.1275  0.2946 -0.0873
17735SOL    HW153783   1.808   6.515   5.474 -0.9279  0.7173  0.6747
17735SOL    HW253784   1.696   6.585   5.400 -0.2753  0.0527 -0.9843
17736SOL     OW53785   2.789   3.604   3.795 -0.1993 -0.2783  0.1668
17736SOL    HW153786   2.850   3.677   3.786 -0.0335 -0.3463  0.6981
17736SOL    HW253787   2.707   3.635   3.757 -0.0406  0.0699  0.1065
17737SOL     OW53788   6.182   3.791   4.847  0.1073 -0.1670 -0.5087
17737SOL    HW153789   6.216   3.750   4.767  0.1633 -0.4123 -0.3585
17737SOL    HW253790   6.159   3.718   4.904 -0.0255  0.0073 -0.3371
17738SOL     OW53791   0.712   4.711   0.174 -0.4610 -0.0677  0.7365
17738SOL    HW153792   0.806   4.720   0.158 -0.6132  3.7811  1.0658
17738SOL    HW253793   0.701   4.736   0.266 -1.9640  1.5616  0.1665
17739SOL     OW53794   8.815   3.567   1.834 -0.0424 -0.5172 -0.1262
17739SOL    HW153795   8.894   3.554   1.781 -0.5533 -2.1541 -0.5574
17739SOL    HW253796   8.831   3.518   1.914 -0.6253 -0.9296 -0.2486
17740SOL     OW53797   1.928   6.778   3.593  0.2832  0.4364 -0.7045
17740SOL    HW153798   1.987   6.754   3.522 -0.6431 -0.0175 -1.3494
17740SOL    HW253799   1.985   6.798   3.666  1.2394  0.2720 -1.3854
17741SOL     OW53800   4.716   4.756   3.288 -0.2834  0.0228 -0.3829
17741SOL    HW153801   4.697   4.826   3.350  0.3222  1.5465 -1.8373
17741SOL    HW253802   4.748   4.684   3.343  0.2728  1.3102  1.0658
17742SOL     OW53803   0.083   6.930   4.463  0.0912  0.6283  0.5151
17742SOL    HW153804   0.059   6.894   4.378  0.1653  1.6868  0.0208
17742SOL    HW253805  -0.001   6.948   4.506  0.0044  1.7618 -0.0862
17743SOL     OW53806   0.470   4.935   0.545  0.7647  0.0471  0.5862
17743SOL    HW153807   0.431   4.881   0.476  0.9935 -0.1507  0.6116
17743SOL    HW253808   0.501   4.873   0.610  0.9495  0.2130  0.6584
17744SOL     OW53809   8.376   4.496   7.463  0.7093 -0.1539 -0.0124
17744SOL    HW153810   8.290   4.511   7.423  0.4306  2.6862  1.4108
17744SOL    HW253811   8.356   4.468   7.552  1.3043 -1.0832 -0.1591
17745SOL     OW53812   1.354   2.563   0.888  0.2046  0.1812  0.2690
17745SOL    HW153813   1.263   2.587   0.905  0.6049  2.0984 -0.0730
17745SOL    HW253814   1.398   2.569   0.973  0.0496 -0.7163  0.4288
17746SOL     OW53815   6.724   6.184   4.698  0.2776  0.2176  0.3998
17746SOL    HW153816   6.813   6.211   4.675  0.2499  1.8103  1.9459
17746SOL    HW253817   6.696   6.247   4.764 -2.3555  0.2693 -0.6605
17747SOL     OW53818   5.243   9.795   7.185 -0.1872  1.0465 -0.4353
17747SOL    HW153819   5.189   9.716   7.188  0.7287  0.3778 -1.0689
17747SOL    HW253820   5.331   9.765   7.208  0.0866  1.9595 -0.2616
17748SOL     OW53821   3.423   2.995   1.874 -0.0862  0.0172 -0.2564
17748SOL    HW153822   3.442   3.025   1.963 -1.3862  0.2641 -0.0345
17748SOL    HW253823   3.327   2.996   1.868 -0.0750 -1.2538 -1.2323
17749SOL     OW53824   5.805   2.722   1.061 -0.5662  0.4439  0.3132
17749SOL    HW153825   5.802   2.802   1.113 -0.0340  0.2734  0.6131
17749SOL    HW253826   5.884   2.731   1.007 -1.3737  0.8505 -0.8627
17750SOL     OW53827   1.644   9.807   4.327 -0.2600 -0.2791 -0.3440
17750SOL    HW153828   1.650   9.829   4.420 -1.1060  1.5311 -0.6679
17750SOL    HW253829   1.712   9.860   4.286 -1.1820  0.4750 -0.9541
17751SOL     OW53830   2.264   9.089   5.789 -0.2046  0.6772 -0.2127
17751SOL    HW153831   2.177   9.126   5.804 -0.5189  0.7023 -1.9019
17751SOL    HW253832   2.304   9.084   5.876 -1.7714  0.9575  0.5432
17752SOL     OW53833   8.371   3.738   2.415  0.2070 -0.3419  0.1645
17752SOL    HW153834   8.429   3.813   2.405 -0.6156  0.2863 -0.0649
17752SOL    HW253835   8.429   3.663   2.423  1.0578 -0.0254 -2.1912
17753SOL     OW53836   6.777   2.338   2.922 -0.5203 -0.5485  0.2874
17753SOL    HW153837   6.754   2.431   2.918  0.9541 -0.1649 -0.0554
17753SOL    HW253838   6.791   2.321   3.015  1.2618  0.1576  0.1921
17754SOL     OW53839   5.641   7.892   0.765 -0.4245  0.2074  0.1316
17754SOL    HW153840   5.711   7.872   0.827 -0.7505  0.9610  0.7588
17754SOL    HW253841   5.577   7.822   0.778  0.2048 -0.4897 -0.4506
17755SOL     OW53842   6.421   7.417   6.160 -0.4954 -0.3597  0.7090
17755SOL    HW153843   6.391   7.327   6.142  2.0383 -1.2207  0.3471
17755SOL    HW253844   6.397   7.466   6.082 -2.0468 -0.6545  0.9649
17756SOL     OW53845   5.990   4.610   5.091 -0.2453  0.0246 -0.1235
17756SOL    HW153846   5.986   4.598   5.185  1.7293  1.2969  0.1654
17756SOL    HW253847   5.960   4.700   5.077  0.6741  0.2769 -0.5535
17757SOL     OW53848   7.356   2.562   9.598  0.1710  0.0975 -0.0594
17757SOL    HW153849   7.347   2.547   9.692  1.2318  0.1168  0.0603
17757SOL    HW253850   7.286   2.625   9.577 -0.6325 -0.5792  0.5311
17758SOL     OW53851   1.640   5.874   8.559  0.7580 -0.7265  0.3645
17758SOL    HW153852   1.695   5.806   8.599 -0.0592 -0.5333  1.8726
17758SOL    HW253853   1.597   5.917   8.633 -1.9334 -1.2903 -0.7471
17759SOL     OW53854   4.382   2.645   1.752 -0.4629  0.3775  0.0400
17759SOL    HW153855   4.340   2.566   1.717 -1.1037  1.3926 -1.6008
17759SOL    HW253856   4.475   2.622   1.759 -0.5565 -0.3467 -0.9439
17760SOL     OW53857   7.674   3.548   1.447  0.6051 -0.4934  0.4074
17760SOL    HW153858   7.750   3.603   1.470 -0.6303  1.1056  0.8414
17760SOL    HW253859   7.611   3.565   1.517 -1.0064 -0.0479 -1.0977
17761SOL     OW53860   8.956   6.740   1.352 -0.0134 -0.1491  0.4130
17761SOL    HW153861   8.918   6.724   1.265 -1.4242  1.2942  0.7125
17761SOL    HW253862   8.975   6.834   1.353  1.7821 -0.4799  1.0128
17762SOL     OW53863   1.741   6.288   7.775 -0.3205 -0.3721 -0.7213
17762SOL    HW153864   1.671   6.226   7.793 -0.7841  0.0805 -0.9199
17762SOL    HW253865   1.763   6.273   7.683  0.4238 -1.0793 -0.4387
17763SOL     OW53866   4.286   2.184   2.434  0.3653  0.5488 -0.6812
17763SOL    HW153867   4.296   2.125   2.509  1.9336  0.8123 -0.6586
17763SOL    HW253868   4.251   2.265   2.473  2.1452  1.0453 -0.0250
17764SOL     OW53869   9.857   5.729   1.662 -0.4012 -0.0264  0.1964
17764SOL    HW153870   9.813   5.806   1.696 -1.7499 -1.5420  2.0577
17764SOL    HW253871   9.823   5.720   1.573  0.7418  2.1624 -0.5488
17765SOL     OW53872   3.193   2.672   9.099 -0.6263  0.7345  0.0067
17765SOL    HW153873   3.259   2.668   9.168 -1.2334 -0.5145  0.5451
17765SOL    HW253874   3.243   2.675   9.018  0.0913  1.5935  0.4742
17766SOL     OW53875   4.440   9.164   7.640 -0.1262  0.1138  0.0423
17766SOL    HW153876   4.488   9.087   7.671 -1.7187 -0.3551  1.4981
17766SOL    HW253877   4.400   9.200   7.719  0.1305  2.1392 -0.7020
17767SOL     OW53878   4.275   3.380   9.400  0.6017  0.1574  0.8067
17767SOL    HW153879   4.203   3.422   9.354 -1.2205 -2.0834  1.4782
17767SOL    HW253880   4.280   3.427   9.484 -0.6099 -0.1843  1.0775
17768SOL     OW53881   8.048   0.262   9.854  0.0871  0.9940 -0.2118
17768SOL    HW153882   8.003   0.296   9.777 -2.6768 -0.7011  0.5427
17768SOL    HW253883   8.129   0.225   9.820 -0.6487  1.0774 -2.1656
17769SOL     OW53884   0.757   7.904   6.578  0.2214  0.6639  0.2642
17769SOL    HW153885   0.813   7.974   6.545 -0.5902  0.9556 -0.5516
17769SOL    HW253886   0.817   7.833   6.597  0.8029  0.5447 -1.7107
17770SOL     OW53887   3.878   6.222   4.958  0.0309  0.1042  0.0120
17770SOL    HW153888   3.792   6.204   4.995  0.0761  1.4061  0.8015
17770SOL    HW253889   3.904   6.306   4.996  0.5766  0.9777 -2.1117
17771SOL     OW53890   2.667   8.778   9.511 -0.0655  1.0524 -0.0043
17771SOL    HW153891   2.745   8.736   9.548 -0.7355 -1.4030 -1.1969
17771SOL    HW253892   2.702   8.851   9.460  1.3376  0.7660  0.4815
17772SOL     OW53893   2.431   1.522   2.446 -0.2216  0.3511 -0.0344
17772SOL    HW153894   2.420   1.426   2.444  2.1831  0.0130  0.1616
17772SOL    HW253895   2.515   1.537   2.403 -0.6108  2.4196 -0.1575
17773SOL     OW53896   8.739   6.770   1.914  0.8026 -0.5321  0.2202
17773SOL    HW153897   8.657   6.735   1.880  0.3242  0.7364 -0.0067
17773SOL    HW253898   8.803   6.700   1.900 -0.3063 -1.6999  0.7803
17774SOL     OW53899   0.139   9.453   9.435  0.2769 -0.1234  0.0424
17774SOL    HW153900   0.160   9.404   9.515  0.3101 -1.5234 -0.7856
17774SOL    HW253901   0.043   9.449   9.430  0.2723  0.0038  0.0400
17775SOL     OW53902   2.481   4.570   1.500 -0.2218 -0.1434  0.3905
17775SOL    HW153903   2.425   4.648   1.504 -0.3513 -0.2817  1.9505
17775SOL    HW253904   2.515   4.561   1.589  2.3937 -0.0100 -0.4998
17776SOL     OW53905   1.072   5.085   1.528 -0.9557 -0.2281  0.2293
17776SOL    HW153906   1.092   5.032   1.605  0.2636  0.3681  0.3644
17776SOL    HW253907   1.121   5.167   1.543  0.0878 -0.4549 -1.5953
17777SOL     OW53908   2.394   2.575   7.472 -0.1114  0.2058  0.2969
17777SOL    HW153909   2.393   2.481   7.451  0.9680  0.2861 -0.1611
17777SOL    HW253910   2.304   2.594   7.497  0.0038 -1.3773  2.2603
17778SOL     OW53911   7.342   0.639   2.149 -0.5110 -0.2042  0.6481
17778SOL    HW153912   7.255   0.674   2.129 -0.6860 -0.9878 -0.0129
17778SOL    HW253913   7.376   0.697   2.217 -0.4154  1.8034 -1.0034
17779SOL     OW53914   4.372   3.909   5.381  0.4752  0.6215  0.1703
17779SOL    HW153915   4.391   3.952   5.465 -1.5939 -0.7934  1.4444
17779SOL    HW253916   4.451   3.859   5.362  0.4581 -0.2608  2.1175
17780SOL     OW53917   2.912   0.679   9.888 -0.4760 -0.5308  0.2352
17780SOL    HW153918   2.840   0.698   9.949  0.6621  0.4051  1.3593
17780SOL    HW253919   2.950   0.598   9.922 -0.7409 -0.8047 -0.1173
17781SOL     OW53920   9.355   0.447   6.074 -0.2699  0.3655  0.1025
17781SOL    HW153921   9.346   0.510   6.145  2.3542  1.8897 -0.7557
17781SOL    HW253922   9.334   0.362   6.113 -1.8095  1.4787  1.8554
17782SOL     OW53923   3.654   2.381   0.254 -0.1832 -0.3710  0.1491
17782SOL    HW153924   3.634   2.381   0.161 -1.0206 -0.6604  0.3153
17782SOL    HW253925   3.571   2.403   0.296 -0.2663 -2.0166  0.9077
17783SOL     OW53926   4.169   9.534   7.298  0.3089 -0.1254  0.7375
17783SOL    HW153927   4.082   9.573   7.307  0.5253  0.3928  0.6283
17783SOL    HW253928   4.152   9.445   7.266 -0.1193  0.6642 -1.4343
17784SOL     OW53929   9.734   3.324   4.077  0.4932 -0.0226 -0.0303
17784SOL    HW153930   9.820   3.319   4.120  1.1561 -0.9397 -1.3885
17784SOL    HW253931   9.729   3.243   4.026 -1.9094 -0.8285  1.3148
17785SOL     OW53932   6.441   4.037   7.926 -0.4938  0.4016  0.5504
17785SOL    HW153933   6.439   3.968   7.861 -1.7136 -0.2053  1.1917
17785SOL    HW253934   6.507   4.009   7.990 -0.0303  0.4964  0.1163
17786SOL     OW53935   4.102   7.171   6.715  0.3421 -0.4277 -0.3324
17786SOL    HW153936   4.159   7.144   6.787  1.3092 -1.8138 -1.5457
17786SOL    HW253937   4.020   7.125   6.730  1.3123 -2.6366 -1.2919
17787SOL     OW53938   0.907   4.463   7.866  0.2510  0.1955  0.3455
17787SOL    HW153939   0.901   4.553   7.899 -0.6049  0.9408 -1.6374
17787SOL    HW253940   0.844   4.414   7.917  1.0183  0.6022  1.7370
17788SOL     OW53941   6.625   1.068   6.453 -0.2951 -0.1983  0.8678
17788SOL    HW153942   6.627   0.992   6.510 -0.4748  0.1396  1.3296
17788SOL    HW253943   6.533   1.080   6.431 -0.1735 -0.6616  0.0387
17789SOL     OW53944   8.426   9.550   0.118 -0.4081  0.0858 -0.6825
17789SOL    HW153945   8.464   9.464   0.097  1.8498  0.7084  0.4389
17789SOL    HW253946   8.418   9.594   0.034 -0.1255 -0.6816 -1.1233
17790SOL     OW53947   1.604   7.622   5.028  0.1095  0.1906  0.0433
17790SOL    HW153948   1.579   7.700   5.077 -0.0096  0.8872 -1.0831
17790SOL    HW253949   1.536   7.558   5.050  0.1664  0.4181  0.9212
17791SOL     OW53950   8.439   7.955   7.301  0.5205 -0.2024  0.3727
17791SOL    HW153951   8.369   7.918   7.247  1.0172  0.7775 -1.0332
17791SOL    HW253952   8.505   7.886   7.306  0.5103 -0.2780 -0.3966
17792SOL     OW53953   2.877   6.824   4.583  0.2502 -0.1061 -0.1140
17792SOL    HW153954   2.953   6.826   4.641  2.7834 -0.2680 -3.1797
17792SOL    HW253955   2.893   6.893   4.520 -2.9270  0.7733 -0.1335
17793SOL     OW53956   3.477   1.724   5.929 -0.0609  0.6723 -0.2020
17793SOL    HW153957   3.422   1.650   5.903  1.1139  0.1493 -1.2729
17793SOL    HW253958   3.520   1.696   6.009 -0.2254  0.5152 -0.1678
17794SOL     OW53959   1.657   1.129   1.202  0.1544 -0.5011 -0.3090
17794SOL    HW153960   1.597   1.057   1.222 -0.7999  0.5081  0.5745
17794SOL    HW253961   1.662   1.130   1.107 -1.8832 -0.1145 -0.4413
17795SOL     OW53962   6.070   2.577   4.321 -0.4098 -0.5278 -0.3093
17795SOL    HW153963   5.983   2.616   4.328 -0.5529 -0.6004 -1.5088
17795SOL    HW253964   6.112   2.596   4.405 -0.8403  1.3154 -0.4682
17796SOL     OW53965   7.277   1.199   5.541  0.3681 -0.5502 -0.1904
17796SOL    HW153966   7.361   1.226   5.579 -0.1821 -0.8214  1.2720
17796SOL    HW253967   7.299   1.123   5.488  1.0060 -0.8532  0.4809
17797SOL     OW53968   3.368   7.962   4.927  0.2923 -0.0116 -0.0573
17797SOL    HW153969   3.387   7.870   4.942  0.5464  0.2536  1.5251
17797SOL    HW253970   3.401   7.980   4.839  1.9673 -0.9826  0.3223
17798SOL     OW53971   6.247   5.646   6.872  0.4178 -0.3603 -0.1091
17798SOL    HW153972   6.234   5.673   6.781 -0.1092 -1.4553 -0.3738
17798SOL    HW253973   6.166   5.601   6.895  0.8092 -0.6657  0.6858
17799SOL     OW53974   1.091   7.428   2.257 -0.0296  0.1227  0.6085
17799SOL    HW153975   1.073   7.519   2.233  2.8594  1.1346  1.7425
17799SOL    HW253976   1.132   7.390   2.180 -0.3784  0.0550  0.4532
17800SOL     OW53977   6.333   9.552   2.922 -0.5360 -0.1532 -0.3125
17800SOL    HW153978   6.263   9.602   2.880 -0.9770  2.1235  2.7364
17800SOL    HW253979   6.321   9.568   3.016  1.8139 -2.8248  0.6072
17801SOL     OW53980   3.872   6.393   5.787  0.1980 -0.1013 -0.0788
17801SOL    HW153981   3.777   6.401   5.784  0.3532  2.0573 -0.9335
17801SOL    HW253982   3.888   6.303   5.815 -2.0819 -0.4746  0.1679
17802SOL     OW53983   5.730   6.709   3.053  0.2120 -0.3003 -0.3693
17802SOL    HW153984   5.637   6.692   3.042  0.1639  0.5948 -1.5858
17802SOL    HW253985   5.735   6.775   3.123  0.0435 -1.2756  0.5851
17803SOL     OW53986   7.843   9.753   3.991  0.0101 -0.0371 -0.2099
17803SOL    HW153987   7.781   9.795   4.051 -0.1902 -0.0135 -0.4335
17803SOL    HW253988   7.921   9.738   4.045 -0.4496 -0.7446  0.2853
17804SOL     OW53989   6.949   2.729   6.661  1.1274  0.3972  0.3112
17804SOL    HW153990   7.004   2.745   6.584  2.7035 -0.9837  1.1013
17804SOL    HW253991   6.916   2.640   6.649  0.3983  0.6175  0.6529
17805SOL     OW53992   9.339   8.882   1.309 -0.3926 -0.6221 -0.5862
17805SOL    HW153993   9.315   8.973   1.296  0.1695 -0.5359 -1.0523
17805SOL    HW253994   9.255   8.835   1.308 -0.8425  0.0507  1.2579
17806SOL     OW53995   2.896   8.099   6.433  0.4402  0.1451 -0.8054
17806SOL    HW153996   2.886   8.022   6.377  1.3854  0.2118 -1.0684
17806SOL    HW253997   2.814   8.147   6.421  0.4521 -0.0603 -1.7904
17807SOL     OW53998   9.574   6.523   8.040  0.6790 -0.7887  0.1452
17807SOL    HW153999   9.572   6.430   8.060  0.1702 -1.3437 -2.1721
17807SOL    HW254000   9.484   6.552   8.048  0.3542 -1.1583 -1.6591
17808SOL     OW54001   3.323   9.062   7.236 -0.6503  0.0927  0.4176
17808SOL    HW154002   3.240   9.044   7.193  1.0851  0.2675 -3.4176
17808SOL    HW254003   3.369   8.978   7.237  0.3941  0.6292 -0.6225
17809SOL     OW54004   3.448   0.459   9.013 -0.2361  0.2200 -0.3717
17809SOL    HW154005   3.479   0.487   9.099  0.3094  0.9987 -0.7983
17809SOL    HW254006   3.359   0.494   9.007 -0.6309 -0.6571  0.2404
17810SOL     OW54007   2.717   8.287   5.567  0.5918  0.0512  0.3867
17810SOL    HW154008   2.730   8.325   5.654  0.3348  1.1402 -0.0368
17810SOL    HW254009   2.794   8.314   5.517  1.2382 -1.4173  0.5380
17811SOL     OW54010   9.030   0.635   8.597 -0.1273 -0.4682 -0.4063
17811SOL    HW154011   8.991   0.638   8.510  0.1692  0.2248 -0.5194
17811SOL    HW254012   9.021   0.544   8.624 -0.2950 -0.6712 -1.1284
17812SOL     OW54013   1.729   8.303   2.135  0.0355 -0.1607 -0.0573
17812SOL    HW154014   1.655   8.295   2.075  0.1472  2.5674 -0.7252
17812SOL    HW254015   1.802   8.329   2.079  0.3819  1.4798  1.0738
17813SOL     OW54016   1.617   7.686   0.227  0.1556  0.3901  0.1897
17813SOL    HW154017   1.636   7.678   0.320  1.5305 -0.8054 -0.1546
17813SOL    HW254018   1.620   7.596   0.194 -0.0017  0.8249 -1.0672
17814SOL     OW54019   3.249   3.674   2.270  0.3035  0.3049  0.1987
17814SOL    HW154020   3.258   3.589   2.312  1.5364  1.3889  2.2693
17814SOL    HW254021   3.246   3.737   2.342 -0.4184  2.0629 -1.2678
17815SOL     OW54022   9.753   0.549   7.080  0.0451  0.0148  0.1539
17815SOL    HW154023   9.808   0.527   7.155  0.6232 -0.0190 -0.2744
17815SOL    HW254024   9.814   0.559   7.008 -0.6375 -1.4970 -0.6711
17816SOL     OW54025   0.565   1.833   6.649 -0.3509 -0.2710  0.1546
17816SOL    HW154026   0.627   1.905   6.654  0.9055 -1.4106  2.7964
17816SOL    HW254027   0.620   1.755   6.640 -1.5989 -1.0819 -0.8725
17817SOL     OW54028   0.846   3.085   1.712 -0.2243  0.0814  0.0837
17817SOL    HW154029   0.863   2.999   1.674 -1.2195 -0.4392  0.7704
17817SOL    HW254030   0.763   3.075   1.758 -1.1277  1.8213 -1.0620
17818SOL     OW54031   0.949   4.577   4.436 -0.0255 -0.5833  0.4868
17818SOL    HW154032   1.031   4.595   4.392 -0.4199  0.3852  0.1221
17818SOL    HW254033   0.882   4.623   4.384 -0.4826  0.7470  2.1342
17819SOL     OW54034   2.445   4.734   7.332  0.0258  0.1052  0.5665
17819SOL    HW154035   2.365   4.739   7.279 -0.7094  0.1238  1.6304
17819SOL    HW254036   2.512   4.775   7.279 -0.5299 -0.4794 -0.6177
17820SOL     OW54037   1.657   5.759   0.946 -0.1842 -0.1860 -0.3275
17820SOL    HW154038   1.732   5.700   0.941  0.2962  0.3133  0.7651
17820SOL    HW254039   1.695   5.847   0.938 -0.4023  0.1713  1.9558
17821SOL     OW54040   4.044   3.255   2.670  0.0598 -0.6146  0.4136
17821SOL    HW154041   4.052   3.342   2.631  1.2027 -0.2127  1.4694
17821SOL    HW254042   3.949   3.238   2.673 -0.1342  0.2403 -0.5317
17822SOL     OW54043   2.853   8.824   6.153 -0.2395  0.2691  0.6066
17822SOL    HW154044   2.941   8.856   6.131 -0.6047  0.6146 -0.4373
17822SOL    HW254045   2.802   8.839   6.073 -1.0671 -0.6005  0.9543
17823SOL     OW54046   1.910   7.047   6.152  0.7432 -0.3582  0.3573
17823SOL    HW154047   1.943   7.121   6.101  0.3732  0.5088  1.3553
17823SOL    HW254048   1.894   7.082   6.239 -0.1288 -1.4421  0.6616
17824SOL     OW54049   1.031   4.230   8.982  0.0821  0.2710  0.6050
17824SOL    HW154050   1.055   4.159   9.042  2.3429  0.6203  0.1807
17824SOL    HW254051   1.096   4.227   8.912 -1.7231  0.6996 -1.2134
17825SOL     OW54052   7.506   6.106   9.118  0.1185 -0.1265 -0.0887
17825SOL    HW154053   7.503   6.200   9.137 -0.2762  0.3703 -2.3990
17825SOL    HW254054   7.574   6.097   9.052  1.6778 -1.8143  1.6470
17826SOL     OW54055   4.893   0.650   2.020 -0.0681 -0.2543  0.0954
17826SOL    HW154056   4.855   0.595   2.088 -1.2959 -0.3592 -0.6395
17826SOL    HW254057   4.850   0.735   2.032  1.1367  0.2901  0.6505
17827SOL     OW54058   4.373   3.862   5.020 -0.2622 -0.2191  0.4684
17827SOL    HW154059   4.329   3.798   4.966 -1.6392  0.2211  1.0336
17827SOL    HW254060   4.304   3.920   5.051  0.6799  0.3985  1.5208
17828SOL     OW54061   0.687   4.691   6.589  0.1075 -0.0996  0.3246
17828SOL    HW154062   0.694   4.659   6.679 -0.7098  0.2092  0.5060
17828SOL    HW254063   0.734   4.775   6.589  0.8120 -0.4859  0.2552
17829SOL     OW54064   7.945   1.945   0.321  0.3202  0.5984 -0.7571
17829SOL    HW154065   7.979   1.961   0.233 -0.5717 -0.8379 -1.4079
17829SOL    HW254066   8.000   1.999   0.379  1.7088  0.6477 -2.0624
17830SOL     OW54067   8.790   4.028   6.723  0.2614  0.2580  0.4225
17830SOL    HW154068   8.801   4.085   6.646 -0.3550 -1.3331 -0.8997
17830SOL    HW254069   8.701   4.045   6.753 -0.3590 -0.8286 -0.7136
17831SOL     OW54070   5.045   7.944   9.279 -0.6018 -0.0739 -0.4122
17831SOL    HW154071   4.996   7.886   9.221 -0.5795 -0.0153 -0.4908
17831SOL    HW254072   5.033   8.032   9.242 -1.8140  0.1719  0.5062
17832SOL     OW54073   4.579   2.419   7.740 -0.1999  0.0724  0.1692
17832SOL    HW154074   4.638   2.493   7.750 -1.2300  0.8426  0.7554
17832SOL    HW254075   4.636   2.345   7.719  1.0871  0.5609  1.7329
17833SOL     OW54076   2.237   1.695   7.665  0.2164 -0.0977 -0.5632
17833SOL    HW154077   2.165   1.673   7.606 -1.9973 -0.1937  1.9689
17833SOL    HW254078   2.251   1.616   7.717  0.6202  0.6251  0.4623
17834SOL     OW54079   3.833   6.842   8.035 -0.1023  0.1307  0.3699
17834SOL    HW154080   3.751   6.806   8.001 -0.4165  0.2928  0.9348
17834SOL    HW254081   3.835   6.932   8.003 -0.3159  0.2315  0.6338
17835SOL     OW54082   7.960   5.427   7.538 -0.3363  1.1954  0.0733
17835SOL    HW154083   7.878   5.454   7.496 -0.1870  1.5095 -0.0148
17835SOL    HW254084   7.970   5.486   7.612  0.1826  1.6296 -0.3410
17836SOL     OW54085   9.084   2.536   9.865 -0.5220 -0.3160  0.4572
17836SOL    HW154086   9.041   2.473   9.924 -0.8352  0.5391  1.1529
17836SOL    HW254087   9.012   2.583   9.824 -0.3050  1.2807  1.7967
17837SOL     OW54088   8.007   9.352   3.729 -0.4510  0.1147  0.2354
17837SOL    HW154089   8.097   9.382   3.741  0.3631 -1.6231 -0.9973
17837SOL    HW254090   7.978   9.329   3.818  0.7411 -0.3515  0.5296
17838SOL     OW54091   8.071   4.979   1.947  0.9212 -0.0266 -0.1326
17838SOL    HW154092   8.046   5.018   1.864 -0.5342  0.7509  0.6264
17838SOL    HW254093   8.104   5.052   1.999  1.3915 -0.4228  0.1402
17839SOL     OW54094   8.938   6.563   2.417 -0.0109 -0.4662 -0.3237
17839SOL    HW154095   9.007   6.538   2.356  0.4262 -1.3525  0.5091
17839SOL    HW254096   8.868   6.501   2.401  1.0010 -2.2604  1.6104
17840SOL     OW54097   8.832   2.803   2.650 -0.2538 -0.1275  0.6442
17840SOL    HW154098   8.782   2.722   2.637 -1.3921  0.6801 -0.1489
17840SOL    HW254099   8.921   2.773   2.668 -0.5886 -1.5528  0.0668
17841SOL     OW54100   3.187   5.809   1.924  0.1504 -0.2736 -0.2488
17841SOL    HW154101   3.226   5.877   1.869  1.2812  0.0883  0.9635
17841SOL    HW254102   3.231   5.818   2.009 -0.5654 -1.7163  0.3070
17842SOL     OW54103   2.917   1.116   8.166  0.1937  0.4321  0.2299
17842SOL    HW154104   2.959   1.193   8.204 -0.4796  1.0436 -0.2360
17842SOL    HW254105   2.843   1.151   8.117 -0.0153 -0.4999 -0.1412
17843SOL     OW54106   9.296   6.525   7.364 -0.0120 -0.1747  0.1890
17843SOL    HW154107   9.286   6.531   7.269 -0.0974  2.3699  0.2949
17843SOL    HW254108   9.212   6.554   7.399  1.1648  2.5882  1.0006
17844SOL     OW54109   5.562   3.950   6.683 -0.2243 -0.4133  0.1926
17844SOL    HW154110   5.626   3.996   6.737 -0.7814 -1.3529  1.7330
17844SOL    HW254111   5.568   3.992   6.597  2.6183 -0.6359  0.1988
17845SOL     OW54112   1.008   2.699   6.190  0.3799  0.2428  0.1824
17845SOL    HW154113   1.094   2.662   6.170  0.3254 -0.6044  1.4701
17845SOL    HW254114   1.026   2.792   6.204  0.9990  0.1685 -0.0640
17846SOL     OW54115   0.340   5.715   2.702 -0.3744 -0.3006 -0.0560
17846SOL    HW154116   0.350   5.808   2.681  0.3738 -0.6674 -1.3950
17846SOL    HW254117   0.418   5.673   2.666 -1.3444 -1.6433 -0.7010
17847SOL     OW54118   2.571   7.621   6.935  0.4008  0.1750  0.0193
17847SOL    HW154119   2.502   7.555   6.932  1.3443 -0.8299  0.0577
17847SOL    HW254120   2.606   7.616   7.023  2.6079 -1.5463 -0.8734
17848SOL     OW54121   5.660   4.483   7.613 -0.1158  0.4418  0.0579
17848SOL    HW154122   5.683   4.444   7.529  0.8744  1.4050 -0.1376
17848SOL    HW254123   5.564   4.478   7.617 -0.1104 -0.3971 -0.7300
17849SOL     OW54124   5.155   7.185   7.512 -0.0208  0.6793 -1.2055
17849SOL    HW154125   5.241   7.159   7.479 -0.0003  0.2561 -0.8288
17849SOL    HW254126   5.167   7.193   7.607 -0.5912 -0.1524 -1.0598
17850SOL     OW54127   2.973   5.312   4.403  0.8045 -0.6906 -0.0477
17850SOL    HW154128   2.888   5.279   4.372  0.5073 -0.4696  0.5153
17850SOL    HW254129   2.991   5.386   4.346 -0.9617  1.3218  1.8041
17851SOL     OW54130   2.577   4.490   9.596 -0.8466  0.3087 -0.0748
17851SOL    HW154131   2.565   4.563   9.536 -1.1849  0.5982  0.3398
17851SOL    HW254132   2.502   4.434   9.582 -0.0791 -0.4939 -1.1201
17852SOL     OW54133   1.968   5.936   6.621  0.3380 -0.3431  0.4152
17852SOL    HW154134   1.932   5.879   6.553 -0.2697 -1.7156  1.8326
17852SOL    HW254135   2.060   5.910   6.627  0.9471  1.1959 -1.2277
17853SOL     OW54136   8.809   2.517   8.047 -0.0334  0.6109 -0.1677
17853SOL    HW154137   8.799   2.435   8.095 -1.8887  0.0106 -1.4626
17853SOL    HW254138   8.889   2.506   7.996 -0.4726 -0.5700 -0.6268
17854SOL     OW54139   5.131   1.625   0.345  0.0083 -0.1234 -0.7875
17854SOL    HW154140   5.063   1.557   0.339  0.2748 -0.2933 -2.5607
17854SOL    HW254141   5.213   1.576   0.353 -0.0593  0.0886  1.9741
17855SOL     OW54142   6.967   6.510   9.538 -0.0542  0.0886  0.1730
17855SOL    HW154143   6.945   6.441   9.475  0.4980  1.3436 -1.4654
17855SOL    HW254144   7.062   6.522   9.528 -0.2360  1.4605  0.0258
17856SOL     OW54145   4.680   6.732   7.274 -0.0072 -0.0804  0.1652
17856SOL    HW154146   4.673   6.827   7.279  1.7483  0.0337  2.5466
17856SOL    HW254147   4.714   6.715   7.186 -2.9743  1.1610 -1.3672
17857SOL     OW54148   0.152   4.500   5.186  0.2876 -0.3900 -0.6239
17857SOL    HW154149   0.128   4.591   5.202  0.3635 -0.6547  1.3237
17857SOL    HW254150   0.087   4.469   5.123  0.3350  1.0203 -1.4131
17858SOL     OW54151   9.242   8.436   7.658 -0.6437 -0.6165 -0.5407
17858SOL    HW154152   9.148   8.429   7.672 -0.7089  0.9721  0.1148
17858SOL    HW254153   9.269   8.508   7.716  0.9956 -1.1316 -0.6106
17859SOL     OW54154   5.186   6.821   9.292  0.2734 -0.3987  0.5276
17859SOL    HW154155   5.181   6.914   9.311 -0.9066 -0.9021  3.2113
17859SOL    HW254156   5.266   6.792   9.337  1.0889 -0.5866 -0.9863
17860SOL     OW54157   4.404   0.334   9.296  0.0600 -0.0673 -0.0224
17860SOL    HW154158   4.359   0.418   9.289  0.4293  0.1348 -0.0169
17860SOL    HW254159   4.336   0.272   9.321 -0.0959  0.3496  0.6068
17861SOL     OW54160   9.596   3.141   0.180  0.5229 -0.0217 -0.2864
17861SOL    HW154161   9.684   3.161   0.150  0.3030 -0.5381 -1.3185
17861SOL    HW254162   9.600   3.051   0.212  0.8650  0.6674  1.7735
17862SOL     OW54163   1.090   5.192   4.887 -0.2348  0.1341 -0.0205
17862SOL    HW154164   1.121   5.282   4.871  2.2166 -0.3845  1.4311
17862SOL    HW254165   1.066   5.191   4.979 -1.2197 -0.4663 -0.2713
17863SOL     OW54166   6.618   6.774   8.171  0.8124  0.0741 -0.1109
17863SOL    HW154167   6.629   6.854   8.223  0.9060 -0.2409  0.3633
17863SOL    HW254168   6.545   6.728   8.214  1.1836 -0.4032  0.0178
17864SOL     OW54169   2.095   5.120   4.507 -0.0756 -0.0355 -0.3601
17864SOL    HW154170   2.146   5.104   4.428  1.7216  0.6056  0.6026
17864SOL    HW254171   2.107   5.041   4.560  0.6487  0.4425  0.2163
17865SOL     OW54172   1.181   8.826   7.784 -0.2835 -0.0037  0.3355
17865SOL    HW154173   1.105   8.799   7.836 -1.0014 -1.4155 -1.3424
17865SOL    HW254174   1.146   8.894   7.726  0.5318  1.6254  1.6722
17866SOL     OW54175   6.065   1.869   3.200 -0.6071  0.2208  0.3072
17866SOL    HW154176   6.026   1.826   3.124  2.0013 -1.0862 -0.4400
17866SOL    HW254177   6.077   1.960   3.173  0.0731 -0.1775 -0.7995
17867SOL     OW54178   6.583   1.966   7.146 -0.2910  0.4199 -0.0663
17867SOL    HW154179   6.507   1.916   7.116  0.8953 -1.1910 -0.5762
17867SOL    HW254180   6.656   1.904   7.140  1.3384  2.2856 -0.9650
17868SOL     OW54181   9.704   5.761   7.936 -0.3823 -0.4477 -0.2271
17868SOL    HW154182   9.697   5.710   7.856 -3.5881 -1.4313  0.5335
17868SOL    HW254183   9.797   5.759   7.958  0.0697 -3.2429 -1.9517
17869SOL     OW54184   6.612   7.171   2.800  0.1341  0.2100  0.5472
17869SOL    HW154185   6.676   7.230   2.841 -0.0777 -0.6048  2.0950
17869SOL    HW254186   6.532   7.224   2.793  0.0470  0.2292  1.5943
17870SOL     OW54187   9.155   4.879   9.149 -0.8695 -0.4370 -0.1933
17870SOL    HW154188   9.217   4.820   9.107 -0.9689 -2.2140  1.9797
17870SOL    HW254189   9.209   4.945   9.193 -0.7015  0.1874 -1.3126
17871SOL     OW54190   9.245   5.720   6.619  0.2663  0.7736 -0.9254
17871SOL    HW154191   9.289   5.745   6.538  2.2574  1.3547  0.2690
17871SOL    HW254192   9.219   5.629   6.605  1.3902  0.5738 -1.8730
17872SOL     OW54193   9.558   3.819   4.660  0.1467 -0.0188 -0.1525
17872SOL    HW154194   9.624   3.809   4.728 -0.6562  0.3508  0.7069
17872SOL    HW254195   9.475   3.807   4.706 -0.4753  1.7067 -0.7510
17873SOL     OW54196   1.671   7.883  -0.001  0.0769  0.1905  0.4899
17873SOL    HW154197   1.613   7.943   0.046 -1.1940 -0.1946 -0.5124
17873SOL    HW254198   1.736   7.856   0.064 -1.5697 -0.2737  2.0336
17874SOL     OW54199   1.859   1.008   6.287 -0.3450  0.2381  0.4033
17874SOL    HW154200   1.834   1.092   6.325 -1.3650  0.5429 -0.8329
17874SOL    HW254201   1.783   0.951   6.301 -0.1905 -0.0634  0.0501
17875SOL     OW54202   8.853   0.173   9.180  0.2394  0.2551 -0.5068
17875SOL    HW154203   8.761   0.198   9.191  0.0824 -0.5111 -0.0072
17875SOL    HW254204   8.855   0.124   9.098  0.2837  0.6060 -0.7216
17876SOL     OW54205   2.090   3.474   9.213 -0.2913 -0.2434  0.0063
17876SOL    HW154206   2.067   3.390   9.173 -2.6290  1.0904 -1.6382
17876SOL    HW254207   2.135   3.522   9.144  0.0142  0.2979  0.5679
17877SOL     OW54208   8.822   3.367   4.072  0.6078 -0.7381  0.0357
17877SOL    HW154209   8.861   3.454   4.083  0.4966 -0.9536  2.6090
17877SOL    HW254210   8.762   3.377   3.998  0.1092  1.5460  0.6687
17878SOL     OW54211   8.136   2.751   2.880 -0.2204  0.1399 -1.0097
17878SOL    HW154212   8.081   2.675   2.862 -0.1033 -0.4070  0.7968
17878SOL    HW254213   8.112   2.778   2.969  1.5349  0.6562 -0.6466
17879SOL     OW54214   8.545   2.464   8.508 -0.1451 -0.4307 -0.5288
17879SOL    HW154215   8.541   2.370   8.488 -0.6971 -0.4855 -0.1932
17879SOL    HW254216   8.537   2.468   8.603 -1.5836  0.0229 -0.6446
17880SOL     OW54217   9.240   3.961   8.631 -0.0213 -0.1077 -0.7876
17880SOL    HW154218   9.158   4.003   8.604  0.3988  0.1117 -1.7942
17880SOL    HW254219   9.237   3.961   8.726 -0.4344  1.4321 -0.7769
17881SOL     OW54220   4.285   0.120   7.021 -0.1643 -0.3910  0.6502
17881SOL    HW154221   4.296   0.156   6.933  0.2105 -3.1495 -0.5065
17881SOL    HW254222   4.326   0.185   7.079 -0.3198  1.4301 -1.1683
17882SOL     OW54223   5.004   3.002   5.430  0.2181 -0.6214 -0.2391
17882SOL    HW154224   4.911   3.013   5.452 -0.2500 -1.2670 -1.7897
17882SOL    HW254225   5.041   3.090   5.437 -0.9181 -0.0333 -1.3404
17883SOL     OW54226   7.265   5.404   0.873  0.5048 -0.0491 -0.0795
17883SOL    HW154227   7.259   5.469   0.943 -1.0690  0.4179 -0.5979
17883SOL    HW254228   7.351   5.364   0.884  1.0283  1.2895  0.9880
17884SOL     OW54229   6.574   2.596   3.287  0.0020  0.0246 -0.0616
17884SOL    HW154230   6.644   2.648   3.326 -0.5609  0.5207  0.3074
17884SOL    HW254231   6.610   2.507   3.283 -0.1930 -0.2315  2.3626
17885SOL     OW54232   7.924   3.202   4.612  0.1396  0.2006  0.0049
17885SOL    HW154233   7.961   3.229   4.696  0.8790  0.9359 -0.5454
17885SOL    HW254234   8.000   3.184   4.557 -0.3322  0.3875 -0.7123
17886SOL     OW54235   6.314   2.278   9.169  0.1779 -0.5013 -0.3067
17886SOL    HW154236   6.362   2.195   9.165  0.9372 -0.0700 -0.3377
17886SOL    HW254237   6.262   2.279   9.088  0.3091 -0.8604 -0.3999
17887SOL     OW54238   7.471   5.040   3.642 -0.1246 -0.1293 -0.4647
17887SOL    HW154239   7.470   5.106   3.711 -0.7320  1.7428 -2.1905
17887SOL    HW254240   7.384   5.044   3.603  0.6012 -0.2499 -2.1568
17888SOL     OW54241   1.262   5.948   9.668  0.8303  0.2216 -0.3672
17888SOL    HW154242   1.194   6.012   9.645 -1.0485 -1.4638  0.2165
17888SOL    HW254243   1.245   5.874   9.610  0.0363 -1.5406  1.9641
17889SOL     OW54244   7.138   3.275   3.135  0.2700  0.2984  0.1610
17889SOL    HW154245   7.201   3.334   3.094  0.3763 -1.4084 -2.3834
17889SOL    HW254246   7.053   3.316   3.121  0.4423  0.4152 -0.6070
17890SOL     OW54247   5.964   6.341   2.644  0.4921  0.1221  0.0656
17890SOL    HW154248   6.000   6.376   2.562 -0.4837  0.3568 -0.2724
17890SOL    HW254249   5.893   6.283   2.616  1.2897 -1.1882  0.6790
17891SOL     OW54250   0.652   0.660   1.533  0.7926  0.2541  0.0506
17891SOL    HW154251   0.658   0.734   1.593  1.3510 -1.0203  1.6152
17891SOL    HW254252   0.728   0.669   1.476 -0.7044  2.4994 -1.7864
17892SOL     OW54253   6.763   4.891   8.470 -0.6309 -0.2101 -0.1279
17892SOL    HW154254   6.844   4.870   8.423 -0.3076 -0.3908  0.4941
17892SOL    HW254255   6.699   4.909   8.401 -0.3089 -0.9942 -0.6435
17893SOL     OW54256   4.650   4.016   1.934 -0.0866  0.4207  0.2171
17893SOL    HW154257   4.595   4.037   2.009 -0.5108 -0.8180  0.2850
17893SOL    HW254258   4.736   4.052   1.955  0.1700 -1.0210  1.9115
17894SOL     OW54259   4.362   9.280   9.108 -0.6444 -0.2984 -0.0519
17894SOL    HW154260   4.294   9.215   9.122 -0.4216 -0.6441 -0.5533
17894SOL    HW254261   4.416   9.244   9.037  0.2537 -0.1881  0.5539
17895SOL     OW54262   0.606   6.175   8.077  0.0227  0.4249  0.2101
17895SOL    HW154263   0.639   6.127   8.001  0.7017 -0.7724  1.2265
17895SOL    HW254264   0.646   6.262   8.070  1.4617 -0.2210  0.1050
17896SOL     OW54265   2.677   7.322   0.726  0.1955  0.2568 -0.3951
17896SOL    HW154266   2.639   7.372   0.654 -0.8654 -1.0030 -0.7480
17896SOL    HW254267   2.741   7.382   0.765 -0.4694  1.6019 -1.2677
17897SOL     OW54268   7.404   2.881   8.044  0.1153  0.4370  0.4724
17897SOL    HW154269   7.447   2.962   8.017 -0.7594  0.2644 -1.6495
17897SOL    HW254270   7.471   2.813   8.035  0.3997  0.6879  0.6934
17898SOL     OW54271   7.354   9.334   4.098  0.1680  0.6172 -0.3295
17898SOL    HW154272   7.359   9.357   4.006 -0.8372 -1.5375 -1.0035
17898SOL    HW254273   7.343   9.239   4.098 -0.1708  0.5945  2.0094
17899SOL     OW54274   0.435   0.472   5.343 -0.6327 -0.0560 -0.6932
17899SOL    HW154275   0.516   0.472   5.292 -0.1910 -0.4001 -0.0053
17899SOL    HW254276   0.409   0.380   5.348 -0.2592 -0.1096  0.3374
17900SOL     OW54277   1.929   0.425   2.394 -0.3308  0.2328  0.3051
17900SOL    HW154278   1.987   0.450   2.466  0.1211  0.6321 -0.1890
17900SOL    HW254279   1.974   0.352   2.352 -0.6604 -0.0881  0.5039
17901SOL     OW54280   1.082   7.147   2.976  0.4334 -0.0873 -0.2137
17901SOL    HW154281   1.137   7.199   3.035 -0.6464  0.1634  0.6143
17901SOL    HW254282   1.055   7.209   2.908  0.9216 -0.1368 -0.4556
17902SOL     OW54283   6.340   0.466   7.511  0.0401 -0.1219 -0.5627
17902SOL    HW154284   6.430   0.437   7.498 -0.1045 -0.0593 -1.8400
17902SOL    HW254285   6.331   0.477   7.606  0.1160 -4.2851  0.1101
17903SOL     OW54286   4.754   0.246   8.456  0.0615 -0.2506  0.1400
17903SOL    HW154287   4.765   0.231   8.549 -1.4455  2.6336  0.9109
17903SOL    HW254288   4.692   0.179   8.427  1.5563 -2.0068  0.8317
17904SOL     OW54289   8.683   9.041   6.357  0.0700 -0.2927 -0.3094
17904SOL    HW154290   8.589   9.053   6.373  0.1415  0.6773 -0.5809
17904SOL    HW254291   8.725   9.069   6.439  0.0158 -3.7553  1.0897
17905SOL     OW54292   2.180   3.289   6.234 -0.4231 -0.4140  0.5461
17905SOL    HW154293   2.093   3.325   6.248 -0.8420 -0.7410 -1.0770
17905SOL    HW254294   2.227   3.357   6.186 -0.1094 -0.6639  0.4970
17906SOL     OW54295   1.352   4.527   9.299  0.2138  0.3291  0.2952
17906SOL    HW154296   1.287   4.577   9.249  0.3337  0.5593  0.3663
17906SOL    HW254297   1.436   4.553   9.262  0.2257 -0.6731 -0.4268
17907SOL     OW54298   5.842   1.951   5.024 -0.3868 -0.7925 -0.0468
17907SOL    HW154299   5.811   1.918   5.108  1.0788  0.3836  1.0368
17907SOL    HW254300   5.927   1.910   5.011  0.0466  0.1180 -0.2233
17908SOL     OW54301   6.943   3.449   9.713 -0.1636 -0.3409 -0.4712
17908SOL    HW154302   6.961   3.542   9.726 -0.1940 -0.3467 -0.3893
17908SOL    HW254303   6.996   3.404   9.778  0.2978 -0.4176 -0.8907
17909SOL     OW54304   9.267   6.121   7.936  0.0450  0.6816  0.1191
17909SOL    HW154305   9.237   6.173   7.861  1.2011 -1.6791 -2.1331
17909SOL    HW254306   9.235   6.033   7.919  1.9068 -0.3340  1.4227
17910SOL     OW54307   4.373   7.551   8.929  0.4215 -0.3670  0.0406
17910SOL    HW154308   4.328   7.609   8.868  0.2411  1.3990  1.7796
17910SOL    HW254309   4.304   7.491   8.959  0.5957 -1.5253 -1.7064
17911SOL     OW54310   2.846   6.749   6.682  0.0854  0.0810  0.5564
17911SOL    HW154311   2.864   6.709   6.597 -1.1070  0.2740  0.1941
17911SOL    HW254312   2.810   6.835   6.662  2.3163  1.2781  1.3314
17912SOL     OW54313   8.899   6.590   0.425  0.0745  0.2257  0.0777
17912SOL    HW154314   8.849   6.588   0.344 -0.0525  1.1485  0.1253
17912SOL    HW254315   8.844   6.546   0.490 -0.2306  0.3391 -0.1075
17913SOL     OW54316   8.153   9.697   7.480  0.6336  0.1907  0.4284
17913SOL    HW154317   8.213   9.637   7.523  0.2295  0.5280  1.5008
17913SOL    HW254318   8.071   9.648   7.473  1.3093 -0.7157 -2.1460
17914SOL     OW54319   5.414   0.677   8.306 -0.0210 -0.1710  0.1103
17914SOL    HW154320   5.441   0.697   8.216  1.9608  0.3258  0.7657
17914SOL    HW254321   5.427   0.760   8.353 -3.4000  0.3388  0.4269
17915SOL     OW54322   2.444   3.759   4.696 -0.0397 -0.0330  0.6469
17915SOL    HW154323   2.479   3.677   4.729 -0.5706 -0.7068 -0.4115
17915SOL    HW254324   2.362   3.772   4.744  0.1024 -0.0584  0.8958
17916SOL     OW54325   6.410   1.591   7.922  0.6091 -0.0150 -0.5518
17916SOL    HW154326   6.342   1.552   7.868 -1.2592  1.8256  0.3139
17916SOL    HW254327   6.451   1.657   7.866 -0.3588  0.9027 -0.2125
17917SOL     OW54328   8.786   8.110   9.475  0.3063  0.0509  0.2179
17917SOL    HW154329   8.860   8.070   9.519  0.7724  1.0122  0.3383
17917SOL    HW254330   8.813   8.115   9.383  0.1342 -0.1598  0.1545
17918SOL     OW54331   3.398   0.697   2.578  0.3943 -0.1621  0.0253
17918SOL    HW154332   3.442   0.717   2.495  1.2333 -0.5395  0.3682
17918SOL    HW254333   3.313   0.740   2.571  0.0422 -1.0337 -1.4570
17919SOL     OW54334   7.679   4.590   4.258 -0.4047 -0.0768 -0.5159
17919SOL    HW154335   7.720   4.544   4.185  1.2775  0.8859 -0.2375
17919SOL    HW254336   7.686   4.683   4.234  0.3723  0.2678  0.9354
17920SOL     OW54337   1.420   7.385   1.837  0.1141 -0.4481 -0.1697
17920SOL    HW154338   1.354   7.435   1.788 -0.6693  0.6044  1.8414
17920SOL    HW254339   1.398   7.293   1.820 -3.0945 -0.2075  1.7649
17921SOL     OW54340   0.669   4.861   9.403  0.0712 -0.4763 -0.0253
17921SOL    HW154341   0.657   4.943   9.355  2.2490 -0.4751 -0.6680
17921SOL    HW254342   0.752   4.873   9.450 -0.0089 -1.9950  0.5487
17922SOL     OW54343   6.127   9.255   4.527 -0.3809 -0.0960 -0.0588
17922SOL    HW154344   6.115   9.259   4.622  0.4586 -2.2153  0.1705
17922SOL    HW254345   6.186   9.327   4.507 -1.2771  0.9390  0.8717
17923SOL     OW54346   7.141   3.179   3.382 -0.2722  0.4546  0.0472
17923SOL    HW154347   7.135   3.225   3.298  0.2865 -0.1175 -0.3166
17923SOL    HW254348   7.195   3.237   3.436  0.5452  0.1885 -0.4539
17924SOL     OW54349   4.336   3.126   4.629  0.1194 -0.1854 -0.1628
17924SOL    HW154350   4.334   3.070   4.707 -1.6671  2.3723  1.7952
17924SOL    HW254351   4.275   3.084   4.568  0.6666 -1.6267  0.2441
17925SOL     OW54352   5.176   6.936   3.612 -0.1294 -0.5308  0.6951
17925SOL    HW154353   5.219   6.984   3.683 -1.1437  0.5398  0.6144
17925SOL    HW254354   5.083   6.956   3.623 -0.3002 -0.2836 -0.9715
17926SOL     OW54355   0.996   3.416   4.808 -0.3319 -0.3115 -0.1236
17926SOL    HW154356   1.060   3.372   4.864  0.5613  0.3834 -0.5754
17926SOL    HW254357   0.988   3.358   4.731  2.0889  1.0230 -1.4928
17927SOL     OW54358   2.959   9.695   3.759  0.1784 -0.1393  0.0321
17927SOL    HW154359   2.929   9.609   3.727  0.0808  0.1664 -0.7265
17927SOL    HW254360   2.934   9.756   3.689  1.2407  0.3448  0.0650
17928SOL     OW54361   1.539   9.700   9.576  0.1030  0.3509 -0.1827
17928SOL    HW154362   1.558   9.784   9.534 -0.6554  1.0904  0.8949
17928SOL    HW254363   1.480   9.655   9.515  0.4018  0.6543 -0.7013
17929SOL     OW54364   8.355   1.739   0.983  0.8077  0.3833  0.0307
17929SOL    HW154365   8.358   1.711   1.074 -1.4181  1.5356  0.5216
17929SOL    HW254366   8.361   1.835   0.987 -1.0818  0.5838 -0.8594
17930SOL     OW54367   1.123   6.309   9.809 -0.3872 -0.0867  0.1598
17930SOL    HW154368   1.068   6.251   9.757 -0.6890  0.1795  0.1793
17930SOL    HW254369   1.065   6.345   9.876 -0.1476  0.0544  0.2958
17931SOL     OW54370   1.065   4.968   7.224 -0.0224 -0.2158 -0.8857
17931SOL    HW154371   1.110   5.032   7.169 -0.3797  1.3642  0.5751
17931SOL    HW254372   0.972   4.991   7.216  0.0431  1.4498  1.9228
17932SOL     OW54373   6.656   2.063   0.682 -0.1037  0.2814  0.6979
17932SOL    HW154374   6.709   2.141   0.661 -0.0588  0.4055  1.2518
17932SOL    HW254375   6.714   2.009   0.736 -0.3646  0.1751  0.8723
17933SOL     OW54376   8.894   2.060   7.690 -0.2732 -0.1874  0.4537
17933SOL    HW154377   8.915   1.977   7.648  2.7959 -0.6324  2.5417
17933SOL    HW254378   8.855   2.035   7.774 -3.3321  0.6463 -0.5845
17934SOL     OW54379   5.241   8.919   0.075 -0.3628 -0.0386  0.3953
17934SOL    HW154380   5.232   9.002   0.120 -2.7585  0.4050 -0.7349
17934SOL    HW254381   5.161   8.911   0.023  0.9460 -1.8381 -1.5360
17935SOL     OW54382   5.158   8.703   2.086 -0.0657 -0.2831 -0.5414
17935SOL    HW154383   5.179   8.654   2.007 -2.6347 -0.5616 -1.1403
17935SOL    HW254384   5.139   8.791   2.055 -0.5215 -0.2463 -0.1603
17936SOL     OW54385   2.506   7.006   4.661  0.4593  0.0789 -0.1244
17936SOL    HW154386   2.486   6.976   4.750  1.8046 -0.9819 -0.1574
17936SOL    HW254387   2.595   7.041   4.667  0.4467  0.2868 -0.9952
17937SOL     OW54388   8.826   4.449   0.198  0.0243 -0.1009 -0.0941
17937SOL    HW154389   8.763   4.483   0.135  0.9176  0.5815 -0.6378
17937SOL    HW254390   8.867   4.375   0.153  0.1048 -0.1037 -0.0171
17938SOL     OW54391   9.583   3.493   7.073  0.0430 -0.0292  0.5125
17938SOL    HW154392   9.610   3.418   7.021 -0.3294  0.3322 -0.2254
17938SOL    HW254393   9.619   3.569   7.027 -0.4940  0.3124  0.6459
17939SOL     OW54394   5.322   7.883   4.124 -0.3354 -0.0376  0.2036
17939SOL    HW154395   5.291   7.866   4.213  0.0741 -0.9905  0.1776
17939SOL    HW254396   5.400   7.829   4.116 -0.5911 -0.2567 -0.8708
17940SOL     OW54397   8.962   6.401   1.283 -0.4818  0.4386 -0.2947
17940SOL    HW154398   9.057   6.390   1.290 -0.4124  0.5002 -1.0217
17940SOL    HW254399   8.933   6.415   1.373 -0.2409 -2.9729  0.4492
17941SOL     OW54400   6.130   7.835   1.557  0.1015  0.2713 -0.5252
17941SOL    HW154401   6.117   7.861   1.648  0.1053  0.8844 -0.6943
17941SOL    HW254402   6.195   7.765   1.561  0.5201  0.6779 -0.1034
17942SOL     OW54403   7.088   5.018   0.470 -0.2775  0.0879  0.6772
17942SOL    HW154404   7.040   5.100   0.480  0.7264  0.9672 -1.1901
17942SOL    HW254405   7.180   5.041   0.485  0.0493 -0.6063 -0.1599
17943SOL     OW54406   1.192   0.185   5.534 -0.5519 -0.0040 -0.3971
17943SOL    HW154407   1.184   0.169   5.628  1.9759 -0.2093 -0.1357
17943SOL    HW254408   1.104   0.174   5.500 -1.4197 -0.5815  1.8444
17944SOL     OW54409   6.493   1.439   1.557  0.3421  0.3925  1.0746
17944SOL    HW154410   6.422   1.502   1.571 -0.3657  0.6879 -2.6998
17944SOL    HW254411   6.458   1.356   1.588 -2.4662  0.2236 -1.9385
17945SOL     OW54412   1.559   3.564   8.784 -0.4281 -0.0202  0.1748
17945SOL    HW154413   1.476   3.562   8.738 -1.5222 -1.1196  2.0686
17945SOL    HW254414   1.586   3.656   8.781 -2.2744  0.5728  0.4711
17946SOL     OW54415   5.314   8.566   7.256 -0.1517 -0.4289  0.3411
17946SOL    HW154416   5.326   8.500   7.324 -1.3684  1.0412  2.0765
17946SOL    HW254417   5.226   8.551   7.223 -0.0405 -0.3194 -0.0094
17947SOL     OW54418   1.253   7.758   7.219 -0.3739  0.5401 -0.0915
17947SOL    HW154419   1.192   7.694   7.182  1.1918 -1.1267  0.1148
17947SOL    HW254420   1.237   7.755   7.313 -1.8644  2.1753 -0.2349
17948SOL     OW54421   6.999   5.447   3.662  0.9403 -0.0474  0.1891
17948SOL    HW154422   6.974   5.448   3.570  1.6185 -0.6800 -0.0153
17948SOL    HW254423   7.051   5.526   3.674 -1.4597  1.5625  0.7419
17949SOL     OW54424   5.259   4.875   9.205 -0.9679 -0.6272  0.1937
17949SOL    HW154425   5.178   4.901   9.162 -0.5728 -0.6959 -0.6096
17949SOL    HW254426   5.266   4.934   9.280 -2.0159 -0.9569  0.5735
17950SOL     OW54427   6.140   2.743   8.570  0.4869 -0.6837  0.4756
17950SOL    HW154428   6.144   2.746   8.474 -0.5138  0.3960  0.4510
17950SOL    HW254429   6.202   2.809   8.599  0.1946 -0.4392  0.5499
17951SOL     OW54430   6.409   4.974   6.739 -0.2506  0.4625  0.4840
17951SOL    HW154431   6.481   4.923   6.704 -2.5531 -2.8575  0.1147
17951SOL    HW254432   6.380   5.029   6.666  0.2966 -0.0894 -0.1558
17952SOL     OW54433   0.162   8.349   0.453 -0.1392 -0.2204 -0.0218
17952SOL    HW154434   0.177   8.255   0.466 -0.8055 -0.4960 -1.2012
17952SOL    HW254435   0.106   8.355   0.377 -0.7367  1.1203  0.4890
17953SOL     OW54436   0.545   2.789   4.322 -0.3456  0.1908 -0.7647
17953SOL    HW154437   0.636   2.818   4.314  0.4752 -1.6466  1.1605
17953SOL    HW254438   0.496   2.870   4.333  1.3318  1.1471  0.2167
17954SOL     OW54439   2.226   5.876   5.992 -0.4010 -0.0995 -0.1304
17954SOL    HW154440   2.190   5.788   5.985 -1.2732  0.3178 -1.2609
17954SOL    HW254441   2.320   5.865   5.977 -0.5920 -0.7516 -0.8895
17955SOL     OW54442   9.627   4.479   7.190  0.6304  0.1531 -0.2132
17955SOL    HW154443   9.707   4.520   7.159  0.9341 -2.2117 -3.0505
17955SOL    HW254444   9.652   4.388   7.207 -1.0732 -0.2065  0.6149
17956SOL     OW54445   4.882   9.398   7.532  0.0826  0.3201  0.2800
17956SOL    HW154446   4.964   9.436   7.564  0.1329  0.7703 -0.3693
17956SOL    HW254447   4.879   9.421   7.440 -0.4654 -0.2549  0.1473
17957SOL     OW54448   0.690   6.706   7.212 -0.1492  0.3391  0.3895
17957SOL    HW154449   0.704   6.745   7.125  1.6386 -0.4308  0.2944
17957SOL    HW254450   0.747   6.757   7.270 -0.3512  0.0168  0.8674
17958SOL     OW54451   5.175   2.556   4.028 -0.2289 -0.1270 -0.1685
17958SOL    HW154452   5.131   2.474   4.050  0.7975 -0.7236 -0.2365
17958SOL    HW254453   5.229   2.534   3.952 -0.0155  0.6414 -0.2496
17959SOL     OW54454   8.928   2.327   4.648 -0.0948  0.2339  0.1515
17959SOL    HW154455   8.939   2.399   4.585 -0.8574  0.1373 -0.1022
17959SOL    HW254456   9.002   2.336   4.708 -0.5574  1.6825  0.5547
17960SOL     OW54457   6.529   2.703   2.118 -0.4483  0.0243 -0.1839
17960SOL    HW154458   6.453   2.647   2.131  0.1922 -0.7264  0.3788
17960SOL    HW254459   6.509   2.782   2.169 -0.5811 -0.4247  0.4705
17961SOL     OW54460   0.416   0.128   8.002  0.3110 -0.1794  0.0549
17961SOL    HW154461   0.398   0.036   8.021  0.1930 -0.1658  0.0094
17961SOL    HW254462   0.451   0.128   7.913 -0.8530 -0.0504 -0.4152
17962SOL     OW54463   9.632   7.295   8.814 -0.9538 -0.1141 -0.1998
17962SOL    HW154464   9.612   7.387   8.829 -0.8108 -0.1150 -0.0048
17962SOL    HW254465   9.583   7.249   8.882  0.0129 -0.0907  0.5374
17963SOL     OW54466   8.172   5.950   1.778 -0.5253 -0.0331  0.5212
17963SOL    HW154467   8.230   5.967   1.852 -0.9075  1.4424  0.5161
17963SOL    HW254468   8.091   5.996   1.800 -0.8165  0.0126 -0.5837
17964SOL     OW54469   1.453   3.036   1.045  0.3919  0.0856 -0.3530
17964SOL    HW154470   1.467   3.086   0.964  0.0942 -1.5594 -1.4671
17964SOL    HW254471   1.357   3.032   1.054  0.3324  2.9656  1.8977
17965SOL     OW54472   8.987   7.925   5.850 -0.1381  0.0455 -0.2499
17965SOL    HW154473   9.038   7.960   5.923  0.7313  0.3895 -0.9959
17965SOL    HW254474   8.952   7.843   5.883 -0.4542  0.5976  0.8276
17966SOL     OW54475   6.505   7.252   1.825 -0.0697  0.0555  0.3144
17966SOL    HW154476   6.576   7.191   1.808 -0.4201 -0.2637 -0.0302
17966SOL    HW254477   6.441   7.201   1.875 -1.1745 -0.4077 -1.5125
17967SOL     OW54478   9.465   3.229   3.609 -0.7112 -0.2392  0.7232
17967SOL    HW154479   9.441   3.244   3.700  1.4512  1.2695  1.1212
17967SOL    HW254480   9.560   3.222   3.610 -0.4359  1.8034 -1.6425
17968SOL     OW54481   0.843   8.088   0.498  0.0688 -0.1358  0.4736
17968SOL    HW154482   0.824   8.119   0.410  0.8628 -1.6041 -0.2484
17968SOL    HW254483   0.843   8.168   0.552  1.1769  1.0095 -1.1356
17969SOL     OW54484   8.421   4.586   4.558  0.3883  0.3001  0.1948
17969SOL    HW154485   8.425   4.677   4.588  1.7025  0.2740  0.1948
17969SOL    HW254486   8.434   4.534   4.637 -3.0174 -0.0447  0.6719
17970SOL     OW54487   5.470   3.875   4.834  0.3648  0.0499  0.5352
17970SOL    HW154488   5.446   3.792   4.793 -1.8810  0.8071  0.1944
17970SOL    HW254489   5.524   3.849   4.910 -0.4246 -1.7320  0.5406
17971SOL     OW54490   0.393   5.245   4.753  0.3407 -0.3143 -0.0636
17971SOL    HW154491   0.314   5.197   4.779 -0.5829  1.1394 -0.0841
17971SOL    HW254492   0.390   5.326   4.804  1.8996 -0.2895  0.0190
17972SOL     OW54493   9.480   8.975   9.074  0.0560 -0.0296  0.5467
17972SOL    HW154494   9.396   8.932   9.058  0.6336 -1.7873  1.8918
17972SOL    HW254495   9.539   8.939   9.007 -0.4863  2.1502 -1.2139
17973SOL     OW54496   2.832   2.724   3.958 -0.1439  0.1334  0.5058
17973SOL    HW154497   2.822   2.629   3.959  1.4730 -0.0796  0.3148
17973SOL    HW254498   2.906   2.739   3.899  0.9805  1.3421  2.1283
17974SOL     OW54499   0.156   5.365   0.810  0.0225  0.3826 -0.0850
17974SOL    HW154500   0.117   5.294   0.759  1.6056 -0.1493 -0.5970
17974SOL    HW254501   0.157   5.332   0.900  1.1169 -0.4476 -0.3785
17975SOL     OW54502   7.509   5.464   6.070  0.0644 -0.1501 -0.6257
17975SOL    HW154503   7.583   5.474   6.130 -0.5624  0.8107  0.0298
17975SOL    HW254504   7.471   5.380   6.093 -0.2755  0.2824  0.4784
17976SOL     OW54505   6.096   3.993   0.076 -0.5788 -0.0054  0.4748
17976SOL    HW154506   6.126   3.902   0.066  2.7255  1.1757 -2.0111
17976SOL    HW254507   6.105   4.010   0.170 -1.0499 -2.1064  0.9601
17977SOL     OW54508   0.332   4.376   2.921 -0.3388 -0.2018 -0.3057
17977SOL    HW154509   0.399   4.309   2.936  0.5190  0.1423 -2.3155
17977SOL    HW254510   0.375   4.458   2.943  0.0079  0.0387 -1.7805
17978SOL     OW54511   6.955   1.649   0.633  0.3257 -0.8782  0.0893
17978SOL    HW154512   7.015   1.576   0.650  0.4975 -0.2767  2.3211
17978SOL    HW254513   6.873   1.607   0.606  0.6225 -1.8736  0.6988
17979SOL     OW54514   5.344   8.535   9.621  0.0877  0.1233 -0.3159
17979SOL    HW154515   5.432   8.556   9.592  0.1194  1.8310  0.8561
17979SOL    HW254516   5.340   8.568   9.711 -1.6406 -0.1998 -0.2353
17980SOL     OW54517   6.455   3.005   9.692 -0.3879  0.1637  0.3855
17980SOL    HW154518   6.467   2.916   9.661 -1.4709  0.7233 -1.8448
17980SOL    HW254519   6.510   3.059   9.635  0.4986  0.9431  1.8937
17981SOL     OW54520   2.283   3.815   2.642  0.2703 -0.0222  0.1630
17981SOL    HW154521   2.202   3.852   2.608 -0.0783  0.3166  1.3343
17981SOL    HW254522   2.315   3.879   2.705  0.2223 -1.2030  1.4361
17982SOL     OW54523   2.653   9.320   1.170 -0.2133 -0.0940 -0.2213
17982SOL    HW154524   2.633   9.237   1.213 -3.1636 -0.1582 -1.5216
17982SOL    HW254525   2.654   9.300   1.076  0.4996  1.0995 -0.4988
17983SOL     OW54526   2.754   6.495   9.651  0.1378 -0.5587 -0.9485
17983SOL    HW154527   2.775   6.407   9.617 -0.7005 -1.2293  0.2170
17983SOL    HW254528   2.685   6.480   9.715  1.0552  0.7664  0.4169
17984SOL     OW54529   1.060   0.556   3.000 -0.0278 -0.4582 -0.4181
17984SOL    HW154530   1.013   0.580   3.081 -1.4113  1.3400 -1.6618
17984SOL    HW254531   1.034   0.466   2.983 -2.4464  0.1988 -0.5837
17985SOL     OW54532   8.694   8.707   3.660 -0.2922 -0.2289 -0.1471
17985SOL    HW154533   8.687   8.659   3.577 -1.2096 -1.7526  0.7685
17985SOL    HW254534   8.659   8.793   3.641 -1.3125 -0.8391 -1.1456
17986SOL     OW54535   0.139   0.465   2.114 -0.1536 -0.5875 -0.1742
17986SOL    HW154536   0.116   0.459   2.206  3.1700  1.9735  1.0126
17986SOL    HW254537   0.158   0.374   2.088  0.2824 -1.2001  2.0826
17987SOL     OW54538   4.894   2.250   5.456  0.1411  0.0073  0.1460
17987SOL    HW154539   4.878   2.315   5.388  1.3003  1.5283  1.2655
17987SOL    HW254540   4.970   2.201   5.426  0.1343  0.1088 -0.0326
17988SOL     OW54541   9.368   5.017   7.497  0.1527  0.0464  0.1427
17988SOL    HW154542   9.433   4.948   7.483  1.2439  0.4583  2.6570
17988SOL    HW254543   9.305   4.978   7.557  0.0682  0.8174  0.5609
17989SOL     OW54544   7.823   7.315   8.655  0.3735 -0.3876  0.4566
17989SOL    HW154545   7.897   7.356   8.699  0.4533 -0.7508  0.6693
17989SOL    HW254546   7.749   7.331   8.714  0.0321  1.0102 -0.3283
17990SOL     OW54547   6.329   0.085   4.969  0.0857 -0.1521  0.0815
17990SOL    HW154548   6.264   0.150   4.996  1.3437  1.3821 -0.4668
17990SOL    HW254549   6.284   0.001   4.979 -1.5048  0.7657  1.0391
17991SOL     OW54550   5.658   9.631   6.820  0.3964 -0.1403  0.4378
17991SOL    HW154551   5.579   9.618   6.768  0.8055 -0.4436 -0.1198
17991SOL    HW254552   5.726   9.583   6.773  0.5909 -1.2009  1.7604
17992SOL     OW54553   4.008   0.923   0.669  0.6418 -0.5173  0.3106
17992SOL    HW154554   3.958   1.004   0.663  0.3503 -0.7486 -0.6881
17992SOL    HW254555   4.033   0.916   0.761 -0.6767 -0.1049  0.7183
17993SOL     OW54556   9.097   6.118   1.983 -0.5769  1.1342  0.2678
17993SOL    HW154557   9.005   6.130   1.958 -0.4245 -1.3368 -1.9637
17993SOL    HW254558   9.093   6.087   2.073 -2.0159  0.1542 -0.0974
17994SOL     OW54559   7.408   2.377   3.661  0.4542 -0.0637  0.0008
17994SOL    HW154560   7.433   2.374   3.568 -0.5419  1.7580 -0.3696
17994SOL    HW254561   7.412   2.470   3.683 -3.2119  0.0491  0.6636
17995SOL     OW54562   2.572   8.253   8.953 -0.1480  0.4798 -0.0855
17995SOL    HW154563   2.610   8.297   8.876  0.3589 -0.2298 -0.2436
17995SOL    HW254564   2.627   8.281   9.026 -0.8472  1.4446  0.0967
17996SOL     OW54565   8.403   2.183   3.023  0.2260 -0.1203 -0.0951
17996SOL    HW154566   8.443   2.161   3.107  0.8999  0.1851 -0.3281
17996SOL    HW254567   8.317   2.218   3.046 -0.4022 -1.8598  0.3480
17997SOL     OW54568   1.382   7.713   4.476 -0.1030  0.2004  0.4431
17997SOL    HW154569   1.394   7.807   4.464  0.5978  0.1364  0.6170
17997SOL    HW254570   1.380   7.678   4.387 -0.6278  0.4084  0.3708
17998SOL     OW54571   7.298   9.543   1.307  0.4918  0.1934 -0.2945
17998SOL    HW154572   7.364   9.592   1.258  1.2885 -0.7730 -0.2347
17998SOL    HW254573   7.282   9.465   1.254 -1.9317  1.1982 -1.1890
17999SOL     OW54574   5.360   1.072   2.694 -0.1662  0.4984 -0.4690
17999SOL    HW154575   5.376   0.982   2.667  1.2621  1.3178 -2.5989
17999SOL    HW254576   5.283   1.099   2.644 -1.6435  0.0066  1.4272
18000SOL     OW54577   6.979   6.704   6.989 -0.2039  0.1435 -0.3318
18000SOL    HW154578   7.068   6.668   6.979 -0.1439  0.7399 -2.3654
18000SOL    HW254579   6.954   6.680   7.078  1.3064 -1.5813 -0.3074
18001SOL     OW54580   5.132   2.042   0.870 -0.3924 -0.3760 -0.0785
18001SOL    HW154581   5.183   2.078   0.943  0.1507 -0.4753 -0.4027
18001SOL    HW254582   5.056   2.100   0.863  0.6698  0.9717 -0.8664
18002SOL     OW54583   6.346   6.464   6.359 -0.2834  0.9145  0.3301
18002SOL    HW154584   6.273   6.521   6.381 -2.1703 -0.8451 -1.0049
18002SOL    HW254585   6.312   6.405   6.292  2.6603  0.5808 -1.0552
18003SOL     OW54586   1.365   5.591   5.297  0.0111  0.2966 -0.0987
18003SOL    HW154587   1.359   5.512   5.244  1.0696  0.1102  0.0494
18003SOL    HW254588   1.374   5.662   5.232  0.4006  0.1634 -0.1882
18004SOL     OW54589   2.656   8.956   6.801 -0.0249 -0.2482  0.5633
18004SOL    HW154590   2.654   8.973   6.895 -3.8361 -1.0104  0.8193
18004SOL    HW254591   2.635   9.040   6.760  0.9736 -0.0629  0.4148
18005SOL     OW54592   3.118   7.058   1.585  0.4088  0.4022 -0.3862
18005SOL    HW154593   3.212   7.064   1.565  0.2836  2.2006 -0.5647
18005SOL    HW254594   3.080   7.136   1.545 -1.0351  0.1457  0.4276
18006SOL     OW54595   1.818   9.509   4.691  0.2343  0.4663  0.5623
18006SOL    HW154596   1.913   9.512   4.680  0.6121 -2.1928  2.1373
18006SOL    HW254597   1.803   9.433   4.748 -2.9841 -0.4485 -1.2536
18007SOL     OW54598   9.567   6.747   6.094  0.0294  0.4490 -0.4871
18007SOL    HW154599   9.488   6.749   6.039  0.9314 -0.7717 -1.8986
18007SOL    HW254600   9.579   6.654   6.115  0.4396  0.7554  0.7393
18008SOL     OW54601   5.329   8.733   9.272  0.1035  0.1352 -0.6099
18008SOL    HW154602   5.346   8.639   9.273  1.9077  0.3641  2.8979
18008SOL    HW254603   5.371   8.764   9.191 -1.0371 -2.0549 -2.1360
18009SOL     OW54604   8.190   4.946   8.332 -0.2030 -0.2347 -0.0318
18009SOL    HW154605   8.236   4.986   8.258 -2.2045 -1.2019 -1.9474
18009SOL    HW254606   8.158   5.020   8.383  1.1915  0.4696 -0.1559
18010SOL     OW54607   7.309   0.718   3.139 -0.0185 -0.6958 -0.1928
18010SOL    HW154608   7.343   0.793   3.189  0.0567  0.2779 -1.6588
18010SOL    HW254609   7.346   0.642   3.183 -0.2455  0.0983  1.4599
18011SOL     OW54610   5.270   5.812   2.085  0.0169 -0.7912  0.2495
18011SOL    HW154611   5.347   5.801   2.141  0.1741 -1.7503 -0.1350
18011SOL    HW254612   5.220   5.882   2.127  0.2677 -1.2904  1.4372
18012SOL     OW54613   8.003   9.481   7.362  0.5089  0.2226  0.1317
18012SOL    HW154614   7.961   9.500   7.278 -0.6284  0.5127  0.7392
18012SOL    HW254615   8.096   9.479   7.343  0.5043  3.1135 -0.6318
18013SOL     OW54616   4.569   8.918   7.698  0.0081 -0.3251  0.4351
18013SOL    HW154617   4.627   8.922   7.775  0.6681 -1.1630  0.0015
18013SOL    HW254618   4.600   8.841   7.649 -1.8185 -1.1409  0.4725
18014SOL     OW54619   8.726   4.189   5.137 -0.6692 -0.2798 -0.0428
18014SOL    HW154620   8.748   4.179   5.230  0.5986 -1.2811 -0.4311
18014SOL    HW254621   8.797   4.241   5.101 -0.4089 -1.0934 -0.7340
18015SOL     OW54622   3.121   0.937   6.235  0.2716 -0.0522 -0.3381
18015SOL    HW154623   3.106   0.861   6.180  0.9346 -0.1660 -0.3776
18015SOL    HW254624   3.045   0.942   6.293 -0.1616 -0.2586 -0.8885
18016SOL     OW54625   9.119   8.312   3.480  0.5299 -0.2061 -0.0898
18016SOL    HW154626   9.188   8.246   3.487 -0.2106 -1.1757 -1.4368
18016SOL    HW254627   9.038   8.262   3.490 -0.0115  0.7554  0.4368
18017SOL     OW54628   8.428   2.811   0.787  0.5219 -0.4215 -0.5049
18017SOL    HW154629   8.341   2.841   0.813  1.1400  1.2531 -0.2062
18017SOL    HW254630   8.460   2.879   0.728  1.8273 -0.7388 -0.2044
18018SOL     OW54631   9.422   0.926   4.537  0.2585  0.0798 -0.1043
18018SOL    HW154632   9.334   0.933   4.499  0.9845  0.3591 -1.8214
18018SOL    HW254633   9.479   0.967   4.472  1.6869 -0.2637  0.9002
18019SOL     OW54634   3.232   6.481   0.582  0.0977  0.1000  0.3732
18019SOL    HW154635   3.259   6.468   0.673  1.3775 -4.1115 -0.3992
18019SOL    HW254636   3.306   6.527   0.541  1.2108 -1.3150  0.7224
18020SOL     OW54637   0.947   6.928   7.914  0.0523  0.0858  0.1459
18020SOL    HW154638   0.881   6.994   7.933 -0.2050  0.3179 -1.4410
18020SOL    HW254639   0.919   6.889   7.831  0.0707 -2.1853  1.1292
18021SOL     OW54640   6.697   7.757   6.955 -0.5414  0.5594  0.5259
18021SOL    HW154641   6.609   7.737   6.988 -0.8699  0.9651 -0.0853
18021SOL    HW254642   6.747   7.782   7.032 -0.7483 -0.4104  0.9913
18022SOL     OW54643   1.122   4.639   2.207  0.3272 -0.2588  0.4436
18022SOL    HW154644   1.093   4.648   2.116 -0.1704  0.8442  0.6908
18022SOL    HW254645   1.190   4.572   2.204 -0.9867 -1.6179 -0.4476
18023SOL     OW54646   5.958   4.125   6.525  0.5213  0.7152  0.0378
18023SOL    HW154647   5.889   4.187   6.547 -0.6466 -0.6617  0.4169
18023SOL    HW254648   5.918   4.039   6.538  1.6074 -0.1491 -1.8837
18024SOL     OW54649   9.016   8.388   4.822 -0.1256  0.0446  0.0844
18024SOL    HW154650   8.966   8.309   4.803 -0.1622  0.3713 -1.2896
18024SOL    HW254651   9.101   8.373   4.781 -0.4141  1.0357 -0.9266
18025SOL     OW54652   1.137   4.691   6.542  0.5527 -0.5483 -0.1074
18025SOL    HW154653   1.164   4.783   6.548 -1.9128  0.4148 -2.1472
18025SOL    HW254654   1.182   4.657   6.465  1.9108 -1.2929  0.9669
18026SOL     OW54655   7.662   1.084   0.951  0.0046 -0.2225 -0.2997
18026SOL    HW154656   7.720   1.016   0.985  1.4298  0.5288 -1.1214
18026SOL    HW254657   7.613   1.041   0.880 -0.6080 -0.9163  0.5285
18027SOL     OW54658   7.473   6.646   1.559  0.0329  0.0084  0.5034
18027SOL    HW154659   7.556   6.620   1.520 -1.2169 -2.3585 -0.8618
18027SOL    HW254660   7.452   6.576   1.621 -1.1964  0.2365  0.3756
18028SOL     OW54661   8.291   0.487   6.543 -0.0125 -0.0590  0.0431
18028SOL    HW154662   8.373   0.531   6.520 -0.2257 -0.3845 -1.4652
18028SOL    HW254663   8.234   0.501   6.467 -1.1330 -0.3785  0.8068
18029SOL     OW54664   1.464   5.833   5.797 -0.2086 -0.9147 -0.2133
18029SOL    HW154665   1.452   5.869   5.708 -1.7218  2.8852  1.2998
18029SOL    HW254666   1.375   5.825   5.831  0.3572 -2.2813  1.0002
18030SOL     OW54667   9.885   6.289   6.383 -0.0768  0.0211  0.0944
18030SOL    HW154668   9.939   6.345   6.327  1.7111  0.2182  1.8809
18030SOL    HW254669   9.859   6.347   6.455  0.0703 -0.8876  0.9041
18031SOL     OW54670   6.781   5.182   7.288  0.4330 -0.7253  0.3588
18031SOL    HW154671   6.863   5.208   7.246 -1.1290  1.3112 -1.6562
18031SOL    HW254672   6.743   5.117   7.230 -0.1057 -0.4893  0.4394
18032SOL     OW54673   7.493   8.606   3.451 -0.0993  0.1015  0.0284
18032SOL    HW154674   7.580   8.645   3.468 -0.2571 -0.1781  1.6699
18032SOL    HW254675   7.505   8.513   3.468 -0.4269 -0.1319 -0.9987
18033SOL     OW54676   7.660   9.903   4.173 -0.3519  0.2551 -0.4521
18033SOL    HW154677   7.628   9.824   4.217  3.7655 -0.7129  1.2758
18033SOL    HW254678   7.610   9.974   4.212 -2.0674 -1.2275  0.1884
18034SOL     OW54679   3.300   1.672   2.315 -0.4393  0.5417 -0.1342
18034SOL    HW154680   3.220   1.623   2.296 -0.8391  0.9096  0.5512
18034SOL    HW254681   3.367   1.605   2.332 -0.2720  0.2138 -1.9303
18035SOL     OW54682   0.357   6.746   3.697 -0.3705  0.3330 -0.1411
18035SOL    HW154683   0.291   6.681   3.720  1.2955 -1.3481  0.1579
18035SOL    HW254684   0.332   6.825   3.746 -2.0480 -0.2868  0.0446
18036SOL     OW54685   6.710   1.873   5.706 -0.8037 -0.2627 -0.1526
18036SOL    HW154686   6.721   1.958   5.748  0.0808  0.0535 -0.9953
18036SOL    HW254687   6.724   1.890   5.613 -0.9313 -1.2769 -0.3670
18037SOL     OW54688   9.911   7.463   6.519 -0.0933  0.4459  0.0581
18037SOL    HW154689   9.979   7.531   6.520  1.3279 -0.9140 -0.1177
18037SOL    HW254690   9.914   7.425   6.607 -1.0926  0.7882  0.2519
18038SOL     OW54691   2.195   2.076   4.289  0.0328 -0.3031 -0.3133
18038SOL    HW154692   2.254   2.129   4.237 -0.0089  0.2663  0.2065
18038SOL    HW254693   2.214   2.101   4.380  1.0978 -2.3019  0.0582
18039SOL     OW54694   1.230   0.721   3.761  0.8833 -0.3107  0.0700
18039SOL    HW154695   1.288   0.659   3.806 -0.9536 -0.3993  2.5007
18039SOL    HW254696   1.160   0.666   3.726 -0.8923  0.2448  2.4532
18040SOL     OW54697   1.905   1.346   5.376 -0.1582 -0.8913 -0.3602
18040SOL    HW154698   1.872   1.380   5.293 -3.3692  0.3897  1.2759
18040SOL    HW254699   1.993   1.384   5.385 -0.5906  0.6805 -2.1743
18041SOL     OW54700   6.995   9.063   6.622  0.0347  0.6819  0.2833
18041SOL    HW154701   7.030   9.115   6.695  0.0205  1.0765  0.0108
18041SOL    HW254702   6.932   9.121   6.579 -1.2393 -0.1228  0.9687
18042SOL     OW54703   1.311   3.973   1.510  0.1534 -0.8399  0.5111
18042SOL    HW154704   1.349   3.974   1.598  1.0133  1.3414  0.1664
18042SOL    HW254705   1.289   4.064   1.492  0.5061 -1.1428 -1.7432
18043SOL     OW54706   4.013   2.683   2.572  0.8002  0.4709 -0.7812
18043SOL    HW154707   4.053   2.607   2.531 -2.6046 -1.3742 -1.0467
18043SOL    HW254708   3.922   2.681   2.541 -0.2741  2.7095  1.8754
18044SOL     OW54709   1.422   5.170   7.904 -0.2622 -0.4214 -0.4478
18044SOL    HW154710   1.494   5.165   7.842  0.1497 -1.1290  0.0656
18044SOL    HW254711   1.415   5.263   7.926 -1.0221 -0.0167 -2.2163
18045SOL     OW54712   7.091   0.309   8.050 -0.2056  0.0310 -0.2154
18045SOL    HW154713   7.082   0.225   8.094 -0.6399  0.3067  0.2304
18045SOL    HW254714   7.185   0.325   8.048 -0.1756 -0.0090  0.5682
18046SOL     OW54715   7.514   5.279   5.779  0.2073 -0.0727  0.2281
18046SOL    HW154716   7.432   5.315   5.745 -0.0309  1.5820  2.3021
18046SOL    HW254717   7.490   5.192   5.810 -1.2528  0.9482  2.2157
18047SOL     OW54718   8.736   9.801   5.420 -0.4545  0.0425 -0.3648
18047SOL    HW154719   8.775   9.715   5.433  0.1684  0.2681 -0.6902
18047SOL    HW254720   8.676   9.812   5.494  0.6047 -0.0358  0.5370
18048SOL     OW54721   4.405   6.376   4.629  0.2026 -0.2100  0.1133
18048SOL    HW154722   4.484   6.409   4.671  0.2539 -0.1289 -0.0505
18048SOL    HW254723   4.406   6.413   4.541 -1.7365  2.5768  1.1153
18049SOL     OW54724   3.963   0.249   3.288  0.2576 -0.1297  0.3523
18049SOL    HW154725   3.982   0.307   3.215  1.4646  1.1129  1.5908
18049SOL    HW254726   4.011   0.169   3.269  1.3976  0.5604  0.2561
18050SOL     OW54727   1.175   3.932   6.895 -0.1716 -0.3176 -0.8837
18050SOL    HW154728   1.099   3.969   6.939  0.3405  0.6815 -0.8184
18050SOL    HW254729   1.249   3.986   6.923  0.8345 -2.1269  0.1899
18051SOL     OW54730   1.400   3.399   3.011 -0.1012 -0.5704 -0.1116
18051SOL    HW154731   1.469   3.452   3.052  0.6486  1.4530 -3.5692
18051SOL    HW254732   1.331   3.394   3.077  1.9679  0.1935  2.2812
18052SOL     OW54733   9.915   6.460   9.754 -0.7930 -0.5192  0.9655
18052SOL    HW154734   9.932   6.513   9.676  0.7076 -0.6785  1.1467
18052SOL    HW254735   9.956   6.510   9.826 -1.1064 -0.9515  1.4523
18053SOL     OW54736   3.322   3.594   4.544 -0.2084 -0.2709 -0.1194
18053SOL    HW154737   3.354   3.573   4.457  0.2801 -2.3303  0.5110
18053SOL    HW254738   3.232   3.624   4.530 -0.2299 -0.8294 -1.3095
18054SOL     OW54739   8.323   3.830   9.684  0.0370  0.5025 -0.1193
18054SOL    HW154740   8.327   3.734   9.679  1.0883  0.4275  1.3215
18054SOL    HW254741   8.398   3.859   9.632 -1.0435  0.6384 -1.6699
18055SOL     OW54742   0.798   1.927   2.352  0.6184 -0.2160 -0.6134
18055SOL    HW154743   0.750   1.977   2.418  2.1875 -1.6433  1.7766
18055SOL    HW254744   0.735   1.864   2.318  0.4231 -1.4001  1.7306
18056SOL     OW54745   1.043   3.320   3.410  0.6115 -0.3506  0.1883
18056SOL    HW154746   0.995   3.246   3.446  2.0406 -1.6427 -0.4300
18056SOL    HW254747   1.052   3.381   3.483 -1.3370 -0.3604  0.4807
18057SOL     OW54748   9.721   7.817   1.380  0.0796 -0.1730  0.3445
18057SOL    HW154749   9.702   7.739   1.432 -0.8560  0.1482  0.5059
18057SOL    HW254750   9.783   7.867   1.433  1.3783 -1.1871 -0.1397
18058SOL     OW54751   9.520   9.250   4.207  0.4488  0.2351  0.4142
18058SOL    HW154752   9.555   9.163   4.230 -0.3584 -0.4044 -0.7153
18058SOL    HW254753   9.508   9.247   4.112 -0.0141  1.4373  0.4215
18059SOL     OW54754   4.144   9.972   4.177  0.2321 -0.5823  0.3179
18059SOL    HW154755   4.198   9.947   4.252  0.1453  0.8813  0.8946
18059SOL    HW254756   4.163   9.906   4.110  1.0929 -1.3088  1.2612
18060SOL     OW54757   8.598   3.075   0.866  0.7585  0.0168 -0.7120
18060SOL    HW154758   8.521   3.087   0.809 -0.1948 -0.2271  0.4700
18060SOL    HW254759   8.658   3.146   0.841  0.1035  0.2781 -1.5935
18061SOL     OW54760   4.691   9.721   2.029  0.4320 -0.2485  0.1163
18061SOL    HW154761   4.617   9.693   1.976  0.4427 -2.0893  0.9954
18061SOL    HW254762   4.655   9.791   2.084  0.4899  1.8551 -2.3832
18062SOL     OW54763   3.329   8.658   4.186 -0.4642  0.6148  0.0052
18062SOL    HW154764   3.254   8.638   4.131 -0.8770  1.4639  0.2489
18062SOL    HW254765   3.396   8.595   4.159 -1.3533 -0.3512  0.0084
18063SOL     OW54766   3.458   9.218   1.368 -0.4562  0.3284  0.3999
18063SOL    HW154767   3.455   9.188   1.459  1.2338  1.0902  0.7364
18063SOL    HW254768   3.452   9.138   1.317  1.3201 -0.4005  1.2473
18064SOL     OW54769   7.718   1.679   1.532  0.4859 -0.2767  0.0508
18064SOL    HW154770   7.780   1.752   1.521  0.7411 -0.6291 -1.0348
18064SOL    HW254771   7.761   1.605   1.490  0.8734 -1.4740  2.4184
18065SOL     OW54772   7.607   6.877   7.826  0.5469  0.0875 -0.5312
18065SOL    HW154773   7.630   6.968   7.841  0.7688 -0.1247  0.5759
18065SOL    HW254774   7.584   6.872   7.734  0.1875  1.3301 -0.5241
18066SOL     OW54775   4.035   8.679   7.562  0.0793  0.0241 -0.9124
18066SOL    HW154776   4.096   8.752   7.569 -0.1987  0.1559  0.3396
18066SOL    HW254777   4.038   8.636   7.647 -1.1689 -0.2956 -1.0114
18067SOL     OW54778   5.428   1.592   7.267 -0.6250  0.6198 -0.0398
18067SOL    HW154779   5.479   1.540   7.205 -1.2689  2.2475 -2.0509
18067SOL    HW254780   5.396   1.529   7.331  0.6655 -1.0272 -0.9524
18068SOL     OW54781   8.546   9.836   0.718  0.1169  0.0812 -0.2831
18068SOL    HW154782   8.595   9.909   0.679  0.7871 -0.2434 -0.0677
18068SOL    HW254783   8.607   9.762   0.713  0.0191 -0.0870  0.9079
18069SOL     OW54784   5.059   6.121   0.833  0.2568  0.1007  0.3849
18069SOL    HW154785   5.090   6.101   0.921  3.5668 -0.8561 -0.8360
18069SOL    HW254786   4.995   6.053   0.813 -1.4318  1.0004  2.3611
18070SOL     OW54787   1.183   7.217   9.607  0.0581 -0.4150 -0.1444
18070SOL    HW154788   1.149   7.285   9.550  0.2384 -0.9468 -0.8922
18070SOL    HW254789   1.152   7.242   9.695 -3.1606 -1.4030 -0.8755
18071SOL     OW54790   1.468   5.410   3.587 -0.0538  0.2049 -0.0430
18071SOL    HW154791   1.475   5.385   3.679  0.9706 -0.8356 -0.3734
18071SOL    HW254792   1.443   5.328   3.543  0.8948  0.3397 -0.8594
18072SOL     OW54793   2.685   5.683   5.376 -0.0029  0.1446 -0.1657
18072SOL    HW154794   2.616   5.748   5.362 -0.7346 -0.8090 -1.1930
18072SOL    HW254795   2.652   5.629   5.448 -0.1510 -0.0704 -0.3937
18073SOL     OW54796   3.539   7.823   5.300 -0.7476 -0.1339  0.2864
18073SOL    HW154797   3.565   7.897   5.245 -1.4615  0.0743  0.2227
18073SOL    HW254798   3.572   7.845   5.388  0.1842 -0.3577  0.0067
18074SOL     OW54799   4.442   2.990   2.737 -0.2350 -0.2296 -0.3978
18074SOL    HW154800   4.365   2.943   2.768 -0.1401  1.2988  2.4089
18074SOL    HW254801   4.410   3.043   2.664 -1.8549  0.2694  0.6257
18075SOL     OW54802   4.393   0.519   6.673 -0.1000 -0.5674  0.6506
18075SOL    HW154803   4.348   0.573   6.607 -0.5370 -1.7615 -0.0755
18075SOL    HW254804   4.389   0.571   6.753 -0.4242  0.5103 -0.0314
18076SOL     OW54805   6.553   9.301   7.155 -0.6574 -0.1164  0.1962
18076SOL    HW154806   6.573   9.207   7.163  0.1837 -0.0850 -1.1721
18076SOL    HW254807   6.470   9.303   7.107 -0.3703 -0.1548 -0.3038
18077SOL     OW54808   9.267   4.284   7.374 -0.4910  0.1715  0.4469
18077SOL    HW154809   9.213   4.206   7.361  0.6688 -0.5049 -0.5435
18077SOL    HW254810   9.326   4.261   7.446  0.4333 -0.2125 -0.4168
18078SOL     OW54811   4.477   1.911   6.130  0.1241 -0.2173  0.5763
18078SOL    HW154812   4.427   1.852   6.186 -0.5029 -1.3376 -1.0675
18078SOL    HW254813   4.533   1.960   6.189 -2.2860  0.4729  2.4381
18079SOL     OW54814   1.651   0.337   9.034  0.1128  0.3101 -0.0676
18079SOL    HW154815   1.679   0.340   9.125  0.4484  0.3544 -0.1716
18079SOL    HW254816   1.591   0.411   9.025 -0.1244  0.1478  0.1840
18080SOL     OW54817   2.446   4.692   8.822 -0.3261 -0.4115 -0.1611
18080SOL    HW154818   2.441   4.777   8.778  0.8399 -0.2777 -0.0512
18080SOL    HW254819   2.539   4.676   8.834 -0.5535 -1.4397  0.3540
18081SOL     OW54820   4.564   9.900   5.915 -0.3118 -0.0580 -0.2814
18081SOL    HW154821   4.478   9.880   5.950  1.0173 -1.0268  2.7430
18081SOL    HW254822   4.625   9.848   5.967  2.1771  0.9025 -1.9953
18082SOL     OW54823   6.185   7.636   2.717  0.3583 -0.9012 -0.1875
18082SOL    HW154824   6.273   7.659   2.687 -0.8542  2.5951 -1.5820
18082SOL    HW254825   6.183   7.663   2.808  0.6749 -0.7459 -0.2236
18083SOL     OW54826   2.969   7.500   1.991  0.0876 -0.1709  0.4691
18083SOL    HW154827   2.910   7.434   1.955  0.6336 -0.4787  0.1261
18083SOL    HW254828   2.935   7.583   1.958  1.8826 -0.5652 -2.7865
18084SOL     OW54829   6.680   4.027   4.313 -0.2992 -0.0132 -0.2294
18084SOL    HW154830   6.695   4.090   4.242 -0.1552 -0.4164 -0.5573
18084SOL    HW254831   6.652   3.947   4.269 -0.8556 -0.0676  0.2154
18085SOL     OW54832   1.668   6.975   4.518 -0.4033  0.2733  0.2100
18085SOL    HW154833   1.621   7.024   4.586 -0.6454 -0.5412  0.6558
18085SOL    HW254834   1.760   6.991   4.535 -0.3260 -1.6973  2.2006
18086SOL     OW54835   0.875   9.158   2.440  0.0282 -0.1849 -0.6930
18086SOL    HW154836   0.794   9.107   2.442  1.7503 -3.1324  1.4816
18086SOL    HW254837   0.915   9.142   2.525  2.4645  1.9898 -1.3110
18087SOL     OW54838   3.347   4.361   8.668 -0.1979 -0.3168  0.3818
18087SOL    HW154839   3.351   4.279   8.718 -0.3241 -0.1998  0.5895
18087SOL    HW254840   3.389   4.340   8.584  2.2269  0.0955  1.3874
18088SOL     OW54841   1.591   0.456   4.070 -0.3038  0.5005 -0.3344
18088SOL    HW154842   1.674   0.454   4.022 -0.1942  0.4900 -0.1458
18088SOL    HW254843   1.591   0.375   4.120 -0.9035  0.0006 -1.1193
18089SOL     OW54844   5.489   9.477   0.508  0.1353 -0.0882 -0.2567
18089SOL    HW154845   5.463   9.567   0.487 -1.3472 -0.3159  0.4602
18089SOL    HW254846   5.542   9.486   0.587  0.7512  0.2207 -0.6923
18090SOL     OW54847   0.379   8.600   6.638  0.1325  0.0499  0.4192
18090SOL    HW154848   0.321   8.574   6.566  0.4583 -0.6095  0.3815
18090SOL    HW254849   0.436   8.666   6.600 -0.2728  0.3453  0.3194
18091SOL     OW54850   2.604   9.616   5.298 -0.0445 -0.2484  0.5532
18091SOL    HW154851   2.694   9.632   5.270 -0.6098  0.6770 -0.8185
18091SOL    HW254852   2.557   9.694   5.272 -1.4007 -1.0340  0.5805
18092SOL     OW54853   9.361   6.467   8.974 -0.3805  0.3519 -1.0528
18092SOL    HW154854   9.303   6.412   9.027  0.2795  0.0759 -0.6099
18092SOL    HW254855   9.361   6.426   8.888  0.1269 -0.3649 -0.7155
18093SOL     OW54856   2.782   4.731   1.249 -0.3698 -0.1458  0.6927
18093SOL    HW154857   2.809   4.731   1.158  0.6563  0.4842  0.9683
18093SOL    HW254858   2.692   4.763   1.248 -0.0628  0.7462 -0.0321
18094SOL     OW54859   2.193   1.539   7.364 -0.7666  0.2060 -0.5475
18094SOL    HW154860   2.222   1.472   7.302 -1.3322 -0.2322 -0.3463
18094SOL    HW254861   2.107   1.509   7.393 -1.1179  1.1331 -0.6111
18095SOL     OW54862   2.553   3.240   0.386  0.6610  0.4991 -0.1676
18095SOL    HW154863   2.626   3.287   0.347 -1.0471  1.0413 -2.9644
18095SOL    HW254864   2.503   3.306   0.434  1.1121  0.4420  0.3891
18096SOL     OW54865   4.005   3.075   6.518  0.4471 -0.3072 -0.2476
18096SOL    HW154866   4.087   3.124   6.526  0.4510  0.5184 -3.6649
18096SOL    HW254867   3.942   3.140   6.486 -0.7443 -1.5538 -0.5094
18097SOL     OW54868   8.836   2.903   8.707 -0.0017 -0.4087 -0.2162
18097SOL    HW154869   8.753   2.941   8.736  0.6213 -0.3781  1.6030
18097SOL    HW254870   8.898   2.976   8.709  0.4196 -0.7676 -0.0903
18098SOL     OW54871   3.840   4.779   8.895 -0.4406 -0.1931  0.2181
18098SOL    HW154872   3.885   4.696   8.878 -0.7496 -0.7156  1.7621
18098SOL    HW254873   3.761   4.754   8.942 -2.0225  0.7694 -1.7763
18099SOL     OW54874   2.202   1.016   7.995 -0.0526 -0.1773 -0.2835
18099SOL    HW154875   2.290   1.045   7.970  0.9126 -1.5970  1.2783
18099SOL    HW254876   2.165   1.091   8.042  0.8232 -0.0177  0.1717
18100SOL     OW54877   8.553   0.107   4.053 -0.0024  0.2507 -0.0695
18100SOL    HW154878   8.596   0.168   3.994  1.3468  1.8157  2.3325
18100SOL    HW254879   8.625   0.069   4.104 -1.1012 -0.9591  0.6295
18101SOL     OW54880   0.828   4.298   0.073 -0.3446  0.2201  0.0873
18101SOL    HW154881   0.866   4.215   0.101  1.7011  1.0643 -0.0106
18101SOL    HW254882   0.743   4.301   0.117 -0.0738 -1.4943  0.8152
18102SOL     OW54883   8.499   3.723   3.158 -0.0291 -0.3087 -0.5192
18102SOL    HW154884   8.590   3.745   3.177 -0.4776  1.3500 -0.1180
18102SOL    HW254885   8.470   3.675   3.236  0.0779  0.5255  0.0530
18103SOL     OW54886   8.641   1.325   1.525  0.5160 -0.4958 -0.4641
18103SOL    HW154887   8.692   1.294   1.450  0.8631  0.4641 -0.6399
18103SOL    HW254888   8.677   1.276   1.600  1.9683  0.4124 -0.5279
18104SOL     OW54889   8.449   1.607   8.845  0.5022 -0.5332  0.2801
18104SOL    HW154890   8.381   1.674   8.831 -0.8113 -1.4443  1.9713
18104SOL    HW254891   8.530   1.651   8.819 -0.6371  0.7680 -1.3367
18105SOL     OW54892   0.513   3.393   7.508  0.3461 -0.2155  0.3303
18105SOL    HW154893   0.597   3.373   7.466 -0.6241 -1.5423 -1.0444
18105SOL    HW254894   0.490   3.314   7.556  0.5853  0.6836  2.0352
18106SOL     OW54895   3.285   3.360   2.806  0.0290 -0.0981 -0.2093
18106SOL    HW154896   3.251   3.293   2.864  0.0844 -0.1655 -0.2543
18106SOL    HW254897   3.211   3.417   2.789  0.2340  0.4474  0.6604
18107SOL     OW54898   8.987   6.335   6.675  0.4110 -0.2710 -0.0131
18107SOL    HW154899   9.062   6.321   6.618  0.1910 -0.2061 -0.3181
18107SOL    HW254900   8.988   6.429   6.694  1.6059 -0.5747  1.6437
18108SOL     OW54901   2.024   0.299   4.441  0.0586  0.9380  0.2283
18108SOL    HW154902   1.931   0.315   4.424 -0.4595  0.6899  2.5214
18108SOL    HW254903   2.037   0.325   4.532  1.4620 -2.0963  1.0287
18109SOL     OW54904   9.711   8.375   1.869  0.2418  0.6679  0.2401
18109SOL    HW154905   9.664   8.399   1.789 -1.7325  0.1857  1.2123
18109SOL    HW254906   9.795   8.340   1.837  0.6759  3.0207 -1.4650
18110SOL     OW54907   3.839   4.844   1.466  0.0530  1.1064 -0.1497
18110SOL    HW154908   3.783   4.921   1.472 -2.5177 -0.6114 -0.5533
18110SOL    HW254909   3.787   4.779   1.418  2.0757 -0.9136  0.1759
18111SOL     OW54910   7.943   6.697   2.690 -0.0661 -0.4318 -0.0425
18111SOL    HW154911   7.935   6.618   2.744 -1.6300 -0.3585 -0.1266
18111SOL    HW254912   7.949   6.664   2.600  0.6477 -0.4877  0.0196
18112SOL     OW54913   2.461   5.292   7.082 -0.4237 -0.2800  0.4809
18112SOL    HW154914   2.412   5.252   7.010 -0.6426 -0.2063  0.5888
18112SOL    HW254915   2.530   5.229   7.102  1.6359  1.0367 -1.8965
18113SOL     OW54916   4.542   2.280   4.068  0.1151 -0.7440  0.3590
18113SOL    HW154917   4.594   2.202   4.049 -1.7857 -1.3568 -3.3196
18113SOL    HW254918   4.598   2.353   4.044  1.1768 -1.0076  1.8731
18114SOL     OW54919   7.822   7.456   9.209 -0.3932 -0.3600  0.2866
18114SOL    HW154920   7.804   7.501   9.126  0.0828 -0.2011  0.2677
18114SOL    HW254921   7.794   7.518   9.276  0.9097  0.2735  0.2755
18115SOL     OW54922   8.106   3.998   3.059 -0.2317  0.1172 -0.0326
18115SOL    HW154923   8.085   4.015   3.151  0.2772 -1.0782  0.3154
18115SOL    HW254924   8.172   4.064   3.037  0.6759 -0.4692  0.8734
18116SOL     OW54925   4.961   7.553   1.987  0.2987  0.5042  0.2603
18116SOL    HW154926   4.948   7.568   1.893  1.7995 -0.0568 -0.0626
18116SOL    HW254927   5.054   7.568   2.001  0.2407 -0.1783  1.5130
18117SOL     OW54928   6.923   0.946   4.517 -0.2252 -0.7123  0.1282
18117SOL    HW154929   6.900   1.020   4.462 -1.3387  0.5501  2.1634
18117SOL    HW254930   6.867   0.954   4.594  0.4465 -3.0204  0.9647
18118SOL     OW54931   5.317   7.349   8.817  0.2892 -0.0263 -0.0106
18118SOL    HW154932   5.391   7.330   8.874  0.6650  0.6334 -0.2618
18118SOL    HW254933   5.241   7.355   8.875  0.8245  1.6180  0.5745
18119SOL     OW54934   5.613   9.899   8.085  0.9511  0.2973 -0.5469
18119SOL    HW154935   5.600   9.843   8.009  0.7471 -0.7330  0.2242
18119SOL    HW254936   5.678   9.853   8.138 -0.0769  0.1980  0.6635
18120SOL     OW54937   4.691   4.544   4.743  0.5501 -0.4758  0.0298
18120SOL    HW154938   4.730   4.528   4.657  0.1441  1.0628 -0.4643
18120SOL    HW254939   4.629   4.472   4.755  1.4147 -1.3286 -0.4585
18121SOL     OW54940   2.462   8.838   2.257  0.6240 -0.1107  0.2637
18121SOL    HW154941   2.482   8.752   2.294 -1.2775 -0.5224  0.4562
18121SOL    HW254942   2.369   8.851   2.276  0.8775  2.0408  0.3014
18122SOL     OW54943   3.044   9.096   8.637  0.0680 -0.0761  0.3190
18122SOL    HW154944   2.980   9.155   8.677 -0.1211 -0.0113 -0.0717
18122SOL    HW254945   3.007   9.075   8.551  1.3235  1.2316 -0.5812
18123SOL     OW54946   8.692   9.530   8.030 -0.2876 -0.2834  0.1261
18123SOL    HW154947   8.603   9.553   8.056  0.1330 -0.4730  1.8716
18123SOL    HW254948   8.695   9.435   8.032  0.0984 -0.2679  0.6694
18124SOL     OW54949   1.010   9.176   4.418  0.4719  0.2332  0.1621
18124SOL    HW154950   0.931   9.136   4.455  0.6446  0.3555  0.6712
18124SOL    HW254951   1.065   9.194   4.494  0.6453  0.9010 -0.1148
18125SOL     OW54952   8.366   7.182   9.437 -0.0675 -0.4074  0.2335
18125SOL    HW154953   8.316   7.100   9.429  1.3503 -1.1157 -3.1412
18125SOL    HW254954   8.443   7.158   9.488 -0.5041 -0.7223  0.7541
18126SOL     OW54955   6.094   5.412   2.207  0.0510  0.2035  0.0118
18126SOL    HW154956   6.163   5.406   2.141  0.2413 -2.4151  0.3506
18126SOL    HW254957   6.136   5.388   2.289 -0.9716 -0.1936  0.4452
18127SOL     OW54958   3.142   8.057   5.088 -0.4976  0.0205  0.3555
18127SOL    HW154959   3.060   8.024   5.053 -0.5148  1.2725 -0.9059
18127SOL    HW254960   3.209   8.020   5.030 -0.5575  2.4661 -1.4261
18128SOL     OW54961   6.462   5.443   3.221  0.2791 -0.5357 -0.6658
18128SOL    HW154962   6.419   5.517   3.264  1.6901 -0.8545  1.4270
18128SOL    HW254963   6.391   5.398   3.174 -0.9634  0.9623 -0.3101
18129SOL     OW54964   6.271   8.191   8.493  0.0837 -0.2480  0.1653
18129SOL    HW154965   6.253   8.223   8.405 -1.2251 -0.0987  0.4657
18129SOL    HW254966   6.335   8.121   8.481 -0.1858 -0.3168 -0.9180
18130SOL     OW54967   9.297   1.680   2.679  0.1539 -0.5616  0.2806
18130SOL    HW154968   9.204   1.656   2.676  0.0155 -0.2387  1.4724
18130SOL    HW254969   9.304   1.757   2.623 -0.2128 -0.8253 -0.1355
18131SOL     OW54970   1.462   8.844   2.783 -0.1868 -0.3558 -0.5993
18131SOL    HW154971   1.453   8.795   2.865  1.0125 -0.4116 -0.4944
18131SOL    HW254972   1.546   8.816   2.747 -1.6218 -1.9903 -2.9594
18132SOL     OW54973   8.783   3.892   8.222  0.4520 -0.2165 -1.1717
18132SOL    HW154974   8.742   3.933   8.298  1.1046 -0.2806 -0.7862
18132SOL    HW254975   8.835   3.820   8.258 -0.3066 -1.1012 -1.7976
18133SOL     OW54976   3.607   5.211   4.990 -0.0038 -0.0854  0.0305
18133SOL    HW154977   3.564   5.154   4.925  1.2647 -1.1193  0.0609
18133SOL    HW254978   3.692   5.170   5.006  1.4060  2.3474 -0.6676
18134SOL     OW54979   4.816   8.938   6.696  0.0628  0.4823  0.1932
18134SOL    HW154980   4.850   8.982   6.775  1.5506  0.3939 -0.3643
18134SOL    HW254981   4.891   8.934   6.637 -0.3543 -1.7081 -0.2731
18135SOL     OW54982   6.415   1.147   3.017 -0.1445 -0.2935  0.1148
18135SOL    HW154983   6.430   1.062   2.976  0.4296 -1.0855  1.8440
18135SOL    HW254984   6.430   1.131   3.111 -1.2215  1.4386  0.6343
18136SOL     OW54985   0.532   5.039   8.117  0.3332 -0.1363 -0.0951
18136SOL    HW154986   0.611   5.091   8.106 -0.6547  1.4983  0.2737
18136SOL    HW254987   0.558   4.950   8.094  1.9258  0.6064 -1.2933
18137SOL     OW54988   3.656   8.324   9.441 -0.2856 -0.1765  0.0332
18137SOL    HW154989   3.563   8.319   9.418 -0.4684 -0.3805  0.7925
18137SOL    HW254990   3.693   8.241   9.412 -0.4661 -0.3429  0.2822
18138SOL     OW54991   4.852   2.653   4.770  0.1152 -0.3220  0.5812
18138SOL    HW154992   4.941   2.688   4.776  0.5202 -1.4584  1.8010
18138SOL    HW254993   4.799   2.710   4.825  0.1207  0.2577 -0.0117
18139SOL     OW54994   6.694   2.268   1.493 -0.1118 -0.8422  0.0705
18139SOL    HW154995   6.654   2.353   1.474 -1.0554 -0.9895  1.2747
18139SOL    HW254996   6.679   2.216   1.414 -0.9312 -0.3849 -0.0844
18140SOL     OW54997   1.569   9.945   9.840  0.0819  0.3294  0.8617
18140SOL    HW154998   1.596  10.037   9.848  1.5294  0.1860 -1.6073
18140SOL    HW254999   1.651   9.896   9.836 -0.4700 -0.5564 -2.4654
18141SOL     OW55000   6.317   5.334   3.027  0.3679 -0.5993  0.3874
18141SOL    HW155001   6.292   5.254   3.074 -0.4467 -0.2003  0.6407
18141SOL    HW255002   6.235   5.382   3.015  0.7276 -0.1881 -0.5057
18142SOL     OW55003   3.492   8.240   5.332 -0.2621  0.2433  0.0729
18142SOL    HW155004   3.426   8.286   5.280  0.3129  1.1301  0.1019
18142SOL    HW255005   3.506   8.157   5.287 -0.3091  0.6921 -0.7702
18143SOL     OW55006   5.173   8.263   8.846 -0.1358  0.1183  0.2225
18143SOL    HW155007   5.239   8.301   8.904  0.5804 -0.6156 -0.0839
18143SOL    HW255008   5.103   8.235   8.905  0.7300 -0.9260  0.8023
18144SOL     OW55009   6.107   2.912   5.523  0.0723  0.7296 -0.1838
18144SOL    HW155010   6.072   2.923   5.435 -1.7923  1.8160  0.6278
18144SOL    HW255011   6.062   2.834   5.558 -1.3403  1.8887  0.7179
18145SOL     OW55012   3.977   4.876   8.530 -0.0659  0.5661  0.0377
18145SOL    HW155013   4.012   4.789   8.543 -1.6135 -0.1197 -0.1556
18145SOL    HW255014   3.895   4.876   8.579 -0.3572  1.7318 -0.4186
18146SOL     OW55015   7.181   6.003   1.702  0.3974 -0.3940 -0.0564
18146SOL    HW155016   7.178   6.093   1.734  1.8559 -0.4788  0.4427
18146SOL    HW255017   7.254   5.963   1.751 -0.8878 -2.1652  0.5346
18147SOL     OW55018   1.863   4.583   1.421 -0.3145  0.1247 -0.6191
18147SOL    HW155019   1.889   4.492   1.408 -0.2336  0.1420 -0.5778
18147SOL    HW255020   1.934   4.634   1.383  0.0569  0.1813  0.1237
18148SOL     OW55021   5.629   4.982   6.629  0.4441  0.2734 -0.2319
18148SOL    HW155022   5.594   4.970   6.717 -1.1345 -0.4630 -0.9236
18148SOL    HW255023   5.577   4.924   6.574  2.3300 -0.3356 -1.4572
18149SOL     OW55024   5.574   9.659   9.554  0.1420 -0.2883  0.1657
18149SOL    HW155025   5.512   9.610   9.501  0.9391  0.7038 -1.8033
18149SOL    HW255026   5.659   9.617   9.537  0.6084  0.8445 -0.4315
18150SOL     OW55027   5.724   9.636   0.993 -0.1604 -0.1347 -0.3242
18150SOL    HW155028   5.659   9.592   0.938 -1.1565  0.0075  0.6884
18150SOL    HW255029   5.673   9.699   1.045  0.9409  0.7275 -0.2373
18151SOL     OW55030   2.650   8.101   4.640 -0.3067 -0.5561 -0.0223
18151SOL    HW155031   2.634   8.050   4.720  0.0410  0.0352  0.4235
18151SOL    HW255032   2.630   8.191   4.665 -0.2455 -0.3789 -0.6207
18152SOL     OW55033   8.882   9.543   2.048  0.0641 -0.3372  0.5982
18152SOL    HW155034   8.820   9.599   2.001 -0.0153 -0.8879  0.0410
18152SOL    HW255035   8.866   9.563   2.141 -0.7185 -0.2294  0.4495
18153SOL     OW55036   0.539   0.506   0.416  0.1709 -0.7874 -0.0353
18153SOL    HW155037   0.595   0.544   0.483  0.3645 -1.0242 -0.0604
18153SOL    HW255038   0.493   0.580   0.377 -0.3912 -0.6998  0.7664
18154SOL     OW55039   6.902   7.774   0.376 -0.0061 -0.5038 -0.0110
18154SOL    HW155040   6.888   7.680   0.368 -0.0559 -0.4850 -0.1468
18154SOL    HW255041   6.940   7.786   0.463 -0.6922 -0.5707  0.2995
18155SOL     OW55042   1.558   8.499   5.322 -0.3416 -0.3275  0.3831
18155SOL    HW155043   1.594   8.580   5.286 -0.9782  0.1420  0.7687
18155SOL    HW255044   1.635   8.445   5.343  0.0684 -0.1146 -0.5097
18156SOL     OW55045   5.739   9.285   6.726  0.3740 -0.1662 -0.0062
18156SOL    HW155046   5.776   9.255   6.809  1.2091  0.5687 -0.1049
18156SOL    HW255047   5.800   9.352   6.695 -0.8445  0.8450 -0.3310
18157SOL     OW55048   3.657   4.609   2.583  0.3814 -0.2328 -0.1312
18157SOL    HW155049   3.609   4.646   2.509 -0.1299  2.5393  1.4529
18157SOL    HW255050   3.596   4.547   2.623 -0.4361  0.3967 -0.3720
18158SOL     OW55051   0.914   1.542   8.629 -0.2699  0.1508  0.3565
18158SOL    HW155052   0.961   1.468   8.590 -1.6785 -0.3170 -0.5298
18158SOL    HW255053   0.824   1.532   8.599 -0.3253  2.7944 -0.6431
18159SOL     OW55054   8.789   4.509   3.858  0.2464 -0.0243  0.1570
18159SOL    HW155055   8.807   4.438   3.796 -1.0155 -1.3144  1.2108
18159SOL    HW255056   8.860   4.572   3.843  2.6718 -2.4670  0.6393
18160SOL     OW55057   1.022   1.247   4.701  0.4580  0.1564 -0.4298
18160SOL    HW155058   1.088   1.291   4.647 -0.0020 -0.6567 -1.7004
18160SOL    HW255059   1.068   1.226   4.782  0.4126  3.8638  0.7225
18161SOL     OW55060   2.954   6.572   0.537  0.0147 -0.1964  0.0855
18161SOL    HW155061   3.048   6.583   0.552 -0.1599 -0.4361  1.4998
18161SOL    HW255062   2.923   6.660   0.516  0.6104 -0.1827 -0.7616
18162SOL     OW55063   1.283   3.736   8.918 -0.3714 -0.4465  0.3590
18162SOL    HW155064   1.221   3.689   8.861 -1.4033  1.0519  0.1969
18162SOL    HW255065   1.244   3.730   9.005 -0.0409 -0.6386  0.4962
18163SOL     OW55066   5.162   7.051   6.897  0.2462 -0.2616 -0.3712
18163SOL    HW155067   5.098   7.020   6.961 -0.8145  1.2644 -0.6468
18163SOL    HW255068   5.188   7.137   6.928  2.6008 -1.0110 -0.0036
18164SOL     OW55069   6.760   7.463   4.557 -0.4675  0.1517  0.5291
18164SOL    HW155070   6.678   7.499   4.521 -0.8023 -2.5154 -1.7348
18164SOL    HW255071   6.739   7.443   4.649 -1.2430  2.5366  0.9302
18165SOL     OW55072   5.364   9.652   9.718  0.9869  0.2497 -0.0210
18165SOL    HW155073   5.323   9.735   9.694 -0.4162 -0.7666 -1.3449
18165SOL    HW255074   5.443   9.647   9.664  1.6062  1.1424  0.7818
18166SOL     OW55075   1.118   7.377   6.321 -0.1247 -0.1272 -0.2368
18166SOL    HW155076   1.142   7.407   6.233 -0.2312  1.8161  0.3333
18166SOL    HW255077   1.182   7.310   6.342  1.1105  0.7416 -1.0726
18167SOL     OW55078   6.281   4.993   8.338  0.3224  0.6821  0.0390
18167SOL    HW155079   6.285   4.943   8.256  1.5790  0.3174  0.2945
18167SOL    HW255080   6.232   5.072   8.315 -0.1855  0.1338 -0.8118
18168SOL     OW55081   7.365   7.226   5.183 -0.6076 -0.0795  0.0430
18168SOL    HW155082   7.416   7.304   5.163  0.5742 -0.5737  0.9845
18168SOL    HW255083   7.392   7.162   5.117 -0.7873 -0.0245 -0.0850
18169SOL     OW55084   9.708   1.425   6.993  0.3212  0.1613 -0.3738
18169SOL    HW155085   9.646   1.360   6.960  1.2781 -0.2307 -1.4786
18169SOL    HW255086   9.775   1.374   7.039  0.2801  0.5035  0.0713
18170SOL     OW55087   5.541   2.576   5.363 -0.2726 -0.0392 -0.3533
18170SOL    HW155088   5.530   2.572   5.268 -0.1699 -0.1750 -0.3590
18170SOL    HW255089   5.580   2.492   5.386 -1.5581 -0.5674 -0.0197
18171SOL     OW55090   4.431   3.149   9.432  1.2946  0.2689  0.0074
18171SOL    HW155091   4.511   3.165   9.382  0.9246  0.2827 -0.5989
18171SOL    HW255092   4.373   3.222   9.408  0.1951 -1.0168 -1.5158
18172SOL     OW55093   3.339   0.506   0.001  0.0002 -0.6489 -0.0153
18172SOL    HW155094   3.382   0.525   0.084 -0.7048  2.0333 -0.1650
18172SOL    HW255095   3.247   0.526   0.017 -0.1513 -0.0895 -1.3985
18173SOL     OW55096   6.329   5.317   5.253 -0.3065  0.1805 -0.0109
18173SOL    HW155097   6.276   5.238   5.264  1.2284 -0.8571  0.2435
18173SOL    HW255098   6.400   5.307   5.317 -0.6751  2.3217  0.8171
18174SOL     OW55099   4.672   3.360   6.610  0.0090 -0.3301  0.4553
18174SOL    HW155100   4.605   3.429   6.603 -0.5232 -0.8346  0.5325
18174SOL    HW255101   4.629   3.281   6.578 -0.1733 -1.1457  2.5279
18175SOL     OW55102   9.220   7.062   2.063 -0.3130  0.0139 -0.1995
18175SOL    HW155103   9.272   7.028   2.136  0.1722 -1.5533 -1.2194
18175SOL    HW255104   9.225   7.157   2.072  1.1580 -0.1297  0.8128
18176SOL     OW55105   9.782   5.358   6.073 -0.3507  0.6644  0.7504
18176SOL    HW155106   9.741   5.320   6.151 -0.4401 -0.4864  0.1618
18176SOL    HW255107   9.858   5.302   6.057  0.6526  1.9087  0.9811
18177SOL     OW55108   7.454   3.079   3.327 -0.4689 -0.5542  0.0651
18177SOL    HW155109   7.458   3.152   3.388  0.1961  1.1425 -1.8669
18177SOL    HW255110   7.525   3.020   3.355  1.5006  1.4307 -0.4933
18178SOL     OW55111   2.828   0.980   5.789 -0.1908 -0.1168 -0.2826
18178SOL    HW155112   2.764   0.983   5.861 -1.6518 -1.2221 -1.4594
18178SOL    HW255113   2.820   1.065   5.747 -1.4338 -0.4811 -0.8305
18179SOL     OW55114   9.787   7.527   0.141 -0.6401  0.4232  0.0590
18179SOL    HW155115   9.748   7.440   0.145  0.1702  0.0713  0.3710
18179SOL    HW255116   9.758   7.562   0.057  0.4381 -0.8171 -0.8616
18180SOL     OW55117   3.148   1.779   8.600 -0.4737  0.2496  0.5685
18180SOL    HW155118   3.224   1.759   8.654  0.5125  0.3680 -0.7029
18180SOL    HW255119   3.126   1.870   8.622  0.9301  0.8505 -0.3332
18181SOL     OW55120   6.161   1.905   3.461  0.4260 -0.0712  0.1916
18181SOL    HW155121   6.251   1.874   3.467  0.4807  0.2861  1.6725
18181SOL    HW255122   6.131   1.878   3.374  1.6474 -1.0202  0.0478
18182SOL     OW55123   0.703   6.327   7.485  0.0659 -0.2243 -0.0222
18182SOL    HW155124   0.758   6.281   7.421  0.0749 -1.0948  0.5908
18182SOL    HW255125   0.700   6.417   7.454  2.1120 -0.0728  0.0966
18183SOL     OW55126   1.662   7.308   1.044  0.5514 -0.3872  0.0568
18183SOL    HW155127   1.677   7.259   0.964  2.9582  1.6448 -0.8795
18183SOL    HW255128   1.567   7.324   1.046  0.3305 -1.2205 -1.9250
18184SOL     OW55129   9.794   8.856   5.994  0.6806 -0.3609 -0.1943
18184SOL    HW155130   9.800   8.951   5.986  2.5541 -0.2833  1.2997
18184SOL    HW255131   9.701   8.837   5.986  0.2080  1.6530 -0.0846
18185SOL     OW55132   8.865   5.170   9.284  0.0468  0.5372  0.6169
18185SOL    HW155133   8.878   5.114   9.360  1.1187  0.6634  0.5401
18185SOL    HW255134   8.837   5.110   9.215  0.0492  0.2728  0.8419
18186SOL     OW55135   0.314   7.161   9.578 -0.0434 -0.2526 -0.2244
18186SOL    HW155136   0.269   7.194   9.656  1.1460 -2.2596  1.4090
18186SOL    HW255137   0.360   7.237   9.543 -1.1733  0.8514  0.5818
18187SOL     OW55138   7.536   1.585   9.717 -0.2152  0.1906  0.5440
18187SOL    HW155139   7.597   1.648   9.755 -1.0716  0.3556  1.6898
18187SOL    HW255140   7.593   1.519   9.676  0.7732  0.1192  1.9230
18188SOL     OW55141   1.744   0.256   2.190  0.8190 -0.3691 -0.2009
18188SOL    HW155142   1.683   0.240   2.118  1.6097 -0.5573 -0.8423
18188SOL    HW255143   1.831   0.257   2.148  1.2784 -0.3657  0.7313
18189SOL     OW55144   7.439   9.330   4.382 -0.0561  0.2667 -0.1099
18189SOL    HW155145   7.532   9.353   4.382 -0.3660  1.6406 -0.7189
18189SOL    HW255146   7.410   9.346   4.292 -0.8885 -0.1140  0.0776
18190SOL     OW55147   3.144   8.963   0.642  0.6477 -0.1708  0.4625
18190SOL    HW155148   3.086   9.025   0.685  0.3146  0.0989 -0.3445
18190SOL    HW255149   3.193   8.921   0.713 -0.0977  0.0371  1.1053
18191SOL     OW55150   6.405   7.866   3.150 -0.8420  0.5636  0.6671
18191SOL    HW155151   6.455   7.836   3.075  0.2707  0.9412  1.2206
18191SOL    HW255152   6.435   7.811   3.223 -1.2342  0.7991  1.0146
18192SOL     OW55153   6.831   1.393   8.711  0.7930 -0.0133  0.4739
18192SOL    HW155154   6.770   1.370   8.781  0.3033  0.7305  0.3079
18192SOL    HW255155   6.811   1.485   8.692  1.4506  0.0145 -0.1100
18193SOL     OW55156   8.502   7.254   0.059  0.2824 -0.0700  0.3014
18193SOL    HW155157   8.566   7.285   0.123  0.6964 -0.0092 -0.1327
18193SOL    HW255158   8.539   7.171   0.026  0.5543  0.3637 -0.5349
18194SOL     OW55159   6.010   1.225   4.126 -0.2767  0.4106  0.3884
18194SOL    HW155160   6.044   1.233   4.037  2.1970 -1.2497  1.0905
18194SOL    HW255161   5.922   1.190   4.115  0.1422 -0.1848 -1.3930
18195SOL     OW55162   1.084   4.027   5.744 -0.2153  0.7228  0.6026
18195SOL    HW155163   1.120   4.110   5.713  1.6694 -0.3449 -0.1888
18195SOL    HW255164   1.149   3.961   5.720 -2.5821 -1.3209 -0.6598
18196SOL     OW55165   3.616   0.201   6.819 -0.3101 -0.2708 -0.4689
18196SOL    HW155166   3.701   0.167   6.847  0.2456  0.9578 -0.6088
18196SOL    HW255167   3.553   0.158   6.877  0.5015 -0.4557  0.2934
18197SOL     OW55168   0.572   6.389   5.105  0.2481 -0.1033  0.2397
18197SOL    HW155169   0.571   6.478   5.070 -0.4331 -0.5392 -0.9306
18197SOL    HW255170   0.480   6.365   5.113  0.3933 -0.1809  1.9977
18198SOL     OW55171   3.357   0.685   4.664 -0.2279  0.8708  0.1878
18198SOL    HW155172   3.302   0.735   4.725 -0.3925 -1.8533  2.4639
18198SOL    HW255173   3.425   0.647   4.719  0.0990 -1.1012 -1.4542
18199SOL     OW55174   3.712   9.955   3.979 -0.6270  0.0735  0.1683
18199SOL    HW155175   3.712  10.016   3.905  0.0826  0.0951  0.1789
18199SOL    HW255176   3.804   9.951   4.007 -0.8938  0.0902  1.0684
18200SOL     OW55177   8.810   4.638   8.542  0.4468 -0.0388 -0.1318
18200SOL    HW155178   8.716   4.619   8.542  0.7780 -1.9209  0.7875
18200SOL    HW255179   8.850   4.561   8.500  1.6008  0.6022 -0.2351
18201SOL     OW55180   8.729   7.778   2.792  0.2241  0.2420 -0.5733
18201SOL    HW155181   8.635   7.790   2.804  0.5629  2.5709  0.3916
18201SOL    HW255182   8.766   7.795   2.878  1.6451  1.2904 -1.3482
18202SOL     OW55183   1.317   5.393   9.949  0.0905  0.1630  0.2087
18202SOL    HW155184   1.327   5.392  10.044 -0.6756  0.6601  0.2990
18202SOL    HW255185   1.321   5.486   9.926 -2.4063  0.2913  0.0689
18203SOL     OW55186   9.083  -0.013   1.481 -0.1760 -0.1053  0.3857
18203SOL    HW155187   9.143  -0.035   1.551 -0.2956  0.5161  0.6815
18203SOL    HW255188   9.055   0.077   1.499  1.9514  1.1396 -1.9745
18204SOL     OW55189   6.620   4.313   6.864  0.2206  0.0458 -0.4691
18204SOL    HW155190   6.612   4.377   6.793 -0.8022  0.2682 -0.1636
18204SOL    HW255191   6.563   4.346   6.933 -0.4564 -1.2765 -0.3642
18205SOL     OW55192   5.481   1.263   4.993 -0.6193  0.3833 -0.0054
18205SOL    HW155193   5.452   1.177   5.026 -2.0478  0.7877 -0.1421
18205SOL    HW255194   5.572   1.250   4.969 -0.9378 -1.2309 -0.4553
18206SOL     OW55195   4.358   0.990   7.086 -0.5535  0.2738  0.8565
18206SOL    HW155196   4.421   0.932   7.131  0.9950  1.0968 -0.1707
18206SOL    HW255197   4.384   1.078   7.112 -1.3337  0.6280  0.4552
18207SOL     OW55198   6.888   5.725   6.937 -0.2151 -0.0498 -0.1084
18207SOL    HW155199   6.936   5.688   7.010  2.1559  0.9348 -1.0839
18207SOL    HW255200   6.916   5.675   6.861 -1.4177 -0.0024 -0.6165
18208SOL     OW55201   9.527   1.644   3.715  0.1584  0.4568 -0.1770
18208SOL    HW155202   9.470   1.572   3.740  0.4834 -0.2173 -1.3059
18208SOL    HW255203   9.611   1.603   3.695  0.7375  1.3039  0.4121
18209SOL     OW55204   2.684   4.537   7.453  0.3144 -0.3283 -0.3344
18209SOL    HW155205   2.746   4.464   7.452 -0.2933 -0.8573 -0.5695
18209SOL    HW255206   2.737   4.614   7.473  0.7793 -1.0145  1.2545
18210SOL     OW55207   4.359   8.677   3.879 -0.0299  0.7200 -0.0633
18210SOL    HW155208   4.307   8.734   3.937 -0.2140  0.7547 -0.2593
18210SOL    HW255209   4.426   8.639   3.936 -0.9901 -0.2406  0.4555
18211SOL     OW55210   7.760   2.015   6.542  0.1472 -0.3190 -0.0793
18211SOL    HW155211   7.774   1.977   6.455  2.8660  0.5545 -0.1345
18211SOL    HW255212   7.770   1.941   6.602  0.3724 -0.5620 -0.4110
18212SOL     OW55213   0.341   9.538   1.480  0.2069  0.1011 -0.0079
18212SOL    HW155214   0.428   9.547   1.519 -0.0082 -0.3407  0.5976
18212SOL    HW255215   0.301   9.624   1.491 -0.1243 -0.2133  1.4690
18213SOL     OW55216   8.502   6.834   7.072 -0.3986 -0.2580 -0.0439
18213SOL    HW155217   8.432   6.790   7.121  0.3895 -1.4453  0.0571
18213SOL    HW255218   8.558   6.871   7.140  1.1247 -2.5718  0.0616
18214SOL     OW55219   9.799   3.290   8.380  0.4160 -0.2548 -0.3179
18214SOL    HW155220   9.733   3.270   8.447  0.1216 -3.7913 -1.4317
18214SOL    HW255221   9.882   3.261   8.420  0.7320  0.5762 -0.3557
18215SOL     OW55222   8.171   5.770   5.148  0.4009 -0.2605 -0.0252
18215SOL    HW155223   8.084   5.754   5.184  1.0752 -0.3612  1.6540
18215SOL    HW255224   8.225   5.699   5.184  1.8673  1.5689  1.6456
18216SOL     OW55225   9.636   8.162   5.691 -0.3278 -0.3070 -0.4878
18216SOL    HW155226   9.628   8.200   5.779  0.7347 -1.3320  0.0848
18216SOL    HW255227   9.627   8.237   5.632 -1.0955  0.3959  0.4874
18217SOL     OW55228   5.858   4.087   3.724  0.0534 -0.2131 -0.0695
18217SOL    HW155229   5.890   4.169   3.762 -0.1255  0.6327 -1.6648
18217SOL    HW255230   5.935   4.031   3.716  0.2349 -0.0840  0.7004
18218SOL     OW55231   8.504   3.999   7.727  0.0166 -0.3724  0.6362
18218SOL    HW155232   8.528   3.911   7.698 -0.3799  0.0299 -1.0255
18218SOL    HW255233   8.410   3.995   7.744 -0.0084 -0.2524  0.5283
18219SOL     OW55234   8.772   9.043   8.782  0.6859 -0.2684 -0.0874
18219SOL    HW155235   8.857   9.003   8.764  0.6348 -0.1700 -0.5429
18219SOL    HW255236   8.709   8.985   8.739  0.5571 -0.0763 -0.1551
18220SOL     OW55237   1.292   4.377   3.455 -0.7041 -0.2472  0.3844
18220SOL    HW155238   1.274   4.354   3.364 -4.1168  2.6305  0.0987
18220SOL    HW255239   1.214   4.346   3.502  0.2142 -0.1300  2.0317
18221SOL     OW55240   2.722   6.390   0.255 -0.5741 -0.6704  0.4171
18221SOL    HW155241   2.662   6.316   0.248 -1.1658 -0.2853  1.2340
18221SOL    HW255242   2.753   6.388   0.345 -1.9739  1.0811  0.9921
18222SOL     OW55243   6.318   3.181   6.402 -0.1714 -0.2724  0.2696
18222SOL    HW155244   6.261   3.110   6.430 -0.4729 -1.3297 -2.6120
18222SOL    HW255245   6.259   3.250   6.372  0.1233  0.6497  1.7234
18223SOL     OW55246   3.499   4.129   4.977 -0.4200 -0.5409 -0.4347
18223SOL    HW155247   3.412   4.167   4.967 -0.6738 -1.3684 -1.6864
18223SOL    HW255248   3.487   4.060   5.042  0.1148  1.5874  2.1026
18224SOL     OW55249   3.844   5.028   3.003  0.0197  0.5141  0.2744
18224SOL    HW155250   3.755   5.060   3.017  0.0874  0.3632  1.1131
18224SOL    HW255251   3.832   4.935   2.981 -0.0885  0.7569 -0.7483
18225SOL     OW55252   3.643   8.017   0.258  0.0346 -0.1528  0.0594
18225SOL    HW155253   3.627   8.033   0.351  0.0754 -2.9714  0.6277
18225SOL    HW255254   3.608   8.095   0.215 -0.0716  1.2007  2.4065
18226SOL     OW55255   5.765   5.560   0.963 -0.2626  0.3101  0.3655
18226SOL    HW155256   5.680   5.521   0.941  0.2885 -1.3172  1.0148
18226SOL    HW255257   5.822   5.486   0.982  0.9560  1.4181  1.2473
18227SOL     OW55258   7.924   4.518   5.187  0.5563  0.4285  0.0443
18227SOL    HW155259   7.930   4.551   5.098  0.2708 -0.3193 -0.2626
18227SOL    HW255260   7.942   4.424   5.180 -0.0133  0.2582  0.6891
18228SOL     OW55261   0.565   5.080   7.434  0.2183  0.1124 -0.0382
18228SOL    HW155262   0.630   5.034   7.486 -1.2133  0.5453  2.2738
18228SOL    HW255263   0.492   5.019   7.427 -0.0948  0.5267 -0.4622
18229SOL     OW55264   4.195   0.556   9.437 -0.2483  0.4076  0.3786
18229SOL    HW155265   4.136   0.630   9.456  0.0341  0.2382  2.0589
18229SOL    HW255266   4.140   0.478   9.447 -0.4067  0.3319 -0.8489
18230SOL     OW55267   8.379   1.810   5.837  0.2994 -0.2006 -0.3231
18230SOL    HW155268   8.444   1.880   5.834  0.1597 -0.1037 -1.2306
18230SOL    HW255269   8.296   1.854   5.818 -0.2793 -0.0828  2.0872
18231SOL     OW55270   0.881   7.600   8.214  0.1797  0.3208  0.4322
18231SOL    HW155271   0.855   7.616   8.305 -1.2056  1.3409 -0.0902
18231SOL    HW255272   0.812   7.642   8.163 -0.8041 -2.9047 -1.1399
18232SOL     OW55273   9.039   7.373   4.739 -0.3348  0.3115  0.3549
18232SOL    HW155274   8.981   7.323   4.681  0.9790  1.0207 -1.6618
18232SOL    HW255275   8.987   7.385   4.819 -1.0949 -3.3604  0.6140
18233SOL     OW55276   8.945   8.213   7.594  0.1338  0.0047 -0.1644
18233SOL    HW155277   8.921   8.272   7.523  0.2501  0.5705  0.2615
18233SOL    HW255278   8.908   8.254   7.673  1.9091  0.5647  0.4241
18234SOL     OW55279   6.144   4.295   0.448 -0.7440 -0.4444  0.5699
18234SOL    HW155280   6.106   4.298   0.536 -1.4216  0.7985  0.2610
18234SOL    HW255281   6.089   4.354   0.396 -0.5359 -1.3675 -0.7699
18235SOL     OW55282   0.014   8.036   4.285 -0.2780  0.2029 -0.4860
18235SOL    HW155283   0.031   7.959   4.339  0.1429  0.2798 -0.5041
18235SOL    HW255284   0.062   8.019   4.203 -0.4486  0.3376 -0.6136
18236SOL     OW55285   7.401   3.746   6.671 -0.1531  0.1885 -0.2582
18236SOL    HW155286   7.385   3.683   6.741 -1.4934  0.8556  0.0695
18236SOL    HW255287   7.440   3.694   6.600 -0.5379 -0.8553  0.2728
18237SOL     OW55288   9.005   0.427   4.460 -0.4011  0.0813  0.3918
18237SOL    HW155289   8.978   0.399   4.547 -1.8673 -0.9169 -0.3458
18237SOL    HW255290   9.031   0.347   4.416 -1.5700  0.2700 -0.7062
18238SOL     OW55291   5.540   7.721   4.116 -0.0091 -0.4983 -0.5862
18238SOL    HW155292   5.611   7.734   4.180  0.9278  0.7519 -1.8208
18238SOL    HW255293   5.552   7.631   4.087 -1.4344 -1.6733  2.0705
18239SOL     OW55294   5.809   3.158   4.623 -0.1185 -0.0325 -0.0361
18239SOL    HW155295   5.905   3.163   4.626 -0.0374 -1.3303  0.3237
18239SOL    HW255296   5.779   3.221   4.688  0.4676  0.7443 -0.4976
18240SOL     OW55297   5.422   7.388   4.379  0.3684  0.0893  0.0458
18240SOL    HW155298   5.451   7.422   4.464 -0.9399  2.7900 -0.4716
18240SOL    HW255299   5.348   7.332   4.400  0.5244  0.1387  0.7576
18241SOL     OW55300   7.406   5.513   9.577 -0.1594 -0.1802 -0.1337
18241SOL    HW155301   7.471   5.504   9.647  0.3453 -0.4719 -0.6366
18241SOL    HW255302   7.323   5.490   9.620  0.3660 -2.0838 -0.0179
18242SOL     OW55303   4.807   1.650   2.838 -0.5369 -0.3851 -0.5605
18242SOL    HW155304   4.808   1.697   2.755 -1.4792 -0.0428 -0.3930
18242SOL    HW255305   4.865   1.700   2.895 -0.1319 -0.4455 -0.9160
18243SOL     OW55306   6.011   4.854   5.335 -0.0890  0.1988 -0.0660
18243SOL    HW155307   5.966   4.771   5.323 -0.1438  0.2387 -0.1364
18243SOL    HW255308   6.019   4.890   5.246  0.1438  0.1595 -0.0632
18244SOL     OW55309   1.320   9.719   7.455 -0.1274  0.3840 -0.5196
18244SOL    HW155310   1.415   9.729   7.460 -0.3369  2.4408  0.6616
18244SOL    HW255311   1.298   9.663   7.529  0.1301  0.3360 -0.4777
18245SOL     OW55312   4.665   3.985   0.027  0.0768 -0.0296  0.3968
18245SOL    HW155313   4.746   3.994  -0.023  0.6574 -0.2096  1.2868
18245SOL    HW255314   4.680   3.910   0.085 -1.0130 -0.5432  0.0465
18246SOL     OW55315   0.978   6.180   5.252 -0.0600  0.7273 -0.0415
18246SOL    HW155316   1.046   6.220   5.197 -0.3842  0.3293 -0.7424
18246SOL    HW255317   0.940   6.111   5.197  1.6935 -1.8136  1.7345
18247SOL     OW55318   0.382   8.805   9.008  0.1115  0.3666  0.2297
18247SOL    HW155319   0.409   8.861   9.080  0.6503  0.5344 -0.1019
18247SOL    HW255320   0.287   8.818   9.002  0.4142  2.5660 -0.9305
18248SOL     OW55321   7.147   9.816   4.754 -0.4647 -0.0765  0.1367
18248SOL    HW155322   7.142   9.912   4.754  0.6780  0.0003 -0.0128
18248SOL    HW255323   7.138   9.791   4.663  1.0154  0.0302 -0.0679
18249SOL     OW55324   7.302   3.557   7.410  0.0367 -0.2478 -0.1853
18249SOL    HW155325   7.299   3.561   7.506  0.8909 -0.9919 -0.1157
18249SOL    HW255326   7.337   3.470   7.391  1.1157  0.3753 -1.1500
18250SOL     OW55327   9.092   3.570   6.152 -0.4697 -0.4649  0.7100
18250SOL    HW155328   9.137   3.509   6.210 -0.1164  0.5854  1.5665
18250SOL    HW255329   9.138   3.562   6.068  2.7466  1.9768  2.0266
18251SOL     OW55330   7.268   6.751   9.330 -0.3483  0.2801 -0.5245
18251SOL    HW155331   7.334   6.819   9.322 -0.1259  0.1743  0.3421
18251SOL    HW255332   7.205   6.771   9.260 -0.2230  1.3014 -0.3716
18252SOL     OW55333   2.922   6.481   6.033 -0.6058  0.1887  0.2691
18252SOL    HW155334   2.836   6.439   6.030  0.0051 -1.2346  1.1808
18252SOL    HW255335   2.954   6.463   6.121  1.4495 -1.0860 -0.6537
18253SOL     OW55336   9.473   6.535   1.043 -0.2327 -0.2630  0.2661
18253SOL    HW155337   9.458   6.442   1.030 -2.8282  0.0313  0.5870
18253SOL    HW255338   9.561   6.541   1.081  0.2823 -2.4809 -0.4565
18254SOL     OW55339   1.082   1.945   5.242 -0.7012  0.2786 -0.3188
18254SOL    HW155340   1.118   2.028   5.274 -0.0047  0.6456 -1.9461
18254SOL    HW255341   1.038   1.967   5.160  0.0692 -1.0281 -1.1328
18255SOL     OW55342   1.227   8.443   2.864 -1.0490  0.2456  0.4856
18255SOL    HW155343   1.309   8.467   2.822 -1.3781 -1.3127 -1.1770
18255SOL    HW255344   1.248   8.438   2.957  0.1289  2.1594  0.3776
18256SOL     OW55345   5.575   2.801   5.806 -0.1520 -0.5524  0.3894
18256SOL    HW155346   5.594   2.818   5.714  1.3162 -0.7782  0.6283
18256SOL    HW255347   5.513   2.729   5.805 -0.2487 -0.4657 -0.4306
18257SOL     OW55348   5.379   4.306   2.588  0.3417 -0.4170  0.1568
18257SOL    HW155349   5.469   4.333   2.607 -0.0072 -0.1006  1.5199
18257SOL    HW255350   5.379   4.211   2.599  0.2361 -0.2842  1.5956
18258SOL     OW55351   3.141   8.253   5.482 -0.2884 -0.8260  0.8872
18258SOL    HW155352   3.078   8.294   5.422 -0.1339 -1.2180  0.4464
18258SOL    HW255353   3.123   8.293   5.567 -0.1112  0.1929  0.4655
18259SOL     OW55354   8.026   5.153   5.273 -0.2981 -0.0210 -0.0611
18259SOL    HW155355   8.007   5.061   5.292 -0.0551 -0.0084  0.2532
18259SOL    HW255356   7.954   5.201   5.313 -0.9336 -0.1289 -1.0418
18260SOL     OW55357   0.085   6.448   7.210  0.3147  0.3893 -1.1562
18260SOL    HW155358   0.074   6.421   7.301  0.6242 -0.2345 -1.2976
18260SOL    HW255359   0.001   6.489   7.187 -0.1284 -0.3394 -0.8895
18261SOL     OW55360   7.846   0.884   6.914 -0.3117  0.1285 -0.0353
18261SOL    HW155361   7.819   0.800   6.875  0.2244 -0.0320 -0.0604
18261SOL    HW255362   7.925   0.864   6.963  0.5579  0.8621 -1.0740
18262SOL     OW55363   7.212   7.868   8.469  0.1727 -0.3846  0.1293
18262SOL    HW155364   7.264   7.859   8.548  0.1059 -1.8409  0.0336
18262SOL    HW255365   7.123   7.884   8.501  0.2355 -0.4365  0.3320
18263SOL     OW55366   7.740   5.259   5.583 -0.5983 -0.0982  0.4093
18263SOL    HW155367   7.683   5.272   5.659 -0.0568 -1.6962  1.1347
18263SOL    HW255368   7.818   5.310   5.601 -0.4329 -0.5491  0.9844
18264SOL     OW55369   3.156   9.093   7.511 -0.0963 -0.6922 -0.1477
18264SOL    HW155370   3.083   9.137   7.467  0.2818 -0.6856 -0.7696
18264SOL    HW255371   3.234   9.122   7.464  0.4024 -0.0635  1.0073
18265SOL     OW55372   3.491   6.489   5.172  0.0541  0.0461  0.0961
18265SOL    HW155373   3.439   6.544   5.114 -0.5141 -0.9315 -0.3397
18265SOL    HW255374   3.500   6.541   5.252 -0.8456  0.5940 -0.1436
18266SOL     OW55375   7.539   7.077   7.021  0.1739  0.3332 -0.3140
18266SOL    HW155376   7.558   7.165   7.054 -0.2940  0.9476 -1.6058
18266SOL    HW255377   7.584   7.073   6.937 -0.1797 -0.5115 -0.4697
18267SOL     OW55378   0.228   9.480   1.768 -0.1387  0.0919 -0.9007
18267SOL    HW155379   0.258   9.567   1.795 -0.6754  0.1964 -0.6331
18267SOL    HW255380   0.143   9.494   1.728 -1.7262 -0.6331  1.9631
18268SOL     OW55381   3.798   2.568   1.905 -0.3820 -0.4649  0.4171
18268SOL    HW155382   3.704   2.570   1.885 -0.5235  1.7308  1.0989
18268SOL    HW255383   3.838   2.615   1.832  0.1122 -0.7390  0.5140
18269SOL     OW55384   0.396   6.831   9.167  0.2637 -0.1453  0.2554
18269SOL    HW155385   0.368   6.786   9.246  0.9519 -0.8798  0.0881
18269SOL    HW255386   0.385   6.924   9.187 -0.9925 -0.3735  0.6629
18270SOL     OW55387   8.810   0.217   4.557 -0.8222 -0.4895 -0.4853
18270SOL    HW155388   8.721   0.194   4.582 -1.0498  0.1550 -0.6670
18270SOL    HW255389   8.862   0.204   4.636 -0.9387 -1.5864 -0.5804
18271SOL     OW55390   9.739   2.621   3.650  0.0571 -0.3068 -0.3920
18271SOL    HW155391   9.685   2.685   3.696 -2.4299 -1.9646 -0.7945
18271SOL    HW255392   9.828   2.653   3.659 -0.8216  1.8083  1.6200
18272SOL     OW55393   5.316   6.839   4.343  0.2495  0.3468 -0.0268
18272SOL    HW155394   5.307   6.849   4.438  3.4278  0.0049  0.3906
18272SOL    HW255395   5.332   6.746   4.330  2.0289  0.7130 -0.6394
18273SOL     OW55396   5.456   7.512   5.901 -0.9673  0.4493 -0.3440
18273SOL    HW155397   5.399   7.539   5.829  0.4644 -0.4789 -1.9024
18273SOL    HW255398   5.399   7.460   5.958 -1.6860 -0.6415 -1.9715
18274SOL     OW55399   4.435   4.930   2.395  0.0570  0.3730  0.1634
18274SOL    HW155400   4.426   4.926   2.300 -0.1316 -0.8187  0.2109
18274SOL    HW255401   4.371   4.867   2.428  0.2746  0.6049  1.0692
18275SOL     OW55402   4.661   5.784   5.989  0.3611 -0.1154 -0.0396
18275SOL    HW155403   4.670   5.701   6.035 -0.7430 -0.4138 -0.3323
18275SOL    HW255404   4.629   5.760   5.902  1.3710  0.5217 -0.6080
18276SOL     OW55405   9.749   2.921   7.242  0.8328 -0.1293  0.1493
18276SOL    HW155406   9.655   2.906   7.236  1.0236 -1.0596 -0.9889
18276SOL    HW255407   9.779   2.863   7.312  0.5638  0.1753  0.5177
18277SOL     OW55408   8.915   6.552   5.311  0.2921  0.0719  0.1955
18277SOL    HW155409   8.926   6.463   5.344 -0.0094  0.0095  0.1252
18277SOL    HW255410   8.826   6.577   5.335  0.8186  0.8777  1.4490
18278SOL     OW55411   8.242   0.403   7.534 -0.0826 -0.2160  0.3104
18278SOL    HW155412   8.245   0.448   7.619  0.2482  2.3413 -0.9513
18278SOL    HW255413   8.151   0.378   7.523 -0.6149  1.5464  0.4383
18279SOL     OW55414   6.531   7.789   1.377  0.2491 -0.3933  0.1743
18279SOL    HW155415   6.554   7.745   1.459  1.0311  0.0187  0.1847
18279SOL    HW255416   6.611   7.788   1.326 -0.4309 -1.3236 -0.9187
18280SOL     OW55417   1.301   0.189   4.518 -0.8596  0.0913 -0.4280
18280SOL    HW155418   1.222   0.178   4.465 -0.5644 -1.1511 -0.6444
18280SOL    HW255419   1.276   0.252   4.586 -2.2480 -0.7772 -0.0932
18281SOL     OW55420   4.200   6.168   4.907 -0.1663 -0.0847 -0.3849
18281SOL    HW155421   4.167   6.230   4.971  1.9756  3.3186 -2.2696
18281SOL    HW255422   4.277   6.129   4.948 -2.0489 -2.5382  1.1831
18282SOL     OW55423   1.813   4.352   2.794  0.4248 -0.3309 -0.2196
18282SOL    HW155424   1.809   4.425   2.856 -0.7985 -0.2551 -0.3595
18282SOL    HW255425   1.858   4.282   2.842  1.4389  0.4335 -0.0164
18283SOL     OW55426   1.975   3.607   8.253 -0.4511 -0.1022  0.2382
18283SOL    HW155427   1.942   3.584   8.340  1.4963  0.4602  1.1804
18283SOL    HW255428   2.013   3.694   8.264  0.2494 -0.2196 -1.0538
18284SOL     OW55429   0.020   9.385   1.172  0.9525  0.4833 -0.1044
18284SOL    HW155430   0.017   9.478   1.151  0.9600 -0.1041 -3.0709
18284SOL    HW255431   0.113   9.363   1.172  0.9529  0.4488  0.6113
18285SOL     OW55432   0.593   5.474   7.890 -0.5270 -0.6242 -0.4897
18285SOL    HW155433   0.660   5.539   7.911 -2.0969  0.5049  1.4066
18285SOL    HW255434   0.524   5.523   7.845 -1.4886 -1.0228  0.4731
18286SOL     OW55435   5.619   1.387   9.027  0.4069  0.1059 -0.1742
18286SOL    HW155436   5.624   1.398   8.932  2.1594  0.3688 -0.0862
18286SOL    HW255437   5.591   1.297   9.039 -0.8214  0.3585 -0.9197
18287SOL     OW55438   7.501   3.092   0.792 -0.1068  0.4495 -0.1685
18287SOL    HW155439   7.528   3.168   0.843  0.7070 -0.0665  0.1823
18287SOL    HW255440   7.582   3.052   0.763 -0.5334 -0.1864 -0.5111
18288SOL     OW55441   1.763   4.225   4.003  0.1754 -0.4510  0.0787
18288SOL    HW155442   1.751   4.245   4.096 -0.3854 -0.2097 -0.0423
18288SOL    HW255443   1.690   4.268   3.960  0.4001 -0.6161 -0.4709
18289SOL     OW55444   2.649   5.627   0.036  0.0330  0.4889 -0.1770
18289SOL    HW155445   2.583   5.666   0.093  0.6128  2.2743 -0.6630
18289SOL    HW255446   2.732   5.645   0.080  0.4041  0.9607 -1.0448
18290SOL     OW55447   6.738   3.380   5.438 -0.3812  0.3961  0.4045
18290SOL    HW155448   6.693   3.353   5.518  2.1005 -1.7141  1.2607
18290SOL    HW255449   6.808   3.314   5.428  0.3521  1.5165 -2.6392
18291SOL     OW55450   6.238   3.895   2.673 -0.3250 -0.2974  0.0989
18291SOL    HW155451   6.146   3.890   2.648 -0.9951 -0.1723  2.3452
18291SOL    HW255452   6.268   3.804   2.674 -0.2933 -0.3122 -0.9793
18292SOL     OW55453   8.055   6.472   1.911 -0.1338 -0.3074 -0.8650
18292SOL    HW155454   8.070   6.435   1.823  0.5908 -2.3935  0.0639
18292SOL    HW255455   8.054   6.566   1.897  1.2430 -0.5225 -2.9552
18293SOL     OW55456   9.501   1.405   2.559 -0.2484 -0.1232  0.1777
18293SOL    HW155457   9.578   1.428   2.610 -0.8844  0.5075  0.8664
18293SOL    HW255458   9.462   1.488   2.534 -0.7191 -0.4331 -0.1462
18294SOL     OW55459   1.770   3.680   8.079  0.6534  0.0824  0.2326
18294SOL    HW155460   1.701   3.691   8.145  0.3297 -2.6732  0.4660
18294SOL    HW255461   1.851   3.676   8.129  0.5562 -0.6009  0.3398
18295SOL     OW55462   7.680   8.565   7.267 -0.3968  0.9181 -0.3959
18295SOL    HW155463   7.673   8.658   7.247 -0.8688  1.0342  0.2906
18295SOL    HW255464   7.735   8.560   7.345 -1.2014  0.6995  0.1674
18296SOL     OW55465   0.653   9.643   7.852  0.5018  0.6388  0.4144
18296SOL    HW155466   0.737   9.689   7.845  0.8772 -0.0684  0.0740
18296SOL    HW255467   0.665   9.585   7.928  0.4406  0.3170  0.1827
18297SOL     OW55468   7.333   8.370   1.861 -0.5960 -0.4083  0.4946
18297SOL    HW155469   7.368   8.352   1.774  0.1990 -0.8149  0.8901
18297SOL    HW255470   7.400   8.423   1.904 -1.0199 -0.1340  0.8338
18298SOL     OW55471   2.275   7.784   0.587 -0.3360 -0.2754  0.3829
18298SOL    HW155472   2.257   7.773   0.493  1.1714 -0.5250  0.1084
18298SOL    HW255473   2.350   7.843   0.591  1.2390 -2.2088  1.3083
18299SOL     OW55474   3.692   5.924   0.740 -0.5281  0.2699  0.0568
18299SOL    HW155475   3.656   5.842   0.707 -1.6015  0.5695  0.4526
18299SOL    HW255476   3.731   5.966   0.664 -0.7085 -0.2265 -0.3138
18300SOL     OW55477   7.631   6.435   8.980  0.3827 -0.4231 -0.2299
18300SOL    HW155478   7.700   6.456   9.044  0.8136  0.1137 -0.8579
18300SOL    HW255479   7.676   6.386   8.912 -0.1647 -1.3797  0.0781
18301SOL     OW55480   7.617   4.404   2.523 -0.3546 -0.5161  0.0990
18301SOL    HW155481   7.551   4.363   2.577 -0.3834  1.2998  1.5373
18301SOL    HW255482   7.693   4.413   2.580 -0.8156  2.6450  0.4013
18302SOL     OW55483   6.375   0.765   8.808  0.5183  0.0440  0.3605
18302SOL    HW155484   6.355   0.674   8.829  0.3597 -0.1583 -0.6093
18302SOL    HW255485   6.312   0.816   8.860  0.2592 -0.4266  0.5120
18303SOL     OW55486   2.666   3.837   3.980  0.3234  0.2886  0.3046
18303SOL    HW155487   2.759   3.832   3.958  0.9589  1.4985  2.3437
18303SOL    HW255488   2.645   3.930   3.972 -0.3856  0.1908  0.9286
18304SOL     OW55489   8.448   4.103   8.641  0.4508 -0.1630 -0.4981
18304SOL    HW155490   8.397   4.053   8.577 -0.8652  0.2581  0.2028
18304SOL    HW255491   8.402   4.091   8.724  2.3049 -0.9514  0.4800
18305SOL     OW55492   3.686   7.562   0.148  0.4316 -0.6509 -0.1163
18305SOL    HW155493   3.780   7.579   0.141  0.5065 -1.5927 -2.0767
18305SOL    HW255494   3.661   7.603   0.230  2.2498  1.0254 -0.3116
18306SOL     OW55495   3.563   5.216   6.167 -0.1747  0.1625 -0.0233
18306SOL    HW155496   3.553   5.172   6.252  1.9366  1.7743  1.1355
18306SOL    HW255497   3.503   5.290   6.172 -0.7676 -0.2848 -0.3605
18307SOL     OW55498   0.840   0.258   0.818  0.0629 -0.6793 -0.3891
18307SOL    HW155499   0.933   0.275   0.832 -0.3709  0.7441  1.0350
18307SOL    HW255500   0.827   0.271   0.724  0.7651  2.1823 -0.1748
18308SOL     OW55501   9.413   7.741   8.461  0.0517  0.1797  0.0186
18308SOL    HW155502   9.401   7.827   8.503  0.8442 -0.1401  0.9446
18308SOL    HW255503   9.476   7.696   8.517 -0.3580 -1.0164 -0.4533
18309SOL     OW55504   0.416   1.663   1.811  0.3174  0.0714 -0.1082
18309SOL    HW155505   0.388   1.658   1.902  2.0597 -0.7981  0.4168
18309SOL    HW255506   0.338   1.638   1.761 -0.2362 -0.9866  1.2122
18310SOL     OW55507   1.746   0.940   9.437 -0.1064 -0.0772  0.0868
18310SOL    HW155508   1.795   0.885   9.498  0.0307  0.0025  0.0475
18310SOL    HW255509   1.741   0.889   9.357 -0.1911 -0.1352  0.1284
18311SOL     OW55510   8.427   9.883   9.325 -0.2759  0.5470 -0.2365
18311SOL    HW155511   8.420   9.967   9.371  0.6292 -1.1385  3.3610
18311SOL    HW255512   8.363   9.826   9.370  1.4239 -1.5218 -0.3001
18312SOL     OW55513   5.772   8.870   6.716 -0.0606  0.1398  0.5693
18312SOL    HW155514   5.793   8.778   6.697 -1.5536 -0.3770  1.3055
18312SOL    HW255515   5.761   8.873   6.811 -0.1699  1.0463  0.5317
18313SOL     OW55516   9.287   3.009   5.775  0.4488 -0.3319  0.2410
18313SOL    HW155517   9.378   2.982   5.760  0.1597 -1.1174 -0.1558
18313SOL    HW255518   9.281   3.096   5.734  0.7130 -0.7859 -0.8038
18314SOL     OW55519   9.556   7.428   5.012  0.3846  0.6277  0.3554
18314SOL    HW155520   9.603   7.498   4.965 -0.2455  0.0057 -1.2746
18314SOL    HW255521   9.528   7.469   5.093  2.3595  1.4825  0.6782
18315SOL     OW55522   4.057   5.004   6.586 -0.0684 -0.5220  0.0456
18315SOL    HW155523   4.152   5.006   6.574 -0.2334 -0.0663 -1.3421
18315SOL    HW255524   4.022   5.056   6.515 -1.4179 -1.4307 -0.0064
18316SOL     OW55525   6.270   9.129   2.952 -0.2110  0.9220 -0.1527
18316SOL    HW155526   6.269   9.035   2.969 -1.9876  0.6790 -1.2688
18316SOL    HW255527   6.281   9.169   3.038 -2.2414 -0.2971  0.7662
18317SOL     OW55528   9.882   4.595   2.469 -0.1509  0.1173  0.5595
18317SOL    HW155529   9.876   4.614   2.563 -0.3777 -1.0623  0.7879
18317SOL    HW255530   9.793   4.605   2.437 -0.1667 -0.0116  0.5664
18318SOL     OW55531   0.137   4.526   6.110  0.6920 -0.1907 -0.5321
18318SOL    HW155532   0.047   4.551   6.086  0.6140 -1.4115 -1.6471
18318SOL    HW255533   0.191   4.600   6.082  0.2010 -0.1389 -1.3695
18319SOL     OW55534   1.216   4.183   9.450  0.2502 -0.1225 -0.1767
18319SOL    HW155535   1.244   4.265   9.491 -2.6339  0.2023  1.3559
18319SOL    HW255536   1.268   4.116   9.493 -1.1054  0.4437  2.5707
18320SOL     OW55537   4.012   8.600   9.875  0.3092 -0.3358 -0.2230
18320SOL    HW155538   4.045   8.514   9.903  0.5113  0.0101  0.6427
18320SOL    HW255539   3.964   8.633   9.951  0.6442  0.5195 -0.3730
18321SOL     OW55540   3.356   9.835   8.425 -0.2485 -0.3709 -0.6489
18321SOL    HW155541   3.404   9.757   8.456  2.2143  0.0898 -2.8956
18321SOL    HW255542   3.360   9.896   8.498  0.3303 -1.3244  0.1449
18322SOL     OW55543   1.219   8.826   6.215 -0.3462 -0.4871 -0.0090
18322SOL    HW155544   1.212   8.839   6.121 -2.8072 -0.5189  0.0896
18322SOL    HW255545   1.234   8.732   6.226  0.3735 -0.4169 -0.3619
18323SOL     OW55546   1.890   7.347   0.820  0.8528  0.3474 -0.0612
18323SOL    HW155547   1.823   7.288   0.785  0.5787  0.4865  0.2244
18323SOL    HW255548   1.906   7.315   0.909  0.1074  1.1911  0.3925
18324SOL     OW55549   2.172   5.271   2.435  0.0414 -0.0796 -0.1790
18324SOL    HW155550   2.076   5.266   2.428 -0.1448 -0.6917  2.1031
18324SOL    HW255551   2.190   5.365   2.429 -0.4469 -0.0686 -2.6317
18325SOL     OW55552   3.385   4.102   1.164 -0.4777  0.1959  0.0836
18325SOL    HW155553   3.330   4.101   1.242  0.2309  0.2051  0.6015
18325SOL    HW255554   3.336   4.153   1.100 -1.2883 -0.2250  0.3565
18326SOL     OW55555   7.195   5.520   8.286 -0.7883  0.1211 -0.4283
18326SOL    HW155556   7.136   5.565   8.226 -1.8185 -1.1158 -0.4012
18326SOL    HW255557   7.137   5.473   8.346  0.2042 -1.4274 -0.6232
18327SOL     OW55558   9.230   3.670   4.113 -0.2093  0.1400 -0.0252
18327SOL    HW155559   9.322   3.647   4.099  0.0852  0.8979  0.6293
18327SOL    HW255560   9.230   3.723   4.192 -0.6289  3.5963 -2.1308
18328SOL     OW55561   3.049   5.545   6.966 -0.0190 -0.1934  0.1966
18328SOL    HW155562   3.133   5.505   6.941 -0.2253  0.2230 -1.2741
18328SOL    HW255563   3.042   5.622   6.910 -1.5738 -0.4299  0.0241
18329SOL     OW55564   2.134   6.008   6.869  0.2410  0.3297 -0.2937
18329SOL    HW155565   2.185   5.952   6.927 -0.9191  0.5248  0.9693
18329SOL    HW255566   2.049   5.964   6.860  0.2285  0.5573 -1.4452
18330SOL     OW55567   5.023   2.220   8.813  0.4888 -0.0939  0.0598
18330SOL    HW155568   5.067   2.148   8.768 -0.8966 -0.1949 -1.2131
18330SOL    HW255569   4.937   2.184   8.837  0.9267  0.1738  2.2400
18331SOL     OW55570   4.642   4.142   7.203  0.3748  0.4650 -0.9341
18331SOL    HW155571   4.690   4.062   7.183  0.2356  0.3269 -0.7194
18331SOL    HW255572   4.709   4.209   7.214  0.4536  0.6302 -2.1934
18332SOL     OW55573   7.900   3.253   8.905 -0.2945  0.7685 -0.6970
18332SOL    HW155574   7.875   3.343   8.926  1.1143  1.0460 -0.1007
18332SOL    HW255575   7.926   3.256   8.813  0.2854  1.1021 -0.5264
18333SOL     OW55576   7.299   1.674   0.767 -0.7524 -0.1725  0.4783
18333SOL    HW155577   7.336   1.719   0.690 -1.0932 -1.9625 -0.8103
18333SOL    HW255578   7.234   1.735   0.802  0.3254  1.2218  0.1516
18334SOL     OW55579   1.302   4.762   1.575 -0.4076 -0.0004 -0.0811
18334SOL    HW155580   1.289   4.672   1.546 -1.3414 -0.2332  0.9687
18334SOL    HW255581   1.302   4.814   1.495 -3.2772 -0.5504 -0.5498
18335SOL     OW55582   5.204   2.840   3.875  0.0098 -0.4895 -0.7198
18335SOL    HW155583   5.215   2.806   3.786 -0.2494 -0.9693 -0.5750
18335SOL    HW255584   5.261   2.784   3.929 -0.2531 -0.5524 -0.5080
18336SOL     OW55585   5.061   1.239   1.358  0.2974 -0.3341 -0.2243
18336SOL    HW155586   5.033   1.329   1.378  0.5200 -0.3273  0.0625
18336SOL    HW255587   4.981   1.187   1.364  0.6876 -0.7499  3.1280
18337SOL     OW55588   1.139   5.126   1.070  0.1168  0.3198  0.0599
18337SOL    HW155589   1.194   5.111   1.147  0.1590 -0.5847 -0.1324
18337SOL    HW255590   1.059   5.076   1.088  1.3261 -2.5228 -1.7871
18338SOL     OW55591   0.547   9.520   6.033  0.1162  0.5195 -0.1801
18338SOL    HW155592   0.605   9.576   6.083  0.7138  1.2232 -1.6121
18338SOL    HW255593   0.540   9.562   5.948 -0.4126 -0.9239 -0.8883
18339SOL     OW55594   3.126   2.612   3.179 -0.0564  0.0001  0.3749
18339SOL    HW155595   3.146   2.534   3.231  0.0971  0.6341  1.2871
18339SOL    HW255596   3.209   2.661   3.177 -0.0313 -0.0535 -0.5562
18340SOL     OW55597   8.759   2.017   6.769 -0.2053 -0.1440  0.1996
18340SOL    HW155598   8.700   2.021   6.844  0.1362  2.9269  0.4070
18340SOL    HW255599   8.846   2.031   6.805  0.0941  0.2278 -0.6323
18341SOL     OW55600   8.681   2.620   1.943 -0.0702  0.0350 -0.1799
18341SOL    HW155601   8.771   2.616   1.911 -0.2917 -0.8917 -0.7093
18341SOL    HW255602   8.685   2.683   2.015  0.9459  0.2119 -0.3661
18342SOL     OW55603   6.481   8.501   7.591 -0.0965 -0.3928  1.2185
18342SOL    HW155604   6.571   8.525   7.613 -0.6263  0.1626  2.9259
18342SOL    HW255605   6.444   8.468   7.673 -1.4304 -0.7000  0.5284
18343SOL     OW55606   3.322   0.283   7.073  0.0844  0.5354  0.1367
18343SOL    HW155607   3.282   0.346   7.133 -0.7816 -0.7413  0.9711
18343SOL    HW255608   3.285   0.304   6.987 -0.3109  1.0575  0.4338
18344SOL     OW55609   1.026   4.945   0.607  0.7693 -0.2974  0.0548
18344SOL    HW155610   1.107   4.918   0.649  0.5347 -3.4864 -1.2557
18344SOL    HW255611   1.044   4.939   0.513 -0.7513 -0.4243 -0.2584
18345SOL     OW55612   3.245   4.042   2.820 -0.1093  0.1384  0.1025
18345SOL    HW155613   3.195   4.064   2.899 -1.3729  0.8757 -0.8684
18345SOL    HW255614   3.286   4.125   2.795  0.8560 -0.2554  0.3620
18346SOL     OW55615   1.885   8.926   9.021  0.1189 -0.0161  0.1460
18346SOL    HW155616   1.875   8.991   9.091  1.1257  0.9308 -0.5595
18346SOL    HW255617   1.890   8.978   8.941  1.5817 -0.9138 -0.3782
18347SOL     OW55618   1.166   7.780   8.037 -0.0308 -0.4914 -0.0912
18347SOL    HW155619   1.190   7.688   8.032 -0.3625 -0.5231 -1.5698
18347SOL    HW255620   1.204   7.819   7.958  1.4767  1.0010  1.2660
18348SOL     OW55621   1.152   8.602   2.048  0.2726  0.1218  0.5181
18348SOL    HW155622   1.175   8.695   2.047  0.5714  0.1056 -2.5542
18348SOL    HW255623   1.230   8.558   2.013  0.0381 -1.2865  1.6883
18349SOL     OW55624   0.942   9.285   8.369 -0.5577 -0.4294 -0.0405
18349SOL    HW155625   0.932   9.235   8.288 -1.4558 -0.2199 -0.0713
18349SOL    HW255626   0.899   9.231   8.435  0.3935 -0.7183  0.3520
18350SOL     OW55627   7.972   7.815   4.604 -0.4350 -0.4918  0.1804
18350SOL    HW155628   7.896   7.815   4.661 -1.5985 -1.2391 -1.2974
18350SOL    HW255629   7.984   7.907   4.580  1.0347  0.0719  2.7656
18351SOL     OW55630   7.974   0.344   1.041  0.2030 -0.2169 -0.0941
18351SOL    HW155631   8.046   0.296   1.000  0.1083  0.0558 -0.5859
18351SOL    HW255632   7.929   0.387   0.969  0.4219  0.8072  0.3520
18352SOL     OW55633   6.016   6.849   1.054  0.5202 -0.3707 -0.5116
18352SOL    HW155634   6.053   6.893   1.130 -0.3597  0.0702 -0.3305
18352SOL    HW255635   6.092   6.807   1.011  1.0195 -0.5999  0.5733
18353SOL     OW55636   5.831   3.091   7.267  0.0157  0.0547 -0.4172
18353SOL    HW155637   5.798   3.180   7.277 -0.2183 -0.0969  0.1684
18353SOL    HW255638   5.893   3.080   7.339 -0.0368 -0.2877 -0.4235
18354SOL     OW55639   4.452   5.213   8.906  0.0078 -0.4358 -0.0969
18354SOL    HW155640   4.427   5.293   8.859 -1.1559 -0.9854 -0.4631
18354SOL    HW255641   4.437   5.233   8.998  0.4250  0.0029 -0.1199
18355SOL     OW55642   6.137   8.059   6.849  0.1827 -0.1289 -0.0926
18355SOL    HW155643   6.049   8.057   6.887 -0.3788 -1.9106 -1.3683
18355SOL    HW255644   6.152   8.151   6.827 -0.3768  0.5956  2.2311
18356SOL     OW55645   8.972   3.643   4.782 -0.0221  0.1073  0.2268
18356SOL    HW155646   8.997   3.642   4.874 -0.0996 -1.6875  0.2729
18356SOL    HW255647   8.892   3.696   4.780 -0.3764 -0.3466  1.3096
18357SOL     OW55648   1.898   2.279   3.883 -0.0921 -0.1426 -0.5792
18357SOL    HW155649   1.939   2.193   3.892 -0.0689 -0.4390 -2.9534
18357SOL    HW255650   1.954   2.326   3.821 -1.3971  0.7304 -1.1336
18358SOL     OW55651   9.676   4.298   2.984  0.2369 -0.1972  0.3449
18358SOL    HW155652   9.670   4.216   3.032 -0.1822  0.4059  1.3344
18358SOL    HW255653   9.710   4.272   2.898  2.1780 -1.1463  1.3360
18359SOL     OW55654   3.692   7.670   9.224 -0.5670 -0.2569  0.2646
18359SOL    HW155655   3.641   7.666   9.305 -0.5700 -0.8511  0.2390
18359SOL    HW255656   3.665   7.592   9.176 -1.2473  0.5631 -0.7203
18360SOL     OW55657   9.146   4.282   4.885  0.3410 -0.6482  0.0864
18360SOL    HW155658   9.204   4.358   4.887 -1.6728  1.0100 -0.4507
18360SOL    HW255659   9.185   4.224   4.820  1.2180  0.5624 -0.5081
18361SOL     OW55660   8.149   1.102   8.325 -0.1250 -0.1381 -0.0538
18361SOL    HW155661   8.197   1.026   8.293  0.6527 -0.8597  2.5536
18361SOL    HW255662   8.057   1.075   8.325 -0.0452 -0.4241 -0.7706
18362SOL     OW55663   0.203   0.262   0.159 -0.1781 -0.1779  0.0046
18362SOL    HW155664   0.177   0.283   0.248  0.1517  1.9220 -0.3293
18362SOL    HW255665   0.196   0.167   0.153 -1.5946 -0.2387  1.8167
18363SOL     OW55666   1.152   8.079   4.906 -0.4541 -0.3277  0.0876
18363SOL    HW155667   1.228   8.073   4.848 -0.2368 -2.1249  0.5040
18363SOL    HW255668   1.108   8.160   4.880 -0.3168 -1.0077 -2.5039
18364SOL     OW55669   9.127   8.641   7.382 -0.2684  0.0704  0.1465
18364SOL    HW155670   9.221   8.660   7.379 -0.3706  0.5910  0.1706
18364SOL    HW255671   9.107   8.632   7.475  0.0815 -1.7332  0.0772
18365SOL     OW55672   1.526   6.418   5.038 -0.0703 -0.2852 -0.0820
18365SOL    HW155673   1.601   6.447   4.986 -1.2043 -1.6654 -2.6925
18365SOL    HW255674   1.509   6.329   5.008 -1.8217 -0.5572  1.5409
18366SOL     OW55675   2.960   7.272   5.630  0.2943  0.1816 -0.7172
18366SOL    HW155676   3.003   7.334   5.689 -0.4589 -0.9389  1.1015
18366SOL    HW255677   3.010   7.191   5.640 -0.2883 -0.2274 -1.0428
18367SOL     OW55678   5.074   0.075   6.951  0.0199 -0.3940 -0.5314
18367SOL    HW155679   5.157   0.075   6.998 -0.2712 -1.3641  0.0138
18367SOL    HW255680   5.086   0.138   6.880  0.8463  0.2725  0.1855
18368SOL     OW55681   6.021   1.338   7.046  0.2474  0.2922  0.2674
18368SOL    HW155682   6.051   1.278   6.977 -0.7879  0.2117 -0.1252
18368SOL    HW255683   6.080   1.320   7.120 -0.4677 -1.7252  0.4165
18369SOL     OW55684   6.944   0.615   0.307  0.0379 -0.8580 -0.6297
18369SOL    HW155685   6.973   0.588   0.220  2.4957 -2.1390  0.4736
18369SOL    HW255686   7.022   0.607   0.362 -1.2779  0.4369  1.6098
18370SOL     OW55687   5.677   1.503   5.089 -0.3052  0.8229 -0.2023
18370SOL    HW155688   5.771   1.483   5.079 -0.2626  0.7551  0.3287
18370SOL    HW255689   5.633   1.436   5.038 -0.0727  0.7068 -0.2529
18371SOL     OW55690   0.780   4.317   6.336  0.2835  0.3657  0.1530
18371SOL    HW155691   0.756   4.315   6.428  1.6572  0.1182  0.5193
18371SOL    HW255692   0.701   4.285   6.290  0.0199 -0.7622  1.3336
18372SOL     OW55693   6.930   0.704   5.879  0.4012  0.4935 -0.0081
18372SOL    HW155694   6.837   0.721   5.890  0.2351  0.4709 -1.2352
18372SOL    HW255695   6.961   0.777   5.824  0.5453 -0.8759 -1.8255
18373SOL     OW55696   4.127   1.203   1.046  0.0041 -0.0741  0.5856
18373SOL    HW155697   4.180   1.124   1.038 -0.1736 -0.1774  0.4212
18373SOL    HW255698   4.161   1.247   1.124 -0.3177 -0.6306  1.0476
18374SOL     OW55699   6.936   6.928   7.438 -0.2738  0.1204 -0.1304
18374SOL    HW155700   6.840   6.925   7.440 -0.3022  0.9707  1.6563
18374SOL    HW255701   6.963   6.849   7.484 -0.1365  0.3142  0.1231
18375SOL     OW55702   9.743   1.755   4.553 -0.0384  0.0742 -0.6727
18375SOL    HW155703   9.723   1.847   4.533 -0.3467 -0.3430 -2.4904
18375SOL    HW255704   9.808   1.730   4.487  0.0950 -0.9957 -0.1504
18376SOL     OW55705   4.508   5.299   0.172 -0.0871 -0.3626  0.3922
18376SOL    HW155706   4.519   5.211   0.135  0.9284  0.1653 -0.6251
18376SOL    HW255707   4.418   5.300   0.204  0.1956 -2.1350  1.4120
18377SOL     OW55708   4.329   8.916   8.059 -0.0146  0.7632 -0.0817
18377SOL    HW155709   4.294   8.841   8.010  0.2293  1.0024 -0.6278
18377SOL    HW255710   4.275   8.920   8.138 -0.6205  0.5674 -0.4795
18378SOL     OW55711   0.369   1.578   4.311 -0.4788  0.3689  0.0549
18378SOL    HW155712   0.436   1.511   4.297  0.3189  1.3683 -1.1778
18378SOL    HW255713   0.417   1.651   4.352 -1.2982  0.2713  1.2293
18379SOL     OW55714   8.683   5.326   8.749  0.2341  0.6075  0.1513
18379SOL    HW155715   8.651   5.291   8.666 -1.1120  0.1386  0.8382
18379SOL    HW255716   8.666   5.256   8.812 -0.2121  1.5579  1.1073
18380SOL     OW55717   6.923   8.798   3.310 -0.3779 -0.0848 -0.1525
18380SOL    HW155718   6.919   8.870   3.247  0.6244  0.2095  0.1016
18380SOL    HW255719   6.905   8.720   3.258 -2.4765  0.4218 -0.2491
18381SOL     OW55720   6.254   5.706   8.380 -0.0284  0.1037  0.3008
18381SOL    HW155721   6.223   5.666   8.299 -0.6787  1.0337  0.0766
18381SOL    HW255722   6.191   5.676   8.447 -2.2591  2.8947 -0.3431
18382SOL     OW55723   4.770   2.551   9.215 -0.3671  0.7546 -0.0837
18382SOL    HW155724   4.768   2.461   9.183  0.1673  1.1793 -1.3856
18382SOL    HW255725   4.859   2.580   9.198 -0.0815  1.0723  1.7235
18383SOL     OW55726   1.919   4.754   5.742  0.0790  0.5001 -0.5475
18383SOL    HW155727   1.937   4.793   5.656  1.6739 -0.6121 -0.7398
18383SOL    HW255728   1.882   4.668   5.722  0.6334  0.1626 -0.1145
18384SOL     OW55729   7.816   7.637   5.699 -0.5254 -0.6835 -0.3825
18384SOL    HW155730   7.798   7.544   5.714 -1.1384 -0.6475 -0.8342
18384SOL    HW255731   7.905   7.639   5.665 -0.3811 -1.0746 -0.0310
18385SOL     OW55732   2.200   3.348   8.340  0.2287 -0.5922 -0.4459
18385SOL    HW155733   2.182   3.339   8.434 -0.0064  0.4861 -0.3713
18385SOL    HW255734   2.114   3.361   8.300  0.4226  0.1899 -0.6432
18386SOL     OW55735   7.745   9.202   2.221  0.0278  0.4944  0.2451
18386SOL    HW155736   7.769   9.261   2.293 -2.3369  1.3548  0.4072
18386SOL    HW255737   7.770   9.250   2.142  0.6342  0.5085  0.4436
18387SOL     OW55738   9.453   8.404   6.419  1.2097  0.5158  0.1896
18387SOL    HW155739   9.387   8.400   6.487 -0.1030 -1.1944 -1.0873
18387SOL    HW255740   9.534   8.425   6.465  1.0570 -3.6026  2.8477
18388SOL     OW55741   1.265   0.175   2.399  0.1680 -0.0938  0.1286
18388SOL    HW155742   1.188   0.145   2.448 -0.0188 -1.4737 -0.9393
18388SOL    HW255743   1.337   0.124   2.435  0.1879 -0.4379 -0.3932
18389SOL     OW55744   5.219   6.867   9.656 -0.2966 -0.6031 -0.6520
18389SOL    HW155745   5.285   6.826   9.600  0.0240 -1.3102  0.2204
18389SOL    HW255746   5.179   6.794   9.703  0.7182  0.0938  1.4087
18390SOL     OW55747   6.848   6.245   1.035  0.3052  0.2722  0.2231
18390SOL    HW155748   6.871   6.287   1.118  0.6582 -0.8654  0.7283
18390SOL    HW255749   6.928   6.248   0.984  0.4885 -0.2551  0.4724
18391SOL     OW55750   0.211   3.487   9.571  0.0744 -0.8867 -0.1904
18391SOL    HW155751   0.142   3.534   9.618 -0.2159 -1.0463 -0.4574
18391SOL    HW255752   0.237   3.545   9.501 -0.1220 -1.0224 -0.3784
18392SOL     OW55753   8.659   8.916   8.338  0.0421  0.5187  0.3347
18392SOL    HW155754   8.720   8.967   8.284 -0.1028  1.4281  1.0002
18392SOL    HW255755   8.575   8.924   8.294  0.4649 -1.1123 -0.8317
18393SOL     OW55756   9.681   8.535   8.221 -0.0825 -0.4261  0.2365
18393SOL    HW155757   9.695   8.599   8.290 -0.3391 -0.4834  0.3420
18393SOL    HW255758   9.668   8.452   8.267  0.7671 -0.6524  0.0820
18394SOL     OW55759   4.340   1.243   1.522  0.2957  0.2211  0.4006
18394SOL    HW155760   4.388   1.172   1.478 -1.2387 -0.7767  0.2774
18394SOL    HW255761   4.269   1.199   1.569 -0.2841  1.6248  0.8923
18395SOL     OW55762   0.232   9.368   5.473 -0.5665  0.0577  0.1102
18395SOL    HW155763   0.264   9.393   5.560 -0.8095 -1.3972  0.6532
18395SOL    HW255764   0.141   9.343   5.487 -0.9228  0.7783 -0.7745
18396SOL     OW55765   1.746   9.378   3.263  0.0519 -0.2359 -0.3084
18396SOL    HW155766   1.768   9.396   3.171 -1.0317 -0.4422 -0.6179
18396SOL    HW255767   1.728   9.284   3.266  0.8032 -0.3721  0.2782
18397SOL     OW55768   1.832   1.827   4.835 -0.2020  0.1278  0.1393
18397SOL    HW155769   1.764   1.893   4.822 -3.0098 -2.8043 -1.5401
18397SOL    HW255770   1.831   1.775   4.755  2.1290 -1.7314  1.1889
18398SOL     OW55771   3.486   3.680   8.781  0.2357  1.2131 -0.5352
18398SOL    HW155772   3.434   3.705   8.857 -0.0482  0.0297 -0.3302
18398SOL    HW255773   3.548   3.615   8.813 -0.3993  0.1115 -1.4415
18399SOL     OW55774   1.079   0.552   9.895  0.1155  0.1919  0.0740
18399SOL    HW155775   1.161   0.511   9.867 -0.2379 -0.9583  0.6433
18399SOL    HW255776   1.098   0.646   9.895  1.4249 -0.0505  0.1682
18400SOL     OW55777   2.511   6.133   2.152 -0.4061  0.1073 -0.0787
18400SOL    HW155778   2.551   6.126   2.239 -1.3167 -2.3203  0.2062
18400SOL    HW255779   2.585   6.133   2.092  0.1637 -1.9779  0.5484
18401SOL     OW55780   9.779   8.678   7.828  0.0074  0.5065 -0.7907
18401SOL    HW155781   9.807   8.747   7.769 -0.1869 -0.0775 -1.5754
18401SOL    HW255782   9.836   8.688   7.905 -0.5519  2.0307 -0.5323
18402SOL     OW55783   1.392   6.573   9.898  0.9002  0.2318 -0.3585
18402SOL    HW155784   1.384   6.478   9.887  2.8070 -0.2094  1.3958
18402SOL    HW255785   1.303   6.606   9.889  0.0624 -1.8315 -0.2098
18403SOL     OW55786   1.813   6.254   3.046 -0.3147 -0.2891  0.1866
18403SOL    HW155787   1.900   6.279   3.015 -0.9733  0.0629 -1.4693
18403SOL    HW255788   1.768   6.338   3.061 -0.8401 -0.4459 -0.4339
18404SOL     OW55789   6.632   3.677   6.000  0.2477  1.1085 -0.3619
18404SOL    HW155790   6.572   3.617   5.955  2.7955 -1.9283 -0.1120
18404SOL    HW255791   6.577   3.724   6.062 -1.9421 -1.4177 -0.1827
18405SOL     OW55792   8.022   1.632   8.575 -0.0248 -0.4092  0.3780
18405SOL    HW155793   7.989   1.543   8.592 -0.8671 -0.5384 -1.6578
18405SOL    HW255794   8.116   1.620   8.563 -0.2804 -1.2681 -1.0548
18406SOL     OW55795   4.641   5.675   3.974  0.3284 -0.1500  0.1846
18406SOL    HW155796   4.611   5.752   4.021 -0.4502  0.7601 -1.7033
18406SOL    HW255797   4.561   5.626   3.955  0.7100 -0.8976  0.4717
18407SOL     OW55798   4.427   3.560   5.183 -0.7858  0.3112  0.1752
18407SOL    HW155799   4.370   3.484   5.166 -1.2899  0.5488  0.7633
18407SOL    HW255800   4.367   3.629   5.211 -0.2086  0.5601  0.8232
18408SOL     OW55801   0.292   1.176   1.944 -0.2262  0.4185 -0.0500
18408SOL    HW155802   0.382   1.158   1.916 -0.7582 -1.0423 -0.9972
18408SOL    HW255803   0.265   1.096   1.990 -1.7242 -0.1294 -1.7231
18409SOL     OW55804   1.461   3.572   7.654  0.7055  0.0357 -0.1288
18409SOL    HW155805   1.517   3.510   7.700  0.8090 -0.6208 -1.1184
18409SOL    HW255806   1.486   3.658   7.689 -0.3155 -0.5294  2.1880
18410SOL     OW55807   0.374   0.573   1.453  0.2843  0.3164 -0.0880
18410SOL    HW155808   0.312   0.567   1.525  1.0951 -1.9131  0.4977
18410SOL    HW255809   0.460   0.578   1.495  0.8188 -1.7825 -0.8449
18411SOL     OW55810   0.894   5.583   7.871  0.4057 -0.5154 -0.3361
18411SOL    HW155811   0.869   5.662   7.919 -0.2999 -1.0823  0.2760
18411SOL    HW255812   0.841   5.586   7.791  1.0953  0.1030 -0.7798
18412SOL     OW55813   4.543   6.096   0.239  0.3411 -0.1063 -0.4910
18412SOL    HW155814   4.626   6.143   0.236  0.4342 -0.2674 -0.4487
18412SOL    HW255815   4.505   6.110   0.152  0.7778 -0.6856 -0.7821
18413SOL     OW55816   3.102   9.611   8.959 -0.0490 -0.1982 -0.3762
18413SOL    HW155817   3.109   9.602   9.054 -2.4883 -0.2003 -0.1471
18413SOL    HW255818   3.190   9.637   8.932  0.3657  1.2677  2.0510
18414SOL     OW55819   6.077   1.131   7.877 -0.3130 -0.2783  0.3312
18414SOL    HW155820   6.157   1.140   7.825  0.6751 -0.7773  1.6928
18414SOL    HW255821   6.006   1.155   7.817  0.8827  0.6181 -0.7829
18415SOL     OW55822   8.768   0.249   3.033  0.4446  0.2247  0.5888
18415SOL    HW155823   8.735   0.286   2.950  0.6216 -0.5691  0.1530
18415SOL    HW255824   8.779   0.325   3.090 -1.0551  0.6423  0.3694
18416SOL     OW55825   0.488   2.991   0.001 -0.0472 -0.3003 -0.0414
18416SOL    HW155826   0.427   2.922  -0.026  0.5596 -0.5541 -0.7948
18416SOL    HW255827   0.479   2.995   0.096 -1.6837  0.0868 -0.1927
18417SOL     OW55828   8.207   6.400   1.045 -0.4516 -1.0924 -0.6454
18417SOL    HW155829   8.127   6.351   1.064 -1.7388 -0.0141 -2.8191
18417SOL    HW255830   8.252   6.348   0.979 -0.0341 -1.0378 -0.4062
18418SOL     OW55831   8.635   6.630   7.290 -0.2658  0.4962 -0.3696
18418SOL    HW155832   8.551   6.669   7.266  0.6419  0.6186 -3.9082
18418SOL    HW255833   8.623   6.537   7.273 -0.1081  0.2871  0.6150
18419SOL     OW55834   0.349   8.650   1.941  0.7666 -0.0015  0.6405
18419SOL    HW155835   0.368   8.559   1.917  1.6490  0.8016 -2.0335
18419SOL    HW255836   0.255   8.651   1.959  0.5385 -1.2432 -0.3503
18420SOL     OW55837   2.331   0.489   5.264 -0.3209 -0.3282 -0.4056
18420SOL    HW155838   2.365   0.400   5.272  0.0302 -0.3366 -1.8067
18420SOL    HW255839   2.363   0.520   5.179 -1.1482  0.8337 -0.3203
18421SOL     OW55840   6.631   0.446   7.432 -0.1318  0.6154 -0.4463
18421SOL    HW155841   6.608   0.539   7.434  0.8711  0.8629  0.6953
18421SOL    HW255842   6.724   0.445   7.410  0.0846 -0.0517  0.4363
18422SOL     OW55843   8.513   9.147   9.888 -0.0046  0.3420  0.3566
18422SOL    HW155844   8.480   9.063   9.920  0.8827 -0.8050 -1.5365
18422SOL    HW255845   8.451   9.173   9.821  0.6978  0.2240 -0.3602
18423SOL     OW55846   5.205   8.960   2.453  0.2434  0.2831 -0.2468
18423SOL    HW155847   5.231   8.954   2.545 -1.4917 -1.6108  0.1981
18423SOL    HW255848   5.214   8.871   2.420 -0.7348  0.6040 -1.4578
18424SOL     OW55849   3.929   7.673   0.409 -0.2888  0.3555 -0.1424
18424SOL    HW155850   3.898   7.685   0.499  0.7814  0.6492  0.1989
18424SOL    HW255851   3.962   7.584   0.407 -0.9592  0.1115 -0.4480
18425SOL     OW55852   8.329   0.404   6.811 -0.3464  0.0279 -0.2588
18425SOL    HW155853   8.329   0.410   6.716  1.1134 -0.9222 -0.3446
18425SOL    HW255854   8.284   0.483   6.840 -1.2238  0.0979 -1.7364
18426SOL     OW55855   6.142   2.110   4.896  0.3299 -0.1513 -0.1928
18426SOL    HW155856   6.108   2.052   4.828 -1.3809  0.3692  0.1547
18426SOL    HW255857   6.146   2.196   4.853  0.7110 -0.1039 -0.0644
18427SOL     OW55858   1.251   3.256   0.136  0.0477  0.1117 -0.0557
18427SOL    HW155859   1.245   3.193   0.209 -0.6346  0.1989 -0.0321
18427SOL    HW255860   1.274   3.339   0.178  0.0404  0.0788  0.0139
18428SOL     OW55861   4.738   4.079   0.742 -0.3626  0.2812  0.5741
18428SOL    HW155862   4.775   4.084   0.653 -1.5515 -0.9174 -0.0221
18428SOL    HW255863   4.792   4.014   0.787 -1.2653 -0.9601 -0.0801
18429SOL     OW55864   9.925   4.377   5.035 -0.2973  0.9654 -0.1947
18429SOL    HW155865   9.956   4.319   4.964  1.2960  0.8299  0.5605
18429SOL    HW255866   9.847   4.419   4.999 -1.1530 -1.1845 -0.9993
18430SOL     OW55867   9.648   1.279   3.595 -0.3181  0.1266  0.4249
18430SOL    HW155868   9.729   1.254   3.549 -1.3493 -1.4265 -0.6468
18430SOL    HW255869   9.676   1.291   3.686  1.3067  0.6986 -0.1041
18431SOL     OW55870   7.809   3.866   5.123 -0.3509  0.1968 -0.0532
18431SOL    HW155871   7.844   3.881   5.035 -0.1011 -0.4155 -0.0685
18431SOL    HW255872   7.725   3.911   5.123  0.1794  1.2247 -0.2026
18432SOL     OW55873   5.572   0.102   2.325  0.0414  0.4512  0.1452
18432SOL    HW155874   5.510   0.052   2.272 -1.6938  2.1885  0.4404
18432SOL    HW255875   5.518   0.160   2.378  1.9043  3.6706 -1.2001
18433SOL     OW55876   8.930   3.671   8.291  0.1509 -0.2165 -0.4014
18433SOL    HW155877   8.894   3.593   8.248 -0.6042 -0.4488  0.6039
18433SOL    HW255878   9.016   3.643   8.322 -0.5467 -1.0210  0.8978
18434SOL     OW55879   3.372   0.475   2.301  0.1366 -0.2390  0.1278
18434SOL    HW155880   3.311   0.548   2.287  0.5804 -0.0796 -1.0569
18434SOL    HW255881   3.434   0.481   2.228  1.8000 -0.1903  1.4808
18435SOL     OW55882   2.760   4.567   4.184  0.4182  0.4613  0.3739
18435SOL    HW155883   2.843   4.589   4.225  0.9061 -0.0128 -0.3227
18435SOL    HW255884   2.744   4.475   4.207  1.1244 -0.0767 -1.1321
18436SOL     OW55885   8.118   0.502   4.462 -0.2007  0.9614  0.2033
18436SOL    HW155886   8.081   0.526   4.547 -0.7372 -2.1653  0.9747
18436SOL    HW255887   8.042   0.489   4.405  0.0001  0.3376  0.0677
18437SOL     OW55888   1.274   0.794   4.130 -0.3909  0.3618  0.0889
18437SOL    HW155889   1.320   0.877   4.115  0.5548  0.3586  2.5726
18437SOL    HW255890   1.234   0.803   4.216 -0.1863 -1.7910  0.4623
18438SOL     OW55891   4.701   7.833   4.481  0.2642 -0.1305  0.4875
18438SOL    HW155892   4.720   7.856   4.572 -0.4364 -1.4769  0.9953
18438SOL    HW255893   4.732   7.743   4.473 -0.7106 -0.4027 -0.2918
18439SOL     OW55894   3.620   7.833   5.897 -0.4373 -0.2827 -0.6117
18439SOL    HW155895   3.544   7.775   5.897 -0.9360  0.3226  1.0586
18439SOL    HW255896   3.627   7.865   5.987  0.1172  1.8498 -1.3437
18440SOL     OW55897   1.293   3.470   8.347 -0.1005  0.1756  0.2267
18440SOL    HW155898   1.251   3.521   8.416  0.3670 -0.3128  0.8895
18440SOL    HW255899   1.319   3.534   8.281  1.7628  1.0272  1.6948
18441SOL     OW55900   1.418   4.808   9.847 -0.3627 -0.0085  0.3000
18441SOL    HW155901   1.485   4.829   9.781 -1.5792  0.1773 -0.9286
18441SOL    HW255902   1.344   4.776   9.796 -1.3470  0.1405  1.5980
18442SOL     OW55903   9.621   1.379   6.303  0.4213  0.0399 -0.0091
18442SOL    HW155904   9.687   1.393   6.235  0.0427  0.1543 -0.3511
18442SOL    HW255905   9.538   1.379   6.257  0.1026  0.8151  0.5369
18443SOL     OW55906   2.618   4.312   8.202  0.0496  0.6911  0.2435
18443SOL    HW155907   2.544   4.369   8.182 -0.7233 -0.1674  0.6059
18443SOL    HW255908   2.680   4.370   8.247 -0.3887  1.4186 -0.0598
18444SOL     OW55909   6.298   3.358   8.405 -0.1136  0.1820  0.0529
18444SOL    HW155910   6.357   3.418   8.359 -0.4129  0.2918 -0.1945
18444SOL    HW255911   6.348   3.327   8.480 -0.1980  1.2719  0.5754
18445SOL     OW55912   0.785   7.737   7.735 -0.4140 -0.7311  0.1280
18445SOL    HW155913   0.877   7.717   7.752 -0.3661 -1.8746 -1.2795
18445SOL    HW255914   0.787   7.822   7.691  0.1392 -1.4422 -1.2787
18446SOL     OW55915   2.508   1.591   3.167 -0.0320  0.0391  0.1173
18446SOL    HW155916   2.481   1.612   3.257 -0.0041  0.8173 -0.0464
18446SOL    HW255917   2.426   1.583   3.119 -0.0702 -1.0329  0.3435
18447SOL     OW55918   7.996   4.775   1.810 -0.5143 -0.2277  0.6199
18447SOL    HW155919   7.920   4.822   1.776  0.3929  0.1388 -0.9595
18447SOL    HW255920   8.034   4.834   1.874  0.3229  1.0478 -0.9770
18448SOL     OW55921   9.192   8.428   7.192  0.4970 -0.2366  0.3193
18448SOL    HW155922   9.169   8.497   7.253  1.9068  1.1194 -0.5995
18448SOL    HW255923   9.286   8.440   7.176  0.8314 -2.4387  0.2025
18449SOL     OW55924   8.627   2.944   9.704 -0.4948  0.2027  0.0995
18449SOL    HW155925   8.708   2.909   9.667 -0.4592  0.3836  0.0064
18449SOL    HW255926   8.656   3.010   9.767 -0.5431 -0.3456  0.7057
18450SOL     OW55927   3.512   4.689   4.559  0.5624  0.3256  0.3110
18450SOL    HW155928   3.574   4.654   4.624  0.3834 -1.0567 -0.2201
18450SOL    HW255929   3.566   4.739   4.499  1.5019 -2.0979 -1.0152
18451SOL     OW55930   3.818   2.916   9.122  0.4965 -0.1250  0.6556
18451SOL    HW155931   3.814   3.006   9.089  1.3898 -0.4161 -0.3368
18451SOL    HW255932   3.741   2.906   9.177 -1.3187  0.3297 -1.6349
18452SOL     OW55933   8.344   6.842   8.642 -0.5106 -0.3727 -0.1782
18452SOL    HW155934   8.316   6.924   8.682 -1.7336 -0.7741 -0.1823
18452SOL    HW255935   8.345   6.779   8.714 -0.8801 -0.6652 -0.4289
18453SOL     OW55936   4.039   6.914   9.152  0.3078 -0.6686 -0.0107
18453SOL    HW155937   4.065   6.831   9.111  0.7361 -0.6420  0.2061
18453SOL    HW255938   3.962   6.941   9.103  1.4690 -0.0445 -1.5778
18454SOL     OW55939   7.602   9.654   7.651 -0.6392  0.2049  0.3580
18454SOL    HW155940   7.546   9.679   7.724  0.2632  1.3783  0.6693
18454SOL    HW255941   7.567   9.703   7.576 -1.4408 -0.8471  0.0066
18455SOL     OW55942   4.501   5.271   7.909  0.2581 -0.2461  0.1467
18455SOL    HW155943   4.445   5.272   7.986  1.5471 -0.8230  1.1136
18455SOL    HW255944   4.472   5.347   7.858  0.1364  0.8561  1.7660
18456SOL     OW55945   2.611   2.126   0.044 -0.1803 -0.3186  0.2443
18456SOL    HW155946   2.537   2.140  -0.015 -0.1872  0.4668  0.4190
18456SOL    HW255947   2.590   2.179   0.122  1.8333  2.3219 -0.8300
18457SOL     OW55948   3.358   1.128   3.010  0.3355 -0.6023  0.1116
18457SOL    HW155949   3.431   1.152   2.953  0.6622  0.1624  0.8369
18457SOL    HW255950   3.285   1.180   2.977  0.5164 -0.1810  0.3801
18458SOL     OW55951   6.535   8.588   2.926  0.5886  0.5359 -0.0950
18458SOL    HW155952   6.533   8.672   2.881  0.1953  1.0718  0.9065
18458SOL    HW255953   6.465   8.537   2.885  0.5097  0.8668 -0.3767
18459SOL     OW55954   6.813   1.698   4.150 -0.2004 -0.0910 -0.9436
18459SOL    HW155955   6.853   1.660   4.228  0.7222  1.3889 -0.6522
18459SOL    HW255956   6.815   1.628   4.085 -0.8079 -1.2888  0.2721
18460SOL     OW55957   3.692   4.839   0.682 -0.3500 -0.2722  0.0543
18460SOL    HW155958   3.600   4.819   0.665 -0.7285 -0.0200  1.7001
18460SOL    HW255959   3.697   4.855   0.776  0.7667  2.9086 -0.4318
18461SOL     OW55960   4.783   0.010   2.976 -0.1168 -0.5089  0.3786
18461SOL    HW155961   4.691  -0.007   2.957  0.3106 -0.8468 -1.6193
18461SOL    HW255962   4.788   0.105   2.987 -0.4069 -0.2174 -1.6122
18462SOL     OW55963   4.272   6.098   6.887  0.5024  0.1851  0.0550
18462SOL    HW155964   4.217   6.044   6.831  0.3466 -0.2195  0.5954
18462SOL    HW255965   4.336   6.038   6.925  0.5202  0.4264  0.4208
18463SOL     OW55966   4.285   8.146   3.629 -0.7881  1.0319 -0.3154
18463SOL    HW155967   4.295   8.063   3.583 -0.9867  1.5666 -1.3815
18463SOL    HW255968   4.192   8.154   3.646 -0.6002  0.3775  1.1069
18464SOL     OW55969   3.904   4.491   5.983  0.2049 -0.5912  0.5249
18464SOL    HW155970   3.842   4.520   5.916  0.5214 -1.1539 -0.0231
18464SOL    HW255971   3.974   4.555   5.981  0.1332 -0.5154  0.4397
18465SOL     OW55972   7.887   1.179   3.857 -1.0833 -0.1738 -0.3318
18465SOL    HW155973   7.955   1.184   3.790 -3.1695  0.0336 -2.5187
18465SOL    HW255974   7.904   1.255   3.914 -0.8253  1.2282 -2.1893
18466SOL     OW55975   2.091   8.749   2.074 -0.1529  0.7492 -0.2615
18466SOL    HW155976   2.145   8.786   2.144 -1.2315  2.5433 -0.3112
18466SOL    HW255977   2.135   8.778   1.993 -0.9805  1.9714 -0.3003
18467SOL     OW55978   6.779   4.757   1.084 -0.1773  0.1192  0.3934
18467SOL    HW155979   6.846   4.772   1.151  0.9300 -0.6747 -0.4768
18467SOL    HW255980   6.766   4.842   1.042 -1.5098  0.8155  2.1337
18468SOL     OW55981   9.153   1.161   4.096  0.0871  0.8052  0.2794
18468SOL    HW155982   9.140   1.204   4.011  1.3165 -0.9904 -0.8825
18468SOL    HW255983   9.242   1.185   4.121  0.1607  0.3364  0.4640
18469SOL     OW55984   6.415   8.371   7.320 -0.9160 -0.0953  0.4504
18469SOL    HW155985   6.413   8.283   7.355  0.5514 -0.4372 -0.2227
18469SOL    HW255986   6.445   8.426   7.393 -0.5181 -0.3678  0.4912
18470SOL     OW55987   1.406   2.946   2.984 -0.3718 -0.0219  0.4569
18470SOL    HW155988   1.334   2.988   3.030 -2.1784 -0.8921 -1.3953
18470SOL    HW255989   1.378   2.855   2.973  2.0144 -0.9713  1.5565
18471SOL     OW55990   1.963   9.238   8.150  0.0006 -0.4912 -0.0850
18471SOL    HW155991   2.006   9.165   8.194 -0.2495 -0.7677 -0.2912
18471SOL    HW255992   2.034   9.290   8.114  0.4026  1.2144  2.8309
18472SOL     OW55993   1.354   6.114   1.520 -0.0039 -0.5539 -0.1116
18472SOL    HW155994   1.323   6.114   1.611 -1.1099  1.2574 -0.4322
18472SOL    HW255995   1.277   6.093   1.468  0.2713 -0.1209 -0.7041
18473SOL     OW55996   3.053   5.451   0.147 -0.3660  0.1266 -0.7789
18473SOL    HW155997   3.035   5.500   0.228  1.7101 -0.4044  0.0512
18473SOL    HW255998   3.059   5.360   0.175  1.2967  0.0304 -1.3390
18474SOL     OW55999   3.940   3.249   3.248 -0.0685 -0.0565 -0.5063
18474SOL    HW156000   3.994   3.177   3.280 -0.8053 -1.0289 -1.3769
18474SOL    HW256001   3.941   3.239   3.152 -0.0691  1.1835 -0.6577
18475SOL     OW56002   7.023   3.423   0.903 -0.2733  0.2377  0.1029
18475SOL    HW156003   7.009   3.516   0.919 -1.5936  0.0977 -0.0815
18475SOL    HW256004   6.966   3.403   0.828  1.2798 -0.3658 -0.9667
18476SOL     OW56005   2.304   5.159   2.675 -0.6600 -0.2392  0.2704
18476SOL    HW156006   2.314   5.239   2.726  1.0757 -0.1284 -0.1818
18476SOL    HW256007   2.267   5.189   2.591 -0.3866  0.0326  0.2449
18477SOL     OW56008   8.298   3.434   8.267  0.3270  0.6148  0.7910
18477SOL    HW156009   8.366   3.502   8.259 -0.0417  0.8340 -0.9392
18477SOL    HW256010   8.334   3.371   8.329  1.1029  1.8992  1.6814
18478SOL     OW56011   3.915   6.940   5.353 -0.1822 -0.1783  0.1605
18478SOL    HW156012   3.987   6.955   5.414  1.6867 -1.4265 -1.6366
18478SOL    HW256013   3.865   6.869   5.392  0.3181 -0.1966  0.7843
18479SOL     OW56014   9.110   5.283   2.546 -0.2930  0.1560 -0.4121
18479SOL    HW156015   9.122   5.322   2.460 -2.8100 -1.0149 -1.3701
18479SOL    HW256016   9.144   5.194   2.537 -0.7559 -0.0376 -0.2628
18480SOL     OW56017   4.879   9.899   9.523  0.2040  0.0377 -0.3196
18480SOL    HW156018   4.826   9.887   9.444  0.3096 -0.1533 -0.3602
18480SOL    HW256019   4.904   9.991   9.520 -0.1415  0.1368 -0.2901
18481SOL     OW56020   6.952   2.213   9.491  0.0502 -0.1984 -0.1913
18481SOL    HW156021   6.952   2.138   9.431  0.4009 -0.9565  0.7296
18481SOL    HW256022   7.045   2.235   9.501 -0.1281  1.5291 -1.8459
18482SOL     OW56023   0.379   8.717   4.965  0.7436 -0.4693 -0.1732
18482SOL    HW156024   0.372   8.633   5.011  0.4600 -0.1639  0.3557
18482SOL    HW256025   0.326   8.777   5.018 -0.7621 -0.4195 -1.6388
18483SOL     OW56026   4.572   9.142   0.964 -0.2027 -0.2452 -0.4177
18483SOL    HW156027   4.603   9.232   0.956 -0.2989 -0.1320  0.4233
18483SOL    HW256028   4.652   9.090   0.975 -0.2202 -0.0968  0.4808
18484SOL     OW56029   5.841   5.665   4.403  0.5019  0.6336 -0.4972
18484SOL    HW156030   5.859   5.754   4.374 -1.2749  0.6607 -1.6657
18484SOL    HW256031   5.752   5.668   4.437  0.4366 -0.6767 -0.4957
18485SOL     OW56032   7.312   1.907   1.735 -0.2517 -1.1494 -0.7048
18485SOL    HW156033   7.278   1.829   1.778  0.6772 -1.2731 -0.1866
18485SOL    HW256034   7.236   1.942   1.688 -1.0338 -1.5844  0.1811
18486SOL     OW56035   7.297   6.084   0.324 -0.3369 -0.3602  0.1367
18486SOL    HW156036   7.363   6.149   0.300  0.5698 -0.7888  1.3606
18486SOL    HW256037   7.260   6.056   0.240  0.0915  0.8526 -0.4876
18487SOL     OW56038   7.837   7.312   3.986  0.2437 -0.7920 -0.1155
18487SOL    HW156039   7.801   7.361   3.912  0.0740 -0.5889  0.1013
18487SOL    HW256040   7.932   7.323   3.978  0.2537 -1.2061 -0.6007
18488SOL     OW56041   3.070   6.476   8.862  0.0200 -0.7443 -0.3378
18488SOL    HW156042   2.999   6.498   8.923 -0.3286 -1.2578 -0.5501
18488SOL    HW256043   3.043   6.516   8.779 -0.0730 -1.0283 -0.4450
18489SOL     OW56044   5.774   5.426   9.803 -0.3394 -0.9495 -0.1607
18489SOL    HW156045   5.843   5.492   9.803  0.0132 -1.3046  0.6412
18489SOL    HW256046   5.777   5.388   9.891 -2.0017 -0.5177  0.1201
18490SOL     OW56047   3.929   3.301   3.991 -0.1545 -0.1110 -0.5519
18490SOL    HW156048   3.917   3.209   4.013 -0.9259  0.2599  0.6435
18490SOL    HW256049   3.958   3.342   4.073  0.3787  0.6841 -1.1198
18491SOL     OW56050   8.602   5.077   8.886  0.0987  0.1815 -0.2185
18491SOL    HW156051   8.608   4.983   8.870  0.6073  0.3563 -1.1693
18491SOL    HW256052   8.571   5.085   8.976 -0.3522 -0.8916 -0.2712
18492SOL     OW56053   8.344   5.510   9.510 -0.0015  0.3382  0.2213
18492SOL    HW156054   8.313   5.599   9.493 -0.4165  0.0761 -0.4344
18492SOL    HW256055   8.267   5.462   9.539  0.1520  0.1204  0.2742
18493SOL     OW56056   5.539   2.745   9.188  0.3278  0.4230 -0.1613
18493SOL    HW156057   5.574   2.716   9.272  0.9043  0.2486 -0.4572
18493SOL    HW256058   5.514   2.665   9.143  2.1131  0.3297 -1.0656
18494SOL     OW56059   6.183   1.045   3.231 -0.1192  0.1873  0.1284
18494SOL    HW156060   6.172   0.983   3.158  0.8476 -0.0874  0.2088
18494SOL    HW256061   6.214   0.991   3.303  0.1756  0.6791  0.3670
18495SOL     OW56062   9.165   7.415   3.081  0.3839  0.3006  0.0348
18495SOL    HW156063   9.175   7.371   3.165 -0.3862 -1.6127 -0.8032
18495SOL    HW256064   9.070   7.419   3.068  0.5033  0.0707 -0.9803
18496SOL     OW56065   8.040   7.496   8.273  0.1877  0.3168 -0.4757
18496SOL    HW156066   8.039   7.406   8.306 -2.1024  0.2270 -0.6943
18496SOL    HW256067   8.131   7.525   8.286  0.4621 -1.2686  1.6123
18497SOL     OW56068   3.610   9.484   1.304 -0.2495 -0.0822  0.1358
18497SOL    HW156069   3.657   9.416   1.255 -0.7256 -0.1970 -0.1694
18497SOL    HW256070   3.608   9.451   1.394 -0.0131 -0.2189  0.0935
18498SOL     OW56071   4.343   5.854   3.896  0.8545  0.1918 -0.1593
18498SOL    HW156072   4.260   5.889   3.929  0.7972  0.1322 -0.2417
18498SOL    HW256073   4.404   5.867   3.968  0.6410 -0.2792  0.1102
18499SOL     OW56074   7.634   5.249   0.892  0.1316  0.2696  0.0016
18499SOL    HW156075   7.697   5.284   0.956 -0.3684 -0.0900  0.6998
18499SOL    HW256076   7.677   5.172   0.856  0.6144  0.7405 -0.4596
18500SOL     OW56077   4.946   9.618   3.937  0.1557 -0.2552  0.0738
18500SOL    HW156078   5.026   9.660   3.907 -0.2598 -1.1153 -2.4595
18500SOL    HW256079   4.879   9.686   3.930  0.1343 -0.3441 -0.6650
18501SOL     OW56080   6.478   0.706   4.762 -0.2491 -0.0641 -0.0554
18501SOL    HW156081   6.501   0.777   4.822 -0.5831  0.3653 -0.4346
18501SOL    HW256082   6.541   0.636   4.782  1.3526  1.0405 -1.0078
18502SOL     OW56083   8.709   1.848   6.528 -0.4092 -0.3212  0.5116
18502SOL    HW156084   8.625   1.810   6.555 -0.9931  0.2617 -0.4475
18502SOL    HW256085   8.767   1.833   6.603 -0.7769 -2.5309  0.4204
18503SOL     OW56086   1.362   6.962   6.294 -0.5330  0.2496 -0.1981
18503SOL    HW156087   1.394   6.907   6.223 -0.9773 -0.7674  0.3632
18503SOL    HW256088   1.432   6.958   6.360 -0.6500  0.1904 -0.0762
18504SOL     OW56089   9.848   4.066   1.104 -0.6317 -0.0079  0.1589
18504SOL    HW156090   9.755   4.089   1.112 -0.3388  1.0784  0.5327
18504SOL    HW256091   9.889   4.101   1.182 -0.0064 -1.1139  0.3500
18505SOL     OW56092   5.604   5.692   2.117 -0.2173 -0.7770  0.6691
18505SOL    HW156093   5.595   5.650   2.202 -0.0372 -1.2785  0.4505
18505SOL    HW256094   5.592   5.620   2.054 -0.7489 -0.3478  0.2648
18506SOL     OW56095   4.862   0.570   4.171 -0.8743  0.1680 -0.0548
18506SOL    HW156096   4.955   0.558   4.190 -0.2996  1.7057 -1.6565
18506SOL    HW256097   4.831   0.630   4.238 -0.0472  1.6764 -0.9615
18507SOL     OW56098   3.795   0.229   9.856 -0.1372  0.1915 -0.4315
18507SOL    HW156099   3.720   0.286   9.838  0.2639  0.4366 -1.3859
18507SOL    HW256100   3.781   0.152   9.800  0.0004 -0.0466 -0.1419
18508SOL     OW56101   1.423   5.085   5.785  0.2383  0.3208 -0.7760
18508SOL    HW156102   1.517   5.085   5.802  0.9166  0.5183 -3.8086
18508SOL    HW256103   1.394   4.998   5.813  1.9819 -0.8996 -2.4362
18509SOL     OW56104   0.961   7.797   5.232 -0.1447 -0.2687 -0.6052
18509SOL    HW156105   1.047   7.771   5.266  0.6573  1.6682 -1.0492
18509SOL    HW256106   0.975   7.809   5.139 -0.4933  1.5266 -0.4489
18510SOL     OW56107   5.141   4.905   7.497  0.1760 -0.2103  0.3770
18510SOL    HW156108   5.196   4.900   7.575  1.0314  2.8372  0.0952
18510SOL    HW256109   5.202   4.892   7.424 -0.5494 -2.6105  0.1010
18511SOL     OW56110   4.159   8.495   4.898  0.1266  0.0597  0.5138
18511SOL    HW156111   4.204   8.470   4.818 -0.3652 -2.1298  0.8529
18511SOL    HW256112   4.223   8.547   4.947  1.7581 -1.6369  0.2874
18512SOL     OW56113   8.222   9.755   3.300 -0.0392  0.0034 -0.3013
18512SOL    HW156114   8.244   9.684   3.240  0.8034 -1.5901  1.7369
18512SOL    HW256115   8.282   9.826   3.277 -3.5663  1.9332 -5.1202
18513SOL     OW56116   8.610   4.167   2.607 -0.2658 -0.2084  0.1761
18513SOL    HW156117   8.652   4.198   2.687 -1.3392  1.3061  0.1834
18513SOL    HW256118   8.526   4.214   2.603 -0.4171 -0.5341 -1.6355
18514SOL     OW56119   8.658   8.787   1.404  0.2251 -0.3445  0.1220
18514SOL    HW156120   8.730   8.751   1.352  0.1005  1.3187 -1.3083
18514SOL    HW256121   8.587   8.798   1.341 -0.8377 -0.6616  1.2235
18515SOL     OW56122   7.651   8.248   2.849  0.1261 -0.2145 -0.2875
18515SOL    HW156123   7.645   8.153   2.864 -1.9910 -0.0970 -0.1360
18515SOL    HW256124   7.603   8.262   2.767  2.2954  0.5193 -1.5395
18516SOL     OW56125   4.055   1.210   2.234  0.1314  0.4440  0.1338
18516SOL    HW156126   4.003   1.289   2.216  0.3801  0.7785  0.8596
18516SOL    HW256127   3.992   1.150   2.274  0.3092  0.8858  1.1053
18517SOL     OW56128   3.142   2.546   7.402 -0.0866  0.0378  0.5673
18517SOL    HW156129   3.059   2.564   7.358 -0.7959 -1.7472  1.0887
18517SOL    HW256130   3.190   2.490   7.341 -0.7739 -1.8458  1.6565
18518SOL     OW56131   5.834   1.932   1.816 -0.1385  0.8558 -0.3703
18518SOL    HW156132   5.851   2.014   1.768 -1.3171  0.3888 -1.6501
18518SOL    HW256133   5.781   1.959   1.891  1.5795  1.5777  0.6316
18519SOL     OW56134   9.895   1.179   7.506  0.0823 -0.7303  0.1036
18519SOL    HW156135   9.972   1.206   7.557  0.7454 -0.9627 -0.7545
18519SOL    HW256136   9.822   1.225   7.547  0.4387 -1.6904  1.9016
18520SOL     OW56137   2.546   0.362   2.917 -0.1072 -0.0517 -0.5830
18520SOL    HW156138   2.597   0.368   2.836  0.6234 -1.6934 -0.2957
18520SOL    HW256139   2.610   0.335   2.983 -0.8111  0.6813  0.4203
18521SOL     OW56140   4.083   9.404   0.944  0.3700 -0.5603 -0.1123
18521SOL    HW156141   4.068   9.485   0.895 -1.8297 -0.7909  0.0664
18521SOL    HW256142   4.160   9.365   0.904  0.5641  0.8687 -1.2032
18522SOL     OW56143   1.320   1.612   8.554 -0.1299 -0.6872  0.2868
18522SOL    HW156144   1.286   1.528   8.586  0.9628 -0.3762  2.4576
18522SOL    HW256145   1.415   1.598   8.549 -0.0009  0.2432  0.0170
18523SOL     OW56146   5.675   7.655   3.736 -0.0929  1.1180  0.0895
18523SOL    HW156147   5.683   7.708   3.815  1.6801  1.8566 -0.5362
18523SOL    HW256148   5.752   7.598   3.737 -1.3749 -0.7150  0.1655
18524SOL     OW56149   5.486   2.105   9.048 -0.0639  0.3207  0.8277
18524SOL    HW156150   5.517   2.178   8.995  0.4949  1.1199  2.2161
18524SOL    HW256151   5.549   2.099   9.120 -0.9856 -0.5111  1.5853
18525SOL     OW56152   8.876   3.051   0.667 -0.3049 -0.4745 -0.0242
18525SOL    HW156153   8.910   2.963   0.683 -0.1434 -0.4289 -0.1279
18525SOL    HW256154   8.884   3.064   0.573 -1.4689 -0.8283 -0.1988
18526SOL     OW56155   0.322   1.964   4.862 -0.1084  0.0481  0.1599
18526SOL    HW156156   0.299   1.881   4.821 -0.9061  0.3851 -0.0793
18526SOL    HW256157   0.268   2.030   4.818  0.5464  0.7096  0.3135
18527SOL     OW56158   4.805   1.449   7.647  0.3904  0.0619 -0.1745
18527SOL    HW156159   4.813   1.405   7.562  2.5637  1.1019 -0.5756
18527SOL    HW256160   4.740   1.517   7.632  0.9968  0.4556 -1.1428
18528SOL     OW56161   1.449   7.727   9.458 -0.8577 -0.2938 -0.4773
18528SOL    HW156162   1.472   7.820   9.453 -0.9217 -0.1388  1.4169
18528SOL    HW256163   1.454   7.696   9.367 -0.0378  1.3570 -1.0348
18529SOL     OW56164   1.160   6.196   0.562  0.7959 -0.0882  0.3880
18529SOL    HW156165   1.114   6.255   0.503  0.3426 -1.3860 -0.6255
18529SOL    HW256166   1.248   6.232   0.569  0.8923  0.0812 -1.1769
18530SOL     OW56167   6.858   1.568   7.016 -0.3211  0.1564 -0.5140
18530SOL    HW156168   6.873   1.478   7.042 -0.6787  0.1902 -0.1653
18530SOL    HW256169   6.945   1.604   7.000 -0.0714  0.1511  0.7349
18531SOL     OW56170   2.086   1.752   2.206 -0.0159  0.7240 -0.1618
18531SOL    HW156171   2.058   1.819   2.269 -0.7842 -1.2616  1.7527
18531SOL    HW256172   2.004   1.717   2.170  0.2454 -0.4854  0.3561
18532SOL     OW56173   6.083   1.608   2.499  0.3033  0.4027 -0.1179
18532SOL    HW156174   6.138   1.613   2.420 -0.0901 -0.2249 -0.4448
18532SOL    HW256175   6.063   1.699   2.520  1.8782  0.6720  0.3112
18533SOL     OW56176   2.501   5.857   0.129  0.4248 -0.5294 -0.4425
18533SOL    HW156177   2.458   5.889   0.208  0.6615  0.6210 -0.7562
18533SOL    HW256178   2.435   5.864   0.061 -0.3198 -3.0696 -0.0841
18534SOL     OW56179   9.689   8.059   5.326  0.0983  0.2710  0.1340
18534SOL    HW156180   9.644   8.134   5.364  0.2833  1.1248 -1.2597
18534SOL    HW256181   9.772   8.053   5.374 -0.0301  0.8166  0.4255
18535SOL     OW56182   9.752   2.935   4.922 -0.0993 -0.2343 -0.9008
18535SOL    HW156183   9.817   2.890   4.976 -1.1137  2.2127  2.7948
18535SOL    HW256184   9.798   3.011   4.886 -0.3201  0.3434 -0.0167
18536SOL     OW56185   9.584   8.187   6.265 -0.2692 -1.1362 -0.3465
18536SOL    HW156186   9.625   8.103   6.286  1.4812 -0.5185 -1.1439
18536SOL    HW256187   9.551   8.219   6.349 -0.1124 -2.1731  0.1329
18537SOL     OW56188   4.891   7.459   7.598 -0.0444 -0.5239  0.1815
18537SOL    HW156189   4.949   7.435   7.525  0.3986  0.4805  0.1813
18537SOL    HW256190   4.876   7.377   7.645 -0.7246 -1.2810 -1.3070
18538SOL     OW56191   3.401   6.129   0.252 -0.0624  0.0197 -0.5083
18538SOL    HW156192   3.385   6.139   0.158  0.9949  0.2055 -0.6796
18538SOL    HW256193   3.328   6.175   0.294 -0.7391 -0.3783 -1.2310
18539SOL     OW56194   7.920   7.431   7.145  0.1002 -0.4532  0.2211
18539SOL    HW156195   7.953   7.441   7.235  0.0142 -0.1980  0.2251
18539SOL    HW256196   7.880   7.516   7.125  1.4843  0.0330 -0.6242
18540SOL     OW56197   7.160   8.299   9.744 -0.1270  0.8914  0.0746
18540SOL    HW156198   7.249   8.266   9.733 -0.7265 -1.0938  0.8507
18540SOL    HW256199   7.113   8.228   9.787 -2.1962  1.7647 -0.6466
18541SOL     OW56200   3.105   5.564   9.451  0.1515  0.0889  0.2282
18541SOL    HW156201   3.118   5.471   9.430 -0.2086  0.1427 -0.2481
18541SOL    HW256202   3.170   5.582   9.518  0.0026 -0.5961  0.5686
18542SOL     OW56203   7.354   3.253   4.206 -0.0259 -0.0216 -0.1684
18542SOL    HW156204   7.432   3.282   4.253  0.2856  0.6376 -1.0585
18542SOL    HW256205   7.388   3.213   4.126 -0.6220  0.9672 -0.9319
18543SOL     OW56206   3.455   1.775   4.255  0.0902  0.1797 -0.5126
18543SOL    HW156207   3.375   1.796   4.207 -0.5996  1.0379  0.9386
18543SOL    HW256208   3.438   1.690   4.295 -0.5462  0.8183  0.6364
18544SOL     OW56209   6.735   0.059   5.157  0.1831 -0.5652 -0.3996
18544SOL    HW156210   6.807   0.012   5.115 -1.1060 -3.1014  0.0644
18544SOL    HW256211   6.745   0.040   5.250 -0.9532 -0.7928 -0.3115
18545SOL     OW56212   8.796   3.578   9.920  0.0245  0.3972 -0.3345
18545SOL    HW156213   8.702   3.569   9.905 -0.2495  0.0824  1.3131
18545SOL    HW256214   8.811   3.673   9.917  0.1487  0.3702 -2.9754
18546SOL     OW56215   2.465   2.209   5.463  0.4584  0.4704  0.2488
18546SOL    HW156216   2.421   2.124   5.472  0.9865  0.2166  0.4747
18546SOL    HW256217   2.394   2.270   5.444 -0.1414  0.2394  1.5522
18547SOL     OW56218   0.793   1.517   2.345 -0.0269  0.0300 -0.0670
18547SOL    HW156219   0.780   1.576   2.420  2.7098  0.3880  0.2418
18547SOL    HW256220   0.752   1.563   2.272 -0.1879  1.1052  0.6662
18548SOL     OW56221   5.286   6.466   5.456  0.2557 -0.2135  0.8042
18548SOL    HW156222   5.278   6.443   5.549 -1.9110  2.5225  1.4277
18548SOL    HW256223   5.368   6.514   5.450  1.1002 -1.5807  0.9643
18549SOL     OW56224   7.454   3.015   2.415  0.3008 -0.2196 -0.2011
18549SOL    HW156225   7.427   3.080   2.480  4.1380  0.7804  0.6073
18549SOL    HW256226   7.460   2.933   2.464 -0.8506 -0.4076 -0.3423
18550SOL     OW56227   3.502   2.181   7.245  0.2369 -0.9476  0.6087
18550SOL    HW156228   3.552   2.099   7.254 -1.2933 -2.0633 -0.4758
18550SOL    HW256229   3.562   2.241   7.202  0.5494 -2.4091 -1.1330
18551SOL     OW56230   5.467   1.509   0.844  0.0347  0.0932  0.3959
18551SOL    HW156231   5.555   1.516   0.806 -0.7753  1.2703 -1.4313
18551SOL    HW256232   5.412   1.559   0.784 -1.7663  0.0503  1.9365
18552SOL     OW56233   3.412   9.885   5.497  0.7379 -0.7330 -0.0711
18552SOL    HW156234   3.475   9.955   5.480  1.1798 -0.7804  1.1908
18552SOL    HW256235   3.366   9.873   5.415 -0.1710  1.8531 -0.0400
18553SOL     OW56236   7.762   2.114   0.771 -0.1035 -0.0349 -0.2267
18553SOL    HW156237   7.857   2.121   0.781 -0.0657 -0.9310  0.1349
18553SOL    HW256238   7.734   2.069   0.850 -0.8014 -0.0398 -0.4752
18554SOL     OW56239   9.465   0.706   8.515 -0.3876  0.2964  0.2461
18554SOL    HW156240   9.430   0.784   8.558 -1.1957  0.9786 -1.5379
18554SOL    HW256241   9.434   0.633   8.569  0.2829  1.1633  1.8876
18555SOL     OW56242   0.424   5.463   3.403  0.0978 -0.0613  0.5166
18555SOL    HW156243   0.492   5.402   3.429  0.7134  0.1185 -0.6173
18555SOL    HW256244   0.470   5.545   3.384 -0.3599 -0.0437 -0.6249
18556SOL     OW56245   4.747   5.360   8.753 -0.5229 -0.2318 -0.6809
18556SOL    HW156246   4.759   5.436   8.695 -0.5163  0.5100  0.2710
18556SOL    HW256247   4.773   5.285   8.699  2.0179  0.6618 -0.8646
18557SOL     OW56248   4.122   8.612   4.126 -0.1251 -0.0230 -0.4064
18557SOL    HW156249   4.178   8.551   4.077  0.0465 -0.4812  0.3448
18557SOL    HW256250   4.092   8.561   4.201 -0.5274  0.6212 -0.1271
18558SOL     OW56251   3.182   0.431   5.358 -0.2388  0.9215 -0.1192
18558SOL    HW156252   3.204   0.507   5.304 -1.1761  0.5431 -1.0861
18558SOL    HW256253   3.264   0.383   5.366  0.1232  1.4775 -0.4094
18559SOL     OW56254   5.227   5.288   7.743 -0.1963  0.0367  0.0828
18559SOL    HW156255   5.234   5.216   7.806 -1.1185 -1.8663 -1.8423
18559SOL    HW256256   5.314   5.328   7.742  0.6442 -1.6665  0.5494
18560SOL     OW56257   2.276   4.250   4.214 -0.2568 -0.1853 -0.1046
18560SOL    HW156258   2.184   4.239   4.237 -0.4426  0.3338 -0.5866
18560SOL    HW256259   2.323   4.241   4.297 -0.7694 -0.0969  0.1976
18561SOL     OW56260   5.757   4.585   6.698  0.0368 -0.0415 -0.1286
18561SOL    HW156261   5.771   4.636   6.777 -1.0676 -2.3786  1.6830
18561SOL    HW256262   5.665   4.560   6.701  0.5986 -2.4022 -0.6973
18562SOL     OW56263   0.870   7.375   4.391 -0.4300 -0.3870  0.4479
18562SOL    HW156264   0.952   7.327   4.376 -0.9631 -0.9624 -0.6873
18562SOL    HW256265   0.806   7.333   4.335 -1.4635  0.2354  1.1168
18563SOL     OW56266   5.391   6.929   1.217  0.3367 -0.1385  0.6705
18563SOL    HW156267   5.369   6.996   1.283  0.3415 -1.7365  2.3638
18563SOL    HW256268   5.308   6.887   1.197  0.3482  0.2991 -0.3211
18564SOL     OW56269   6.048   5.048   9.950 -0.0560 -0.2862 -0.0689
18564SOL    HW156270   5.980   4.982   9.937  1.6419 -2.3735  1.0630
18564SOL    HW256271   6.003   5.122   9.992 -1.9557 -0.7860 -1.1294
18565SOL     OW56272   5.152   9.312   5.343 -0.7764 -0.3396 -0.5707
18565SOL    HW156273   5.128   9.398   5.307 -2.1388 -0.6905 -0.5231
18565SOL    HW256274   5.224   9.331   5.403 -0.5018  0.6547 -1.1876
18566SOL     OW56275   6.957   7.505   8.173  0.1227  0.1204 -0.0293
18566SOL    HW156276   6.903   7.517   8.095 -0.1019  0.3670  0.1615
18566SOL    HW256277   7.035   7.558   8.157 -0.1232  0.5243  0.1026
18567SOL     OW56278   8.799   1.805   1.194 -0.2208 -0.0118  0.8751
18567SOL    HW156279   8.757   1.858   1.127  1.5252 -2.4075 -2.3631
18567SOL    HW256280   8.765   1.717   1.180  2.7358 -1.2496  0.7721
18568SOL     OW56281   6.982   6.322   6.784  0.1682  0.8092 -0.1266
18568SOL    HW156282   6.945   6.265   6.716  0.9529  0.8401 -0.6001
18568SOL    HW256283   7.075   6.298   6.787  0.3195  1.4281  0.3156
18569SOL     OW56284   1.555   4.692   2.128 -0.5035  0.1765 -0.0787
18569SOL    HW156285   1.545   4.712   2.221  1.9060 -0.9340  0.4928
18569SOL    HW256286   1.554   4.778   2.085 -1.1769  0.7339  1.0079
18570SOL     OW56287   7.696   1.489   0.064 -0.0190 -0.8428  0.2572
18570SOL    HW156288   7.757   1.417   0.048  0.4473 -0.5272  0.5710
18570SOL    HW256289   7.634   1.486  -0.009 -1.0279 -2.6002  1.1257
18571SOL     OW56290   6.407   0.267   5.705 -0.0402  0.3387 -0.3722
18571SOL    HW156291   6.479   0.286   5.765 -0.6934  0.0728  0.5153
18571SOL    HW256292   6.335   0.241   5.762 -1.0831  1.3357 -1.1949
18572SOL     OW56293   0.312   0.186   8.918 -0.4215 -0.3037  0.5196
18572SOL    HW156294   0.288   0.191   9.010 -0.2331  2.0320  0.4901
18572SOL    HW256295   0.407   0.174   8.919 -0.3834  0.0099  0.6279
18573SOL     OW56296   8.947   9.497   5.681 -0.0022 -0.5658 -0.0246
18573SOL    HW156297   8.919   9.509   5.772 -0.4239 -2.6790  0.1606
18573SOL    HW256298   8.954   9.403   5.670  0.2242 -0.3429 -2.1494
18574SOL     OW56299   4.808   4.349   7.233 -0.2289  0.2188 -0.1078
18574SOL    HW156300   4.844   4.436   7.214  1.5763 -0.5772 -0.5175
18574SOL    HW256301   4.849   4.323   7.315 -1.8409  0.2981  0.7645
18575SOL     OW56302   3.847   6.932   6.493  0.4665  0.1732 -0.0499
18575SOL    HW156303   3.827   7.018   6.530  1.0937 -0.0681  0.8772
18575SOL    HW256304   3.936   6.913   6.521  0.5004 -0.5818 -0.6288
18576SOL     OW56305   9.432   2.819   2.897 -0.3251  0.5126  0.1172
18576SOL    HW156306   9.507   2.838   2.954  0.3876 -0.7658 -0.3611
18576SOL    HW256307   9.392   2.741   2.935 -1.4287  1.1686  0.3550
18577SOL     OW56308   3.724   4.270   1.793 -0.4051  0.8325  0.8334
18577SOL    HW156309   3.699   4.292   1.703 -0.0777  0.1533  0.5643
18577SOL    HW256310   3.790   4.335   1.816 -0.3473  0.8928  0.5071
18578SOL     OW56311   8.732   0.793   4.132 -0.1654  0.4550 -0.0195
18578SOL    HW156312   8.694   0.770   4.217 -0.4696  2.9099  0.5695
18578SOL    HW256313   8.687   0.874   4.106  1.8839  1.2998 -1.1762
18579SOL     OW56314   1.926   3.174   6.705 -0.3498 -0.4002 -0.2975
18579SOL    HW156315   1.938   3.257   6.751  3.2021 -0.8146 -0.2476
18579SOL    HW256316   1.853   3.191   6.646 -1.0706  2.0836  1.1196
18580SOL     OW56317   7.955   2.300   0.937 -0.6183  0.6020 -0.5239
18580SOL    HW156318   7.908   2.347   0.868 -0.2823  1.1661 -0.3745
18580SOL    HW256319   8.038   2.347   0.945 -0.5014  0.3089  0.0108
18581SOL     OW56320   5.004   7.358   4.335 -0.4530 -0.4140  0.0826
18581SOL    HW156321   4.973   7.321   4.417  0.1776 -1.4860 -0.1397
18581SOL    HW256322   5.018   7.282   4.278  1.7879  0.0617 -0.0795
18582SOL     OW56323   3.286   1.789   9.054  0.1990  0.3608  0.0840
18582SOL    HW156324   3.244   1.875   9.060 -1.9340 -0.6581  0.8543
18582SOL    HW256325   3.348   1.788   9.126 -0.2665  1.0124  0.5112
18583SOL     OW56326   7.103   7.781   8.957  0.3221 -0.0801 -0.4742
18583SOL    HW156327   7.164   7.707   8.956 -0.5431 -0.9004  1.7906
18583SOL    HW256328   7.024   7.747   8.998 -1.2742  1.2930 -2.2535
18584SOL     OW56329   1.171   8.448   5.971  0.1063  0.4327  0.0034
18584SOL    HW156330   1.256   8.435   5.927 -0.0015  2.1465 -0.8013
18584SOL    HW256331   1.114   8.484   5.903 -0.8547  0.6312  0.8843
18585SOL     OW56332   4.513   6.833   8.425  0.4146 -0.3500 -0.0481
18585SOL    HW156333   4.573   6.901   8.397 -1.1230  0.9745 -0.3064
18585SOL    HW256334   4.486   6.859   8.513  0.7546 -1.3268  0.3639
18586SOL     OW56335   3.375   3.793   8.352 -0.2571  0.5516  0.9534
18586SOL    HW156336   3.408   3.834   8.432  2.0979  1.0665 -0.1873
18586SOL    HW256337   3.379   3.862   8.286 -0.2659 -0.3663 -0.0358
18587SOL     OW56338   9.203   2.577   0.326  0.0093  0.3394 -0.2977
18587SOL    HW156339   9.114   2.552   0.301  0.9103 -1.3848 -2.0410
18587SOL    HW256340   9.228   2.644   0.263  0.2557  0.1785 -0.3732
18588SOL     OW56341   2.584   4.390   6.924 -0.3249 -0.4071  0.3913
18588SOL    HW156342   2.549   4.305   6.896 -3.0825 -0.0368  2.2315
18588SOL    HW256343   2.536   4.454   6.871  0.4001  0.0453  0.2802
18589SOL     OW56344   7.089   0.992   0.142  0.1714  0.0540 -0.3659
18589SOL    HW156345   7.063   0.922   0.082  2.1569 -1.2993  0.2149
18589SOL    HW256346   7.018   1.055   0.138 -0.4000 -0.6203 -3.0937
18590SOL     OW56347   1.059   4.015   8.657  0.3533  0.0891  0.3615
18590SOL    HW156348   1.012   3.985   8.579 -0.1669  0.1770  0.6373
18590SOL    HW256349   1.042   3.948   8.723 -1.9890  1.6094  1.4225
18591SOL     OW56350   6.146   8.647   7.267  0.0716  0.1043  0.3370
18591SOL    HW156351   6.175   8.640   7.358  2.0629  0.6608 -0.2207
18591SOL    HW256352   6.149   8.558   7.234 -0.8227 -0.1265  0.8323
18592SOL     OW56353   0.413   5.840   4.625 -0.7637 -0.1834 -0.3213
18592SOL    HW156354   0.406   5.929   4.657 -2.1875 -0.7207  1.0296
18592SOL    HW256355   0.325   5.803   4.639  0.2574 -2.3395  0.8982
18593SOL     OW56356   5.427   2.309   7.077 -0.0582 -1.0568  0.4884
18593SOL    HW156357   5.417   2.365   7.000  1.5590  0.0827  1.0403
18593SOL    HW256358   5.422   2.220   7.043 -0.8578 -0.5719 -0.7035
18594SOL     OW56359   6.911   6.524   2.459 -0.3653 -0.7762 -0.3611
18594SOL    HW156360   6.960   6.569   2.390 -1.4973 -0.4568 -0.9808
18594SOL    HW256361   6.978   6.481   2.511  0.5892 -0.2032 -1.0750
18595SOL     OW56362   1.800   7.878   1.935  0.1877 -0.3210 -0.8006
18595SOL    HW156363   1.747   7.892   1.856  1.1097  0.7734 -1.2512
18595SOL    HW256364   1.778   7.952   1.992  1.9705  0.7695 -1.4398
18596SOL     OW56365   8.111   3.249   7.214  0.3353  0.2862 -0.3926
18596SOL    HW156366   8.027   3.213   7.185  0.5422  0.3578 -1.1085
18596SOL    HW256367   8.145   3.294   7.136  0.5773  1.1072  0.1769
18597SOL     OW56368   3.611   4.487   0.975 -0.0831  0.5487 -0.0763
18597SOL    HW156369   3.698   4.450   0.960  0.2983  1.1955  0.4646
18597SOL    HW256370   3.559   4.413   1.006  0.2225  0.1148 -0.5869
18598SOL     OW56371   4.008   2.886   1.697 -0.3839 -0.1653  0.2214
18598SOL    HW156372   3.972   2.910   1.783 -0.6024  1.8415 -0.3837
18598SOL    HW256373   3.957   2.937   1.635  1.2949  0.1699 -0.9400
18599SOL     OW56374   6.449   2.848   4.547  0.5797  0.1717  0.0639
18599SOL    HW156375   6.458   2.943   4.549  0.5671  0.2168 -1.1670
18599SOL    HW256376   6.385   2.828   4.615  0.6657  1.0296  0.4037
18600SOL     OW56377   1.173   4.655   9.175  0.4582 -0.1822  0.7711
18600SOL    HW156378   1.119   4.579   9.155  1.4454 -1.4981  2.7465
18600SOL    HW256379   1.186   4.699   9.091 -0.1117 -2.2108 -0.4420
18601SOL     OW56380   3.771   7.931   3.156 -0.0511  0.4021  0.1931
18601SOL    HW156381   3.805   8.018   3.180 -1.9181  1.5247 -0.9795
18601SOL    HW256382   3.679   7.934   3.181 -0.2670 -1.0714 -0.3565
18602SOL     OW56383   2.413   3.176   2.599 -0.7059  0.6670  0.0568
18602SOL    HW156384   2.371   3.175   2.685  0.1191  1.8082  0.4958
18602SOL    HW256385   2.415   3.084   2.573 -1.5352  0.3679  0.9689
18603SOL     OW56386   4.454   2.770   8.115  0.1318 -0.3525  0.4248
18603SOL    HW156387   4.364   2.744   8.095  0.2200 -1.0203  0.8801
18603SOL    HW256388   4.449   2.865   8.129 -0.7663 -0.5929  1.8996
18604SOL     OW56389   4.440   2.657   6.660  0.4981 -0.0484  0.1980
18604SOL    HW156390   4.477   2.690   6.579 -1.1381 -1.3643 -1.1569
18604SOL    HW256391   4.515   2.640   6.717  1.8901 -1.3737 -1.9215
18605SOL     OW56392   8.352   6.375   2.252  0.0198  0.1670  0.2549
18605SOL    HW156393   8.420   6.442   2.254 -1.3251  1.6057  2.1966
18605SOL    HW256394   8.369   6.326   2.172  1.9291  1.9322 -0.5234
18606SOL     OW56395   2.991   3.946   2.389  0.2278 -0.1775 -0.1140
18606SOL    HW156396   3.072   3.897   2.376 -0.2526 -0.6547 -1.5483
18606SOL    HW256397   2.983   3.955   2.484  1.5301 -0.8327  0.0823
18607SOL     OW56398   5.587   8.871   1.633  0.1628  0.6811  0.4114
18607SOL    HW156399   5.615   8.798   1.579 -1.2089  0.2987  0.1822
18607SOL    HW256400   5.602   8.949   1.579  1.3751  0.5752  0.5571
18608SOL     OW56401   6.328   4.269   7.091 -0.9590 -0.3519 -0.2136
18608SOL    HW156402   6.298   4.357   7.115 -1.1065 -0.4819  0.0815
18608SOL    HW256403   6.371   4.236   7.170 -1.5585 -0.8342 -0.0827
18609SOL     OW56404   9.772   3.298   6.926 -0.0479  0.3574  0.4124
18609SOL    HW156405   9.743   3.241   6.855 -0.3392  0.4679  0.4439
18609SOL    HW256406   9.770   3.242   7.004 -1.4517  0.7180  0.6540
18610SOL     OW56407   0.516   5.136   4.122  0.3828  0.2366 -0.7466
18610SOL    HW156408   0.449   5.186   4.168  1.0495  1.6738 -1.2599
18610SOL    HW256409   0.580   5.202   4.094  1.8966 -1.0480 -0.4813
18611SOL     OW56410   2.286   9.141   1.981 -0.0393 -0.1256 -0.0699
18611SOL    HW156411   2.205   9.186   2.004  0.4756 -0.1218  1.9707
18611SOL    HW256412   2.347   9.211   1.958 -0.5362 -0.1170 -1.4192
18612SOL     OW56413   9.457   2.338   8.955 -0.6700  0.3365  0.5934
18612SOL    HW156414   9.393   2.312   8.889 -0.3739  0.8800  0.0741
18612SOL    HW256415   9.533   2.367   8.904  0.1716 -0.7232  1.2004
18613SOL     OW56416   0.403   7.109   8.502  0.1355  0.0429 -0.3247
18613SOL    HW156417   0.352   7.036   8.537 -0.5294 -0.7579 -2.7517
18613SOL    HW256418   0.345   7.184   8.511  0.1319 -0.0560  0.5798
18614SOL     OW56419   2.190   0.152   3.006  0.1253 -0.2339  0.3235
18614SOL    HW156420   2.216   0.242   3.025  1.9513 -0.6522 -0.0317
18614SOL    HW256421   2.269   0.100   3.022 -0.3380 -1.5320 -1.3170
18615SOL     OW56422   6.997   5.349   0.808  0.1488  0.0375 -0.5240
18615SOL    HW156423   6.941   5.381   0.879  0.4190  0.1976 -0.3835
18615SOL    HW256424   7.084   5.381   0.829  0.5712 -1.4170  0.0111
18616SOL     OW56425   2.216   0.388   3.489  0.0220 -0.4835 -0.2068
18616SOL    HW156426   2.186   0.307   3.447 -1.2565 -1.9825  3.2176
18616SOL    HW256427   2.255   0.359   3.571 -0.5912  2.4065  1.2246
18617SOL     OW56428   6.233   8.895   6.211  0.2011  0.1962  0.2070
18617SOL    HW156429   6.266   8.813   6.175  1.2007 -0.5624  2.6377
18617SOL    HW256430   6.138   8.887   6.206  0.2968 -0.8084 -0.2276
18618SOL     OW56431   2.056   3.244   9.056  0.0606  0.4635 -0.6237
18618SOL    HW156432   2.059   3.172   9.119  0.0742  0.6707 -0.3847
18618SOL    HW256433   2.052   3.202   8.970 -0.9103  0.1760 -0.4401
18619SOL     OW56434   3.945   9.424   6.624  0.3032  0.2024  0.4051
18619SOL    HW156435   3.855   9.455   6.632  0.5648  1.4230 -0.9534
18619SOL    HW256436   3.952   9.351   6.686 -1.9021 -0.5736 -0.1825
18620SOL     OW56437   7.624   6.760   2.158 -0.0620 -0.3274 -0.0072
18620SOL    HW156438   7.682   6.698   2.203 -0.8844 -0.7039  0.5697
18620SOL    HW256439   7.666   6.775   2.073  1.6002  0.4782  0.8884
18621SOL     OW56440   9.016   5.187   0.642  0.2820  0.2636 -0.1519
18621SOL    HW156441   8.976   5.256   0.694 -0.7806 -0.5118  0.0901
18621SOL    HW256442   8.947   5.122   0.631  0.6296  0.1721 -2.1275
18622SOL     OW56443   5.703   2.455   9.739 -0.1745  0.0403 -0.1591
18622SOL    HW156444   5.755   2.532   9.718 -0.5473  0.7702  1.4601
18622SOL    HW256445   5.645   2.483   9.810 -1.9986 -1.0678 -1.1437
18623SOL     OW56446   5.943   1.765   2.085 -0.0957  0.5509  0.0105
18623SOL    HW156447   5.992   1.831   2.133 -0.6469  1.9220 -1.2195
18623SOL    HW256448   5.971   1.776   1.994 -0.1987 -0.9247 -0.2234
18624SOL     OW56449   3.581   0.075   5.362  0.2724 -0.4098  0.0873
18624SOL    HW156450   3.540   0.156   5.394 -0.6319 -0.7839 -0.0957
18624SOL    HW256451   3.532   0.053   5.283  0.9197 -0.8092 -0.2077
18625SOL     OW56452   9.584   9.478   6.321 -0.1383 -0.6861 -0.2412
18625SOL    HW156453   9.521   9.457   6.253 -0.1927 -0.8275 -0.1483
18625SOL    HW256454   9.559   9.422   6.395 -1.5096  1.0941  0.7137
18626SOL     OW56455   8.825   2.666   9.831 -0.6044  0.4370  0.2749
18626SOL    HW156456   8.784   2.673   9.917 -0.1306 -2.2586  0.8169
18626SOL    HW256457   8.761   2.619   9.778  0.1970 -0.3913  0.0098
18627SOL     OW56458   5.032   7.801   4.581 -0.0041  0.6280  0.3464
18627SOL    HW156459   5.105   7.739   4.578 -1.2306 -0.8631 -0.1724
18627SOL    HW256460   4.955   7.746   4.596 -1.5868  1.6146 -3.2165
18628SOL     OW56461   7.497   2.764   3.100 -0.8269 -0.5710  0.4692
18628SOL    HW156462   7.493   2.733   3.191  0.3039 -0.3203  0.6126
18628SOL    HW256463   7.459   2.852   3.104  2.3928  0.9249  1.4178
18629SOL     OW56464   8.650   7.317   6.936 -0.1102  0.0122 -0.4882
18629SOL    HW156465   8.587   7.249   6.962 -0.9802  2.1794  4.0110
18629SOL    HW256466   8.731   7.292   6.980 -0.2060  1.3794  0.5167
18630SOL     OW56467   6.354   2.580   9.509 -0.0322 -0.1081 -0.1637
18630SOL    HW156468   6.384   2.488   9.508 -1.8707 -0.7500  0.2509
18630SOL    HW256469   6.269   2.578   9.466 -1.1843  0.9870  1.9378
18631SOL     OW56470   7.084   3.045   4.425 -0.1376  0.4995 -0.5397
18631SOL    HW156471   7.087   2.970   4.367  0.8531  1.0188 -1.1780
18631SOL    HW256472   7.171   3.049   4.464 -0.2880  1.1143 -0.2535
18632SOL     OW56473   7.469   7.478   6.036 -0.6902 -0.3376 -0.0483
18632SOL    HW156474   7.514   7.397   6.060 -1.2456 -0.5536  0.2897
18632SOL    HW256475   7.507   7.544   6.093  0.3135 -0.1886 -0.8489
18633SOL     OW56476   2.530   2.928   7.705 -0.2889 -0.3731  0.0683
18633SOL    HW156477   2.572   2.854   7.661  2.2401 -0.5234  2.5149
18633SOL    HW256478   2.584   3.004   7.682 -1.3045  0.2778 -0.2682
18634SOL     OW56479   1.860   0.864   7.449 -0.5336 -0.1557 -0.2215
18634SOL    HW156480   1.934   0.912   7.487 -1.5258  1.8979 -0.7637
18634SOL    HW256481   1.801   0.850   7.523 -0.0338 -1.0452  0.0352
18635SOL     OW56482   2.951   8.559   6.054  0.7194  0.3670 -0.1437
18635SOL    HW156483   2.914   8.539   6.140  1.1640  0.8505  0.1704
18635SOL    HW256484   2.878   8.549   5.993 -0.0945  1.8706  0.5334
18636SOL     OW56485   0.842   2.525   1.086 -0.5682 -0.3988 -0.8136
18636SOL    HW156486   0.841   2.526   1.182 -0.5965 -1.4482 -0.8013
18636SOL    HW256487   0.778   2.459   1.061 -1.1623  0.4468 -1.5851
18637SOL     OW56488   8.682   3.982   4.327  0.4811  0.3808  0.2482
18637SOL    HW156489   8.694   4.010   4.237  0.4725 -0.1986  0.0668
18637SOL    HW256490   8.662   3.889   4.322  0.9176  0.2426  0.8710
18638SOL     OW56491   5.341   5.077   2.668 -0.2133 -0.5495 -0.1519
18638SOL    HW156492   5.263   5.132   2.676  0.0800 -0.2147  0.4427
18638SOL    HW256493   5.371   5.064   2.758  0.6358 -0.3577 -0.3977
18639SOL     OW56494   6.248   4.689   7.650 -0.3217  0.3444 -0.3099
18639SOL    HW156495   6.194   4.642   7.714  0.9231 -1.1025 -0.2710
18639SOL    HW256496   6.260   4.626   7.579  1.5540  0.5118 -0.1807
18640SOL     OW56497   9.274   7.268   2.437  0.1678  0.0491  0.0762
18640SOL    HW156498   9.257   7.174   2.437 -0.6371  0.1781  1.0367
18640SOL    HW256499   9.276   7.292   2.344 -3.0917 -0.3383 -0.1978
18641SOL     OW56500   3.939   8.857   6.361 -0.4325 -0.1562  0.4738
18641SOL    HW156501   3.991   8.792   6.409  1.0190  0.1285 -0.6324
18641SOL    HW256502   3.968   8.941   6.396 -1.1603 -0.0262  0.7912
18642SOL     OW56503   0.042   8.810   3.625  0.0664  0.5089  0.0134
18642SOL    HW156504   0.126   8.781   3.589  0.3774  0.2524  0.9156
18642SOL    HW256505  -0.024   8.772   3.566  0.5658  0.4263 -0.5021
18643SOL     OW56506   7.079   8.810   7.597  0.1296  0.2340 -0.0057
18643SOL    HW156507   6.991   8.810   7.560 -0.2153 -0.9314  0.7730
18643SOL    HW256508   7.112   8.722   7.581  0.5657  0.1901  1.0560
18644SOL     OW56509   1.836   8.687   5.118 -0.1788 -0.1975 -0.3637
18644SOL    HW156510   1.924   8.725   5.108 -0.4671  0.6171  0.0972
18644SOL    HW256511   1.853   8.599   5.151  0.4821 -0.1759 -0.6196
18645SOL     OW56512   2.538   8.997   1.874 -0.1334 -0.1891 -0.2193
18645SOL    HW156513   2.452   9.038   1.888 -0.1750 -0.5901  0.8345
18645SOL    HW256514   2.563   9.023   1.786 -0.4908  1.4887  0.1503
18646SOL     OW56515   3.130   9.407   4.482  0.2377  0.4565 -0.1329
18646SOL    HW156516   3.168   9.473   4.425  0.0647  0.0770 -0.6935
18646SOL    HW256517   3.072   9.356   4.425  1.3492 -1.0053 -0.0368
18647SOL     OW56518   5.490   7.955   0.036  0.2739 -0.8517 -0.0033
18647SOL    HW156519   5.419   7.982   0.094 -0.8937 -1.7237 -0.9699
18647SOL    HW256520   5.450   7.892  -0.024  1.8536 -1.3142 -0.6380
18648SOL     OW56521   4.834   8.286   0.910 -0.2861 -0.4764 -0.5424
18648SOL    HW156522   4.868   8.268   0.998 -2.1060 -0.2609  0.2657
18648SOL    HW256523   4.885   8.359   0.878 -1.3122  1.2269  1.4733
18649SOL     OW56524   4.690   8.244   5.169  0.2091  0.0768 -0.1827
18649SOL    HW156525   4.756   8.183   5.137  1.1892 -0.6863  2.9288
18649SOL    HW256526   4.725   8.330   5.149  1.0157 -0.3359 -0.5847
18650SOL     OW56527   9.282   5.690   6.916 -0.3084 -0.0523  0.4301
18650SOL    HW156528   9.291   5.736   6.832 -0.3348  1.6536  1.3103
18650SOL    HW256529   9.238   5.753   6.973 -0.8214 -1.3929  1.5744
18651SOL     OW56530   7.607   0.629   1.188 -0.0880 -0.8956  0.1744
18651SOL    HW156531   7.612   0.576   1.109  1.8158  0.7036 -0.8771
18651SOL    HW256532   7.680   0.599   1.243 -0.6888 -1.2137  0.8116
18652SOL     OW56533   5.769   0.823   7.113 -0.2746 -0.0280  0.0338
18652SOL    HW156534   5.706   0.786   7.174  0.2391 -0.7851  0.1132
18652SOL    HW256535   5.716   0.855   7.040 -0.8549  0.5061  0.6747
18653SOL     OW56536   6.076   9.693   2.344 -0.7110  0.1761  0.3984
18653SOL    HW156537   6.036   9.711   2.259 -0.1144  1.0814  0.2882
18653SOL    HW256538   6.144   9.628   2.326  0.7858  1.8097 -0.2318
18654SOL     OW56539   5.759   7.179   1.129  0.2606  0.3712 -0.1132
18654SOL    HW156540   5.760   7.272   1.148  1.3410  0.6586 -1.3969
18654SOL    HW256541   5.689   7.168   1.065  0.3000  0.3553 -0.1544
18655SOL     OW56542   8.354   6.596   9.483  0.3882  0.5983  0.4686
18655SOL    HW156543   8.442   6.629   9.501  1.1681 -1.5412  0.8823
18655SOL    HW256544   8.301   6.630   9.556  1.8717 -1.6493  2.7455
18656SOL     OW56545   3.924   7.586   9.869 -0.5734  0.1193 -0.4643
18656SOL    HW156546   3.843   7.606   9.821 -1.8685 -0.9310  1.1657
18656SOL    HW256547   3.911   7.624   9.955  0.7687  0.0977 -0.2418
18657SOL     OW56548   4.950   1.268   8.834 -0.3076 -0.2745 -0.7073
18657SOL    HW156549   4.909   1.315   8.762  2.1223  2.6090 -0.3934
18657SOL    HW256550   4.968   1.181   8.799 -1.7363  0.1204 -2.5606
18658SOL     OW56551   0.906   7.326   9.166 -0.6501 -0.0230 -0.6458
18658SOL    HW156552   0.976   7.263   9.182  0.3607  1.2752  0.3131
18658SOL    HW256553   0.929   7.401   9.221 -1.2542  1.6042 -2.4966
18659SOL     OW56554   2.082   4.541   0.709 -0.2467 -0.3665 -0.1992
18659SOL    HW156555   2.022   4.590   0.765 -1.0189 -0.2898 -1.0602
18659SOL    HW256556   2.160   4.527   0.763 -0.5221  0.6743  0.4972
18660SOL     OW56557   4.125   3.786   5.054  0.3444 -0.1166 -0.3737
18660SOL    HW156558   4.084   3.729   5.119  0.0570  0.9825  0.4340
18660SOL    HW256559   4.073   3.773   4.974  0.7132 -1.4854 -0.4041
18661SOL     OW56560   0.516   4.431   5.066  0.0190 -0.6849  0.0811
18661SOL    HW156561   0.605   4.411   5.095  0.8629 -0.6849 -2.2918
18661SOL    HW256562   0.528   4.484   4.987 -2.0952 -0.6693 -0.2774
18662SOL     OW56563   5.902   0.485   0.570 -0.1177 -0.5216  0.0655
18662SOL    HW156564   5.864   0.543   0.637  0.0007  0.6088 -0.8113
18662SOL    HW256565   5.933   0.409   0.619  0.1197  0.3457  1.3260
18663SOL     OW56566   5.319   5.414   8.204 -0.6513  0.3700  0.0532
18663SOL    HW156567   5.303   5.502   8.171 -0.4290  0.4974  0.2743
18663SOL    HW256568   5.240   5.391   8.253 -1.1221  0.0463 -0.8320
18664SOL     OW56569   6.996   2.039   4.492  0.0412  0.3292 -0.0363
18664SOL    HW156570   7.002   2.006   4.581 -0.9709 -1.4489 -0.5585
18664SOL    HW256571   7.052   1.980   4.441  1.6793  2.1344 -0.4191
18665SOL     OW56572   7.530   5.974   9.571 -0.3048  0.0364 -0.3365
18665SOL    HW156573   7.589   6.008   9.638 -0.6061  1.1399 -0.6158
18665SOL    HW256574   7.587   5.923   9.513  0.1271 -0.0869  0.1859
18666SOL     OW56575   4.886   2.528   7.215 -0.3347  0.1792 -0.4708
18666SOL    HW156576   4.823   2.598   7.232 -0.1862  0.4878 -1.1608
18666SOL    HW256577   4.970   2.572   7.210  0.0333 -0.2912  0.9479
18667SOL     OW56578   0.984   8.978   3.573 -0.2638  0.0241 -0.3081
18667SOL    HW156579   1.057   8.925   3.606 -1.4074 -0.8956  0.8315
18667SOL    HW256580   0.940   8.921   3.510  0.6438  1.0002 -1.8892
18668SOL     OW56581   6.721   3.688   1.767 -0.0201 -0.0907 -0.4901
18668SOL    HW156582   6.797   3.675   1.825 -0.0243 -0.2149 -0.5137
18668SOL    HW256583   6.651   3.715   1.827  0.3059  1.0105 -0.5881
18669SOL     OW56584   4.235   8.243   8.676  0.4422  0.1193  0.0898
18669SOL    HW156585   4.228   8.281   8.764  0.4972  1.3374 -0.4265
18669SOL    HW256586   4.168   8.174   8.675 -1.4386  1.8409  0.2132
18670SOL     OW56587   3.173   1.609   2.754  0.7493  0.1989 -0.9330
18670SOL    HW156588   3.142   1.695   2.782 -0.5892 -0.8104  0.8816
18670SOL    HW256589   3.109   1.579   2.690  1.0797  0.4238 -1.3774
18671SOL     OW56590   9.292   5.745   6.058 -0.3211 -0.2283 -0.2502
18671SOL    HW156591   9.245   5.779   5.982 -1.7450 -1.0277  0.2360
18671SOL    HW256592   9.359   5.688   6.021 -0.4549  0.0466 -0.9377
18672SOL     OW56593   4.113   1.079   9.654  0.1911  0.0561  0.4662
18672SOL    HW156594   4.143   1.146   9.592 -0.2139 -1.0423 -0.9889
18672SOL    HW256595   4.027   1.109   9.682 -0.0768  0.0547 -0.3364
18673SOL     OW56596   1.102   8.717   8.209  0.2081 -0.1327  0.2456
18673SOL    HW156597   1.068   8.805   8.221 -0.8141 -0.6200  1.1029
18673SOL    HW256598   1.167   8.725   8.139  0.3582  1.3395  0.5302
18674SOL     OW56599   4.929   7.393   2.497 -0.2633  0.3318  0.2290
18674SOL    HW156600   5.025   7.396   2.502 -0.2173  0.9050 -0.6750
18674SOL    HW256601   4.900   7.380   2.587  0.7081 -1.3738  0.3475
18675SOL     OW56602   8.714   3.392   6.453  0.3882  0.2224  0.0229
18675SOL    HW156603   8.745   3.302   6.450  1.0822  0.4717 -1.7680
18675SOL    HW256604   8.782   3.442   6.408 -1.2079  1.2296 -1.3981
18676SOL     OW56605   2.565   8.700   1.395  0.1669 -0.3663 -0.3971
18676SOL    HW156606   2.625   8.660   1.458 -0.6066 -0.9747 -0.0254
18676SOL    HW256607   2.494   8.735   1.449  0.6235  1.1823 -0.7551
18677SOL     OW56608   5.069   4.307   3.976 -0.4714 -0.1499  0.1824
18677SOL    HW156609   5.103   4.364   4.044 -1.3268 -0.5543  0.9707
18677SOL    HW256610   5.001   4.358   3.933 -0.7898 -0.3354  0.4604
18678SOL     OW56611   1.299   9.598   3.473 -0.3827  0.3427  0.0348
18678SOL    HW156612   1.390   9.604   3.504 -0.4804  2.1631  0.1040
18678SOL    HW256613   1.300   9.528   3.408  0.5457 -1.2795  1.6907
18679SOL     OW56614   7.498   9.936   3.949 -0.3330  0.1351 -0.2514
18679SOL    HW156615   7.578   9.912   3.996  0.0043 -0.3036 -1.0254
18679SOL    HW256616   7.507  10.030   3.933 -0.8129  0.4645  1.2004
18680SOL     OW56617   0.580   8.975   6.979  0.0491  0.0304 -0.2439
18680SOL    HW156618   0.499   8.956   7.026  0.0168 -0.4652 -0.4922
18680SOL    HW256619   0.611   8.889   6.949  0.6180  0.2270 -0.2266
18681SOL     OW56620   3.024   6.093   1.667 -0.5458 -0.3065  0.1826
18681SOL    HW156621   3.082   6.154   1.712 -1.4805 -1.4070  3.0808
18681SOL    HW256622   3.077   6.015   1.652 -0.0360  0.2925 -1.4041
18682SOL     OW56623   2.790   8.300   3.189  0.3222  0.1089  0.2249
18682SOL    HW156624   2.859   8.346   3.238  1.5636 -0.8959 -0.5119
18682SOL    HW256625   2.836   8.258   3.116 -0.9759 -1.1170  0.0656
18683SOL     OW56626   8.042   9.211   8.349 -0.1933  0.3661 -0.2360
18683SOL    HW156627   8.005   9.283   8.298 -2.3341 -1.6606 -1.7475
18683SOL    HW256628   8.004   9.221   8.436  0.0618  1.3842 -0.2214
18684SOL     OW56629   6.669   9.930   0.811  0.2326 -0.2152  0.5798
18684SOL    HW156630   6.625   9.926   0.727  1.8099  0.9769 -0.3696
18684SOL    HW256631   6.642  10.014   0.849 -0.7273 -0.8935  1.4352
18685SOL     OW56632   5.068   3.509   1.732 -0.5084 -0.3145 -0.4828
18685SOL    HW156633   5.123   3.508   1.654  0.8426  0.6862  0.4147
18685SOL    HW256634   5.012   3.586   1.721  0.0139  0.1006 -0.2491
18686SOL     OW56635   3.605   2.895   5.798 -0.0520  0.5339  0.4797
18686SOL    HW156636   3.627   2.812   5.839 -0.7294  0.2288  0.2328
18686SOL    HW256637   3.688   2.929   5.765  0.1751 -0.2023  0.2833
18687SOL     OW56638   6.322   5.499   3.820  0.1602  0.2273  0.5886
18687SOL    HW156639   6.309   5.530   3.909  0.0363 -0.5174  0.8376
18687SOL    HW256640   6.397   5.440   3.826  0.0685  0.0696  0.2264
18688SOL     OW56641   8.531   7.635   0.176  0.1286 -0.3384 -0.4696
18688SOL    HW156642   8.452   7.582   0.191 -0.0407  0.2290  0.7769
18688SOL    HW256643   8.498   7.715   0.134  0.2446 -0.7220 -1.3181
18689SOL     OW56644   8.638   7.668   2.336 -0.4425  0.6994  0.4217
18689SOL    HW156645   8.639   7.764   2.337 -0.8823  0.7205 -0.1770
18689SOL    HW256646   8.631   7.643   2.428 -3.1246  1.3228  0.4942
18690SOL     OW56647   3.540   4.692   4.179  0.2209  0.2581  0.7933
18690SOL    HW156648   3.559   4.687   4.085 -1.2422  0.7587  0.4429
18690SOL    HW256649   3.486   4.615   4.197 -0.2182  0.6133  1.0271
18691SOL     OW56650   9.217   6.494   4.659  0.3627  0.6188 -0.2565
18691SOL    HW156651   9.143   6.551   4.636 -0.3084 -0.5326 -1.0615
18691SOL    HW256652   9.242   6.521   4.748  0.5690  2.6605 -0.8862
18692SOL     OW56653   6.072   6.807   8.316  0.2085  0.2419  0.1976
18692SOL    HW156654   5.989   6.803   8.364  0.0010  1.2456 -0.0710
18692SOL    HW256655   6.067   6.887   8.264  0.0326 -1.2198 -2.2210
18693SOL     OW56656   2.589   3.897   9.377  0.3154 -0.0752 -0.6210
18693SOL    HW156657   2.631   3.825   9.331  0.5494  0.1261 -0.7278
18693SOL    HW256658   2.502   3.864   9.400 -0.2161  0.1797 -2.1521
18694SOL     OW56659   2.595   8.223   9.597 -0.0208 -0.7323 -0.4067
18694SOL    HW156660   2.642   8.227   9.681  1.8240 -2.0244 -1.2989
18694SOL    HW256661   2.609   8.309   9.558 -0.8068 -0.1519  0.5371
18695SOL     OW56662   3.154   9.243   3.343  0.3931 -0.3323 -0.1426
18695SOL    HW156663   3.164   9.320   3.287  0.3211 -0.0014  0.2889
18695SOL    HW256664   3.061   9.221   3.337  0.3159 -0.0828  0.1209
18696SOL     OW56665   6.875   3.392   4.752  0.4843  0.5765 -0.2290
18696SOL    HW156666   6.883   3.345   4.669  0.0888  2.7150 -1.5297
18696SOL    HW256667   6.870   3.484   4.728 -0.8090  1.2020  2.1014
18697SOL     OW56668   3.809   8.557   9.443  0.1672  0.5684  1.0066
18697SOL    HW156669   3.762   8.474   9.446 -0.4188  0.8819  0.6552
18697SOL    HW256670   3.769   8.610   9.511 -0.4985  1.0951  0.2175
18698SOL     OW56671   6.931   9.033   7.136  0.1823  0.5097  0.1640
18698SOL    HW156672   6.914   9.096   7.206 -1.2088  0.2130  0.1303
18698SOL    HW256673   6.844   9.013   7.101  0.7933  0.1668 -1.2256
18699SOL     OW56674   6.976   0.392   6.756 -0.1044 -0.1491  0.4154
18699SOL    HW156675   6.997   0.383   6.849  0.1142 -2.1588  0.2117
18699SOL    HW256676   7.034   0.331   6.712 -1.5617 -0.6804 -0.8512
18700SOL     OW56677   1.296   0.435   7.011  0.3999  0.4921 -0.5521
18700SOL    HW156678   1.227   0.447   6.945  0.6303  0.4233 -0.8065
18700SOL    HW256679   1.360   0.503   6.992  0.8312  0.0045 -0.8668
18701SOL     OW56680   3.064   4.980   7.083 -0.0210 -0.1519 -0.0305
18701SOL    HW156681   3.043   4.971   7.175 -0.5258  1.6665  0.0709
18701SOL    HW256682   3.049   5.073   7.064  2.7158  0.1259 -1.2642
18702SOL     OW56683   7.313   1.997   6.173  0.0127 -0.1277 -0.6127
18702SOL    HW156684   7.398   1.955   6.168  0.8533  1.2700  0.9213
18702SOL    HW256685   7.251   1.929   6.148  1.5281 -1.2996 -1.3581
18703SOL     OW56686   5.139   7.340   6.920  0.2971  0.3598  0.1762
18703SOL    HW156687   5.123   7.385   6.837 -0.8892  0.4892  0.4696
18703SOL    HW256688   5.062   7.359   6.973  0.8075 -0.1654  1.1225
18704SOL     OW56689   8.643   9.484   1.666 -0.1071  0.0833 -0.1674
18704SOL    HW156690   8.567   9.476   1.608  0.2643 -0.1447 -0.6290
18704SOL    HW256691   8.632   9.412   1.728 -0.9583  0.8376  0.5964
18705SOL     OW56692   3.241   6.231   3.707 -0.5619  0.4052 -0.3430
18705SOL    HW156693   3.255   6.312   3.660 -0.8487  0.7213  0.1089
18705SOL    HW256694   3.237   6.164   3.639 -1.3457  0.9011 -0.7968
18706SOL     OW56695   0.397   3.010   6.828  0.7003  0.1504 -0.0137
18706SOL    HW156696   0.468   3.069   6.853  0.9614 -0.5900  1.0819
18706SOL    HW256697   0.385   3.025   6.735  0.2951  2.4225  0.3383
18707SOL     OW56698   4.650   0.467   8.817  0.1551  0.2896  0.4085
18707SOL    HW156699   4.607   0.427   8.893  2.0075  0.4735  1.6154
18707SOL    HW256700   4.636   0.561   8.827  1.9832  0.4813  1.6212
18708SOL     OW56701   4.940   3.173   6.598  0.6803  0.3869 -0.0746
18708SOL    HW156702   4.894   3.223   6.530  0.3688  1.3681  0.8296
18708SOL    HW256703   4.880   3.175   6.672 -0.1143 -2.7805 -0.4956
18709SOL     OW56704   0.386   6.029   6.377 -0.3853 -0.4176 -0.1154
18709SOL    HW156705   0.336   5.964   6.328  0.1825 -1.4697  0.6515
18709SOL    HW256706   0.472   6.029   6.336 -0.3706 -0.1667 -0.0856
18710SOL     OW56707   9.927   7.559   8.793 -0.0852  0.3503 -0.5605
18710SOL    HW156708   9.993   7.619   8.759 -1.6661  1.7715 -1.2762
18710SOL    HW256709   9.918   7.492   8.725 -0.2173  0.8170 -1.0109
18711SOL     OW56710   0.036   2.215   1.428 -0.1324 -0.2775  0.1525
18711SOL    HW156711   0.023   2.303   1.462  0.7978  0.2849 -0.8562
18711SOL    HW256712  -0.051   2.188   1.396 -1.0009 -0.7851  2.7262
18712SOL     OW56713   0.756   5.831   4.930 -0.0846  0.2310 -0.0781
18712SOL    HW156714   0.746   5.745   4.890  0.2798  0.3013 -0.3197
18712SOL    HW256715   0.850   5.848   4.929 -0.1314  0.5267  0.1948
18713SOL     OW56716   4.241   0.380   3.696  0.3846  0.4688 -0.5929
18713SOL    HW156717   4.320   0.361   3.645 -0.3160 -1.6287 -1.0272
18713SOL    HW256718   4.249   0.472   3.720  4.6048 -0.3189  2.2234
18714SOL     OW56719   7.628   2.064   4.284 -0.1264  0.3475  0.1940
18714SOL    HW156720   7.549   2.082   4.335 -0.1430  1.7712 -0.2923
18714SOL    HW256721   7.640   2.142   4.230  0.4351 -0.7214 -1.2862
18715SOL     OW56722   6.010   0.270   0.713 -0.5189  0.1467  0.3410
18715SOL    HW156723   6.005   0.324   0.792  0.8335  1.7494 -0.6067
18715SOL    HW256724   6.077   0.205   0.732  1.7785  2.1731 -0.3250
18716SOL     OW56725   5.777   0.023   2.081  0.3194 -0.1885 -0.3074
18716SOL    HW156726   5.787   0.027   2.176  1.2645 -1.5851 -0.3322
18716SOL    HW256727   5.697  -0.028   2.068 -1.5906  2.5448 -0.2798
18717SOL     OW56728   2.941   1.971   5.299  0.2145  0.2857  0.3945
18717SOL    HW156729   3.009   1.905   5.309 -0.5715 -1.0133 -1.9739
18717SOL    HW256730   2.880   1.953   5.371  0.6717 -0.7403  0.5484
18718SOL     OW56731   6.020   7.818   7.194 -0.5181 -0.0836  0.5137
18718SOL    HW156732   6.054   7.731   7.170  0.3452  0.2292  0.5849
18718SOL    HW256733   6.085   7.879   7.160 -0.1713  0.4505  2.0617
18719SOL     OW56734   4.897   5.041   6.923  0.3886 -0.2209 -0.5879
18719SOL    HW156735   4.832   5.111   6.918  2.2727  1.5475 -2.3203
18719SOL    HW256736   4.871   4.979   6.855 -0.1694 -0.1660 -0.4258
18720SOL     OW56737   1.063   4.270   2.201  0.4096  0.0673  0.0590
18720SOL    HW156738   1.025   4.182   2.192  0.4945 -0.0103  0.4145
18720SOL    HW256739   0.988   4.329   2.191  0.5162  0.0089 -1.2385
18721SOL     OW56740   7.316   5.373   2.071 -0.2783 -0.1909  0.0174
18721SOL    HW156741   7.314   5.368   1.976 -1.5393 -0.1856  0.0207
18721SOL    HW256742   7.292   5.284   2.099 -3.0037  0.5493  0.2723
18722SOL     OW56743   1.324   2.181   8.610 -0.5767  0.0410 -0.6771
18722SOL    HW156744   1.393   2.155   8.672  1.6149 -0.4809 -3.1488
18722SOL    HW256745   1.278   2.252   8.655  2.5525  1.4916  0.5815
18723SOL     OW56746   5.433   2.012   1.768  0.3357 -0.3938  0.5491
18723SOL    HW156747   5.482   2.002   1.849  0.8552  0.2047  0.3163
18723SOL    HW256748   5.499   2.027   1.701 -0.1355  0.0138  0.1643
18724SOL     OW56749   6.314   7.967   9.515 -0.2209 -0.1140 -0.2720
18724SOL    HW156750   6.278   7.990   9.429 -0.1568  0.1190 -0.2364
18724SOL    HW256751   6.242   7.981   9.576 -0.0810  0.3213 -0.2045
18725SOL     OW56752   2.215   0.169   0.452  0.2078 -0.6770  0.3479
18725SOL    HW156753   2.203   0.242   0.513  1.3793  1.3571 -1.7131
18725SOL    HW256754   2.135   0.167   0.401  0.2820 -0.6747  0.2317
18726SOL     OW56755   9.062   1.964   4.120 -0.1749  0.5492  0.9353
18726SOL    HW156756   9.041   2.050   4.085  1.8283  0.5268 -0.5015
18726SOL    HW256757   9.110   1.920   4.050 -1.1421 -1.7635  1.6281
18727SOL     OW56758   8.339   8.498   7.982  0.4730  0.3350  0.4403
18727SOL    HW156759   8.350   8.504   8.077 -2.3742  0.1287  0.8612
18727SOL    HW256760   8.344   8.404   7.963 -0.9759  0.1718  0.7390
18728SOL     OW56761   6.237   6.004   5.496  0.3577 -0.7518 -0.1178
18728SOL    HW156762   6.267   5.948   5.567 -0.0369 -1.1475 -0.2525
18728SOL    HW256763   6.210   6.085   5.539  2.3162 -0.0825 -0.0808
18729SOL     OW56764   2.288   0.369   5.992  0.3461 -0.0659  0.1478
18729SOL    HW156765   2.250   0.402   5.911  0.3694  0.8352  0.4900
18729SOL    HW256766   2.304   0.448   6.044  1.3650 -0.5446  0.5761
18730SOL     OW56767   6.733   7.287   3.021  0.3872  0.2065  0.1575
18730SOL    HW156768   6.782   7.359   2.980  1.2894 -0.6169 -0.2304
18730SOL    HW256769   6.729   7.310   3.114  2.3009 -0.1279  0.3620
18731SOL     OW56770   6.510   0.960   6.796  0.7828 -0.3008 -0.2176
18731SOL    HW156771   6.601   0.941   6.773  1.2642  1.1902  0.3361
18731SOL    HW256772   6.515   1.001   6.883 -0.3280  0.5851 -0.5458
18732SOL     OW56773   5.957   4.100   9.828 -0.2566  0.6304  0.2582
18732SOL    HW156774   5.911   4.179   9.857  0.8937  1.8940 -1.2392
18732SOL    HW256775   6.008   4.073   9.905 -0.8577  1.1834  0.8682
18733SOL     OW56776   2.899   8.419   8.974  0.3509 -0.1403  0.1193
18733SOL    HW156777   2.880   8.386   9.062  1.4916 -0.4581  0.2682
18733SOL    HW256778   2.925   8.341   8.925  0.9371  0.2122 -0.1421
18734SOL     OW56779   7.391   3.391   3.070  0.4045 -0.2717  0.2221
18734SOL    HW156780   7.439   3.396   3.152  0.3088 -0.7950  0.3123
18734SOL    HW256781   7.421   3.467   3.020  2.0153 -1.0608 -0.0929
18735SOL     OW56782   8.579   5.040   5.027 -0.3790 -0.0906  0.1193
18735SOL    HW156783   8.656   5.035   4.970  0.2257 -1.4223  1.0191
18735SOL    HW256784   8.505   5.028   4.968  0.2935 -2.8022 -0.2770
18736SOL     OW56785   6.659   5.740   6.037 -0.5216  0.4049  0.2319
18736SOL    HW156786   6.648   5.672   6.104 -1.0065  1.2428  1.0151
18736SOL    HW256787   6.754   5.745   6.024 -0.3002  1.2957  1.9847
18737SOL     OW56788   9.436   7.225   0.839  0.0835  0.6269  0.0774
18737SOL    HW156789   9.388   7.181   0.769 -0.6641 -0.1284  1.0305
18737SOL    HW256790   9.480   7.155   0.886  1.2188  1.2038 -0.0943
18738SOL     OW56791   8.902   5.214   2.907 -0.4954  0.1076 -0.3639
18738SOL    HW156792   8.909   5.138   2.850 -0.2597  1.5298 -2.3325
18738SOL    HW256793   8.823   5.199   2.958 -0.5398 -1.3748 -0.8360
18739SOL     OW56794   2.254   9.521   4.153 -0.5991  0.3792 -0.0782
18739SOL    HW156795   2.253   9.615   4.168  0.3886  0.3318  0.3652
18739SOL    HW256796   2.233   9.512   4.060 -2.1732  0.9320  0.1828
18740SOL     OW56797   2.400   5.849   7.281  0.1202 -0.4408 -0.4578
18740SOL    HW156798   2.452   5.817   7.208  1.5204  1.8051 -0.5319
18740SOL    HW256799   2.450   5.824   7.359 -0.4821 -1.2939 -0.3290
18741SOL     OW56800   0.838   0.394   7.340 -0.0090 -0.3823  0.2563
18741SOL    HW156801   0.869   0.484   7.354  1.1545 -0.8752  1.0083
18741SOL    HW256802   0.912   0.349   7.301 -0.6249 -0.9983 -0.2229
18742SOL     OW56803   8.170   4.851   4.890  0.0326 -0.4926 -0.2583
18742SOL    HW156804   8.164   4.760   4.920 -0.5523 -0.1239  0.8143
18742SOL    HW256805   8.129   4.902   4.960 -0.2848  0.5415 -1.1664
18743SOL     OW56806   4.875   4.409   6.750  0.6658  0.0464 -0.1589
18743SOL    HW156807   4.947   4.392   6.689 -1.5749 -1.5061 -2.5849
18743SOL    HW256808   4.796   4.385   6.701 -1.6170  2.3324  2.0735
18744SOL     OW56809   2.511   8.358   3.489 -0.2678 -0.2978 -0.0509
18744SOL    HW156810   2.558   8.336   3.569  0.0236  2.9987  0.7992
18744SOL    HW256811   2.425   8.387   3.518 -0.8556 -0.8699 -1.1361
18745SOL     OW56812   2.230   8.607   2.845 -0.0491  0.3434  0.0690
18745SOL    HW156813   2.266   8.690   2.813 -1.4414  0.8599 -0.2159
18745SOL    HW256814   2.228   8.618   2.940  0.7283  0.2266  0.1028
18746SOL     OW56815   8.915   8.875   4.226  0.3008  0.7270  0.0000
18746SOL    HW156816   8.839   8.818   4.213  2.1729 -1.7486 -0.6920
18746SOL    HW256817   8.980   8.820   4.268  2.1449  2.4508 -0.4278
18747SOL     OW56818   2.333   8.091   3.036 -0.3031 -0.1006 -0.1392
18747SOL    HW156819   2.367   8.140   3.112  0.4794 -0.8719  0.0246
18747SOL    HW256820   2.409   8.082   2.979 -0.1087 -2.1222  0.3621
18748SOL     OW56821   4.210   8.525   2.227 -0.6574  0.2326 -0.3369
18748SOL    HW156822   4.143   8.472   2.269 -0.6918  0.1246 -0.5263
18748SOL    HW256823   4.178   8.615   2.233  0.3825  0.5144  1.8926
18749SOL     OW56824   6.752   2.748   2.360  0.2662  0.0656 -0.1684
18749SOL    HW156825   6.688   2.814   2.389  0.5072 -0.5565  1.9539
18749SOL    HW256826   6.733   2.736   2.267  0.0698  2.9604 -0.6132
18750SOL     OW56827   5.357   6.302   7.487 -0.2349 -0.0927  0.1902
18750SOL    HW156828   5.373   6.313   7.580  2.5785 -0.7976 -0.1067
18750SOL    HW256829   5.296   6.372   7.464  0.9238  1.6521  2.1110
18751SOL     OW56830   2.617   3.631   1.728 -0.5052  0.3865  0.1232
18751SOL    HW156831   2.541   3.577   1.706 -0.4651 -0.3615  1.7164
18751SOL    HW256832   2.683   3.604   1.664 -0.7887 -0.8078  0.3032
18752SOL     OW56833   1.049   7.549   8.564  0.0222  0.2441 -0.2643
18752SOL    HW156834   1.132   7.597   8.554  0.7946 -0.6556  1.4192
18752SOL    HW256835   1.033   7.549   8.658 -1.5401 -0.2258 -0.5083
18753SOL     OW56836   5.653   6.277   0.452 -0.0316  0.2313 -0.8153
18753SOL    HW156837   5.642   6.260   0.545  0.4071 -1.4063 -1.0283
18753SOL    HW256838   5.687   6.366   0.447  1.0871 -0.0720  0.6716
18754SOL     OW56839   2.854   3.747   6.122  0.2265 -0.0026  0.1675
18754SOL    HW156840   2.860   3.816   6.056  1.4697 -0.5022 -0.2706
18754SOL    HW256841   2.835   3.667   6.072 -2.1180  0.1362  0.7579
18755SOL     OW56842   8.097   1.144   5.622 -0.0894 -0.1483  0.5184
18755SOL    HW156843   8.186   1.133   5.657 -0.5058  1.0147  2.0738
18755SOL    HW256844   8.050   1.189   5.693 -1.0844  2.1149 -1.4453
18756SOL     OW56845   4.370   0.015   5.139  0.1161  0.1428 -0.3329
18756SOL    HW156846   4.384   0.103   5.175  1.1680 -0.3194  0.3969
18756SOL    HW256847   4.369   0.029   5.044  2.0728  0.7010 -0.3015
18757SOL     OW56848   7.434   2.721   3.359 -0.5478  0.3192 -0.0486
18757SOL    HW156849   7.415   2.670   3.438 -2.3766  0.9201 -0.0489
18757SOL    HW256850   7.508   2.776   3.383  0.6244 -1.3632  0.3659
18758SOL     OW56851   0.533   3.333   1.488 -0.0937 -0.1902  0.1670
18758SOL    HW156852   0.601   3.370   1.432 -0.0049 -1.1559 -0.3952
18758SOL    HW256853   0.468   3.403   1.497 -0.6082 -0.3025 -1.9968
18759SOL     OW56854   8.083   8.216   5.087 -0.3559 -0.2977  0.2658
18759SOL    HW156855   8.153   8.171   5.134 -1.5408 -0.2227  2.2229
18759SOL    HW256856   8.094   8.308   5.110 -0.0055 -0.0142 -0.9482
18760SOL     OW56857   4.576   8.281   5.995  0.0740  0.0031  0.2546
18760SOL    HW156858   4.582   8.360   6.049  0.8928 -0.1680  0.4298
18760SOL    HW256859   4.499   8.295   5.939 -1.3204 -0.1716  2.0215
18761SOL     OW56860   7.698   3.701   9.120  0.0221  0.1679  0.6746
18761SOL    HW156861   7.717   3.790   9.149  0.6561  0.6162 -1.0665
18761SOL    HW256862   7.604   3.691   9.136 -0.2384  1.4721  0.0304
18762SOL     OW56863   0.422   4.677   2.949  0.2923  0.6234 -0.6551
18762SOL    HW156864   0.454   4.687   2.859 -0.7387  0.2700 -1.0752
18762SOL    HW256865   0.345   4.734   2.953  0.1571  0.4030 -0.0847
18763SOL     OW56866   9.297   6.479   6.847 -0.2926  0.2807  0.0942
18763SOL    HW156867   9.269   6.512   6.933  0.6632 -0.7110  0.8230
18763SOL    HW256868   9.263   6.543   6.785  0.5923  2.0524  1.3493
18764SOL     OW56869   7.975   5.430   5.626 -0.4146 -0.1538  0.1560
18764SOL    HW156870   7.953   5.521   5.644  0.2044  0.5415 -2.2313
18764SOL    HW256871   8.063   5.418   5.661  0.4292  0.8961 -1.4803
18765SOL     OW56872   1.010   6.179   8.936 -0.8593  0.3054  0.3667
18765SOL    HW156873   0.997   6.189   9.030 -2.0592  0.6183  0.1884
18765SOL    HW256874   0.923   6.159   8.902 -0.2556 -0.8622 -0.5524
18766SOL     OW56875   7.717   5.664   7.100 -0.2984 -0.2133 -0.0734
18766SOL    HW156876   7.633   5.653   7.055  0.2424  1.2067 -1.5380
18766SOL    HW256877   7.757   5.740   7.057  1.6294 -0.6949  0.7657
18767SOL     OW56878   9.766   1.620   6.420  0.2530 -0.5856 -0.3433
18767SOL    HW156879   9.689   1.585   6.375  0.5182  2.4375 -3.6721
18767SOL    HW256880   9.840   1.582   6.373  0.6823 -0.5124  0.2685
18768SOL     OW56881   8.204   8.696   5.944 -0.3833 -0.2165  0.3084
18768SOL    HW156882   8.146   8.728   5.875  1.7631  0.1426 -1.4262
18768SOL    HW256883   8.177   8.743   6.022 -0.6214  2.0706 -1.0711
18769SOL     OW56884   1.089   2.703   3.146  0.3202 -0.1087  0.0054
18769SOL    HW156885   1.034   2.781   3.158  2.7111  1.6861  0.1464
18769SOL    HW256886   1.101   2.669   3.234 -0.5641 -0.5536 -0.0320
18770SOL     OW56887   5.367   9.955   9.870  0.2897 -0.4152  0.3138
18770SOL    HW156888   5.349  10.044   9.902  1.7063  0.6006 -1.4812
18770SOL    HW256889   5.356   9.899   9.947 -3.3141  0.8747  0.9556
18771SOL     OW56890   0.559   6.783   0.403 -0.5860 -0.3336  0.0348
18771SOL    HW156891   0.625   6.849   0.421  1.1991 -2.1551  0.5903
18771SOL    HW256892   0.606   6.714   0.356 -2.6970 -0.6177 -1.8500
18772SOL     OW56893   3.286   2.374   9.730 -0.4967  0.8404 -0.3070
18772SOL    HW156894   3.297   2.286   9.767  0.9615  0.7459 -0.8820
18772SOL    HW256895   3.242   2.424   9.799  2.5802  0.8313  1.9213
18773SOL     OW56896   4.958   4.028   9.380 -0.2396  0.5314  0.1696
18773SOL    HW156897   5.041   4.076   9.371  0.5324 -1.0145 -1.5098
18773SOL    HW256898   4.918   4.064   9.460  1.0107  2.8320 -0.1476
18774SOL     OW56899   5.789   6.310   6.440  0.6053  0.2207 -0.2499
18774SOL    HW156900   5.792   6.263   6.523 -0.0114 -0.9637 -0.8548
18774SOL    HW256901   5.865   6.279   6.391  0.8060  0.6899 -0.2409
18775SOL     OW56902   5.766   8.203   1.893  0.2994 -0.0518 -0.9321
18775SOL    HW156903   5.854   8.239   1.907 -0.1866  1.4319 -1.5124
18775SOL    HW256904   5.734   8.185   1.981  0.9463  0.0035 -0.6779
18776SOL     OW56905   6.152   3.566   2.043 -0.2496  0.5380  0.4099
18776SOL    HW156906   6.210   3.622   2.094 -0.5544  0.8488  0.4148
18776SOL    HW256907   6.094   3.527   2.108  0.6982 -0.6984  0.5596
18777SOL     OW56908   5.133   5.145   1.597 -0.1309  0.4810  0.0592
18777SOL    HW156909   5.074   5.160   1.671  1.0923  0.4988  1.0593
18777SOL    HW256910   5.220   5.138   1.636  0.5527  0.4933 -1.3856
18778SOL     OW56911   8.570   0.154   9.159 -0.6414 -0.1432  0.7890
18778SOL    HW156912   8.544   0.137   9.068  0.7411  0.2094  0.3033
18778SOL    HW256913   8.573   0.067   9.200 -2.4673 -0.2001  0.8630
18779SOL     OW56914   0.052   1.994   0.094 -0.2934  0.8220  0.3070
18779SOL    HW156915  -0.035   2.023   0.119 -1.3234 -1.2224 -0.6374
18779SOL    HW256916   0.061   1.907   0.133  0.5675  0.2437 -1.0703
18780SOL     OW56917   1.205   7.206   5.813  0.0739  0.0270 -0.5982
18780SOL    HW156918   1.245   7.184   5.897 -0.9373 -0.8414 -0.3183
18780SOL    HW256919   1.169   7.293   5.826  0.3752  0.1119 -0.2998
18781SOL     OW56920   1.240   2.180   0.717  0.8354 -0.3389  0.2905
18781SOL    HW156921   1.184   2.255   0.693 -0.1592 -0.5049  1.9112
18781SOL    HW256922   1.327   2.218   0.728  0.6672  0.2873 -0.3903
18782SOL     OW56923   7.782   4.773   6.621 -0.3923 -0.4388  0.6123
18782SOL    HW156924   7.840   4.818   6.559 -0.0222 -1.2215  0.3857
18782SOL    HW256925   7.841   4.735   6.685 -0.6887 -0.7852  0.6819
18783SOL     OW56926   0.925   2.330   2.925 -0.7565 -0.1021  0.0543
18783SOL    HW156927   0.917   2.261   2.992 -0.4460 -1.0363 -0.8384
18783SOL    HW256928   0.989   2.391   2.961 -0.3069 -0.7945  0.4582
18784SOL     OW56929   2.743   1.221   2.390 -0.2619 -0.3244 -0.0413
18784SOL    HW156930   2.761   1.147   2.331 -0.3132 -1.4942  1.3386
18784SOL    HW256931   2.803   1.207   2.463  0.5612  1.7020 -0.2790
18785SOL     OW56932   3.382   0.397   3.877 -0.2800 -0.3195  0.1007
18785SOL    HW156933   3.456   0.440   3.834  1.3648 -0.5496  2.4990
18785SOL    HW256934   3.421   0.349   3.949 -2.5453 -2.5069 -0.0038
18786SOL     OW56935   8.831   0.938   0.158 -0.3063  0.3342  0.2745
18786SOL    HW156936   8.761   0.912   0.217 -0.2523  0.7416  0.5299
18786SOL    HW256937   8.868   0.856   0.125  0.8237  0.0112  2.1805
18787SOL     OW56938   0.566   8.010   1.055  0.0590  0.0290  0.2646
18787SOL    HW156939   0.651   8.050   1.077 -0.1769 -0.2537  1.8184
18787SOL    HW256940   0.573   7.921   1.089 -0.4819 -0.3252 -0.5474
18788SOL     OW56941   9.922   2.371   4.078  0.0864 -0.3496 -0.1701
18788SOL    HW156942  10.006   2.375   4.124  0.1621  0.8112 -0.3840
18788SOL    HW256943   9.937   2.419   3.997 -0.5405 -0.8896 -0.6122
18789SOL     OW56944   9.250   7.605   6.410  0.0324 -0.0363  1.3126
18789SOL    HW156945   9.268   7.529   6.354  0.3241  0.2128  1.0653
18789SOL    HW256946   9.178   7.650   6.367  1.7387  1.4366 -0.1618
18790SOL     OW56947   0.221   0.379   2.823 -0.0093  0.0190 -0.5773
18790SOL    HW156948   0.312   0.386   2.855 -0.8025  0.6075  1.7868
18790SOL    HW256949   0.194   0.291   2.850 -0.5123  0.3077 -0.1169
18791SOL     OW56950   0.171   2.675   0.629  0.0729  0.0133  0.2988
18791SOL    HW156951   0.230   2.617   0.677 -0.4462 -1.8038 -1.1443
18791SOL    HW256952   0.094   2.622   0.611 -0.0099  0.7882 -1.9498
18792SOL     OW56953   5.610   0.809   5.336 -0.5916 -0.2018  0.1938
18792SOL    HW156954   5.610   0.898   5.302 -0.1938 -0.1269  0.3794
18792SOL    HW256955   5.557   0.814   5.416 -0.2258 -0.0376  0.4311
18793SOL     OW56956   6.556   2.088   6.897 -0.3237 -0.5193 -0.3653
18793SOL    HW156957   6.505   2.051   6.825 -1.2126  0.1930 -0.1121
18793SOL    HW256958   6.559   2.019   6.963 -0.7127 -0.6628 -0.4995
18794SOL     OW56959   1.050   0.940   7.030 -0.4443  0.1168  0.5371
18794SOL    HW156960   1.047   0.895   6.945  0.7500 -2.1504  1.6111
18794SOL    HW256961   1.139   0.974   7.035 -0.2489 -0.4647  1.1941
18795SOL     OW56962   6.694   5.780   2.245 -1.1178 -0.3218  0.4017
18795SOL    HW156963   6.709   5.743   2.158 -1.2854  1.5042 -0.4519
18795SOL    HW256964   6.765   5.746   2.299  0.8719  0.9631 -1.2587
18796SOL     OW56965   4.922   9.711   4.229 -0.0489  0.0590  0.1910
18796SOL    HW156966   4.911   9.668   4.144 -0.3578 -1.3106  0.8912
18796SOL    HW256967   4.918   9.639   4.293  0.7642  0.9883  1.3270
18797SOL     OW56968   4.112   4.105   3.554 -0.0312  0.9167 -0.2842
18797SOL    HW156969   4.139   4.170   3.489 -0.1770  0.0901 -1.1912
18797SOL    HW256970   4.018   4.093   3.538 -0.1666  1.0440  0.3893
18798SOL     OW56971   8.228   9.255   5.836  0.4706 -0.0777  0.7467
18798SOL    HW156972   8.297   9.233   5.898  1.7842  0.1696 -0.5519
18798SOL    HW256973   8.198   9.171   5.803  1.7215 -0.1868 -0.2521
18799SOL     OW56974   8.683   3.612   5.334 -0.2672  0.0489 -0.6208
18799SOL    HW156975   8.652   3.523   5.348  0.8813 -0.3706 -0.6124
18799SOL    HW256976   8.655   3.660   5.412 -1.2491 -0.1974 -0.8135
18800SOL     OW56977   4.850   3.998   2.788 -0.5362  0.5631  0.2619
18800SOL    HW156978   4.848   3.928   2.854 -1.3053  0.7100  0.4099
18800SOL    HW256979   4.938   4.036   2.795  0.1587 -0.8682 -0.3427
18801SOL     OW56980   6.042   6.525   3.115  0.5558  0.8752  0.4634
18801SOL    HW156981   5.972   6.508   3.052 -1.4738  3.2474  1.9100
18801SOL    HW256982   6.013   6.480   3.195  0.9889  1.3655  0.8993
18802SOL     OW56983   7.982   3.583   6.980 -0.1378  0.2536 -0.7926
18802SOL    HW156984   8.054   3.524   6.955 -0.7478 -0.7798 -0.1936
18802SOL    HW256985   7.922   3.580   6.905 -0.5001 -0.4541 -0.4865
18803SOL     OW56986   5.984   6.473   0.166 -0.2495 -0.0695 -0.0026
18803SOL    HW156987   6.013   6.560   0.138  0.0630 -0.0815  0.2699
18803SOL    HW256988   5.900   6.487   0.209  0.1318  0.1996  0.6695
18804SOL     OW56989   5.282   0.614   1.872  0.0136  0.3722 -0.7016
18804SOL    HW156990   5.207   0.656   1.830 -0.3677  0.7876  0.3654
18804SOL    HW256991   5.340   0.687   1.895  0.4530  0.1030 -0.9333
18805SOL     OW56992   7.444   0.601   3.346 -0.0998  0.2733  0.0080
18805SOL    HW156993   7.506   0.652   3.398  0.2863  0.9208 -1.0748
18805SOL    HW256994   7.363   0.604   3.397  0.7889 -0.7926  1.5616
18806SOL     OW56995   7.310   6.877   8.974  0.1239 -0.2970  1.1011
18806SOL    HW156996   7.355   6.888   9.057  0.6003  1.2660  0.6621
18806SOL    HW256997   7.380   6.862   8.910 -0.0389  0.8372  0.6269
18807SOL     OW56998   0.192   2.421   8.545  0.1005 -0.0009  0.2691
18807SOL    HW156999   0.127   2.434   8.614 -2.3375  2.8558 -2.2723
18807SOL    HW257000   0.180   2.331   8.517 -2.9780  0.4632 -0.1957
18808SOL     OW57001   5.747   3.893   8.801  0.1024  0.3933  0.1008
18808SOL    HW157002   5.701   3.877   8.719  1.8479  0.3043 -0.9193
18808SOL    HW257003   5.752   3.989   8.807 -0.0458  0.4001  0.1112
18809SOL     OW57004   8.123   5.303   7.049 -0.2959  0.0598  0.0570
18809SOL    HW157005   8.138   5.305   7.144 -1.7246  1.0610  0.2931
18809SOL    HW257006   8.031   5.326   7.039 -0.0953  0.2299 -1.6016
18810SOL     OW57007   5.630   6.391   9.834 -0.2819  0.1459  0.2871
18810SOL    HW157008   5.572   6.464   9.810  0.3449  0.0748 -1.6668
18810SOL    HW257009   5.715   6.433   9.847 -0.0197 -0.1612 -0.3913
18811SOL     OW57010   6.855   4.367   5.655 -0.3287  0.7654 -0.4556
18811SOL    HW157011   6.839   4.353   5.562  0.4808  0.0246 -0.4948
18811SOL    HW257012   6.891   4.284   5.686 -0.7483  0.9451  0.5639
18812SOL     OW57013   9.151   3.107   5.238  0.0972  0.0266 -0.2342
18812SOL    HW157014   9.129   3.143   5.324  1.1667  0.6385 -0.2020
18812SOL    HW257015   9.120   3.017   5.241  0.7073 -0.1570  1.0357
18813SOL     OW57016   6.680   6.526   8.505 -0.3801  0.2479 -0.0143
18813SOL    HW157017   6.643   6.474   8.434  0.1970  0.2500 -0.3282
18813SOL    HW257018   6.647   6.486   8.585 -0.3831 -0.2578 -0.2686
18814SOL     OW57019   8.116   7.234   0.583 -0.0856  0.5386 -0.5597
18814SOL    HW157020   8.118   7.321   0.543 -0.8831  0.4747 -0.7447
18814SOL    HW257021   8.082   7.176   0.514 -1.5692  0.4396  0.2133
18815SOL     OW57022   5.986   9.935   7.639 -0.5012 -0.2651  0.2727
18815SOL    HW157023   6.008   9.909   7.550 -0.7590  0.5865 -0.0504
18815SOL    HW257024   6.064   9.914   7.690 -0.7268 -1.7498  0.0656
18816SOL     OW57025   7.365   0.585   1.774 -0.4202 -0.1190 -0.1321
18816SOL    HW157026   7.362   0.650   1.844 -0.3351 -0.5051  0.2343
18816SOL    HW257027   7.416   0.627   1.705  2.9586 -1.1240  1.5312
18817SOL     OW57028   1.730   3.816   1.162 -0.2032 -0.2472 -0.0601
18817SOL    HW157029   1.645   3.848   1.192 -0.5192  0.9412 -2.0429
18817SOL    HW257030   1.779   3.799   1.243 -1.4768  1.3909  1.1331
18818SOL     OW57031   2.218   7.457   2.870  0.3426 -0.2975 -0.7864
18818SOL    HW157032   2.165   7.446   2.791 -0.0142  1.7256 -0.8933
18818SOL    HW257033   2.271   7.535   2.853  0.4856  0.0031  0.8280
18819SOL     OW57034   3.018   2.887   0.706  0.1630  0.6987 -0.0987
18819SOL    HW157035   2.960   2.888   0.630 -0.7168  0.0678  0.5323
18819SOL    HW257036   3.089   2.828   0.681  0.6401  1.6189 -0.9493
18820SOL     OW57037   1.293   5.407   2.206 -0.2628  0.0197 -0.4436
18820SOL    HW157038   1.230   5.336   2.211 -0.8933  0.6236  0.9251
18820SOL    HW257039   1.325   5.405   2.116 -2.1251 -0.4095 -1.1419
18821SOL     OW57040   6.596   8.334   1.561  0.2214  0.6149 -0.0541
18821SOL    HW157041   6.641   8.262   1.517  0.5668  0.9374 -0.2403
18821SOL    HW257042   6.567   8.298   1.644  0.9599  0.4410  0.1320
18822SOL     OW57043   8.757   0.566   4.992  0.2130 -0.0193 -0.4527
18822SOL    HW157044   8.787   0.601   5.075  0.9197 -1.9730  0.1721
18822SOL    HW257045   8.836   0.557   4.939 -0.2562  1.4156 -1.4742
18823SOL     OW57046   8.477   8.825   1.825  0.5864  0.7839  0.5945
18823SOL    HW157047   8.439   8.749   1.781 -0.0748  0.4028  1.7744
18823SOL    HW257048   8.559   8.842   1.779  0.2255  0.0101 -0.3487
18824SOL     OW57049   1.195   6.376   4.917 -0.0582  0.3371 -0.5468
18824SOL    HW157050   1.242   6.448   4.875  1.8857  0.7325  2.0714
18824SOL    HW257051   1.195   6.397   5.010  0.3763 -2.8762  0.3240
18825SOL     OW57052   3.693   3.817   0.875 -0.2387  0.4048  0.2087
18825SOL    HW157053   3.703   3.748   0.941 -0.6360 -0.4750 -0.6181
18825SOL    HW257054   3.659   3.771   0.798 -0.2756  1.4947 -0.4438
18826SOL     OW57055   3.024   6.932   1.226 -0.2474 -0.0393 -0.2819
18826SOL    HW157056   3.013   6.837   1.239 -1.6505  0.3685  1.9827
18826SOL    HW257057   3.119   6.946   1.232 -0.0154 -1.2882 -0.7121
18827SOL     OW57058   5.872   4.295   2.410  0.1886 -0.2111 -0.2321
18827SOL    HW157059   5.956   4.335   2.388 -0.6807  1.8479 -0.0176
18827SOL    HW257060   5.841   4.258   2.328  1.9103 -2.3537 -0.0352
18828SOL     OW57061   5.340   7.664   0.350  0.0241 -0.5422  0.4486
18828SOL    HW157062   5.261   7.717   0.358  0.3783  0.1937 -0.7318
18828SOL    HW257063   5.410   7.719   0.385  0.4204 -0.1508 -0.9303
18829SOL     OW57064   1.421   5.917   2.705 -0.4856 -0.2061  0.2020
18829SOL    HW157065   1.409   6.009   2.727 -1.7344 -0.1505 -0.6423
18829SOL    HW257066   1.379   5.906   2.620 -0.4774 -1.5843  0.3504
18830SOL     OW57067   5.103   0.319   7.764  0.2913  0.0936 -0.7096
18830SOL    HW157068   5.136   0.233   7.737 -0.3091  0.0333 -1.2719
18830SOL    HW257069   5.173   0.355   7.819  0.5486 -0.7497 -0.4642
18831SOL     OW57070   3.657   8.034   7.998  0.2366  0.1829  0.1567
18831SOL    HW157071   3.704   8.106   8.040  0.0258  0.9918 -0.9621
18831SOL    HW257072   3.574   8.072   7.972 -0.2141 -0.6987  0.2801
18832SOL     OW57073   5.379   2.970   8.277 -0.1136  0.2386 -0.4130
18832SOL    HW157074   5.297   2.972   8.227 -0.6447  0.5271  0.4445
18832SOL    HW257075   5.448   2.983   8.211 -0.8802  2.5361 -0.8719
18833SOL     OW57076   5.469   4.270   3.769 -0.0939 -0.2640 -0.2712
18833SOL    HW157077   5.396   4.210   3.753 -0.1476 -0.7002  1.4369
18833SOL    HW257078   5.428   4.357   3.770 -0.4873 -0.4467 -0.0175
18834SOL     OW57079   8.515   4.457   3.564  0.2608 -0.7390  0.1876
18834SOL    HW157080   8.443   4.517   3.543  1.4758  1.0798  1.0008
18834SOL    HW257081   8.574   4.463   3.489 -0.5195 -2.4837 -0.6351
18835SOL     OW57082   4.522   7.649   2.670 -0.3236 -0.5060 -0.4178
18835SOL    HW157083   4.529   7.689   2.583  0.5308 -2.4514 -1.2993
18835SOL    HW257084   4.446   7.592   2.663 -0.7413 -0.0538  0.3930
18836SOL     OW57085   9.685   3.922   9.631 -0.5744 -0.5694 -0.6836
18836SOL    HW157086   9.767   3.873   9.630 -0.8779 -1.1288 -2.8081
18836SOL    HW257087   9.706   4.005   9.587 -0.9501 -0.3487 -0.4574
18837SOL     OW57088   0.721   7.800   0.869  0.1357 -0.5051  0.3707
18837SOL    HW157089   0.659   7.738   0.832  0.5503 -1.6622  1.5250
18837SOL    HW257090   0.703   7.799   0.963  0.9381  0.2314  0.5463
18838SOL     OW57091   3.497   2.050   4.384  0.1496  0.6708 -0.1666
18838SOL    HW157092   3.453   1.966   4.388 -0.2342  0.8832  0.1104
18838SOL    HW257093   3.461   2.093   4.306  0.1086  0.7101 -0.1261
18839SOL     OW57094   2.398   6.195   6.542  0.2006 -0.3993 -0.2131
18839SOL    HW157095   2.338   6.234   6.479 -0.9604  0.7396  1.4965
18839SOL    HW257096   2.356   6.114   6.570 -0.9053  0.6512  1.3694
18840SOL     OW57097   7.062   2.882   7.327  0.2952 -0.3407  0.3551
18840SOL    HW157098   7.022   2.927   7.402  1.2252 -0.1670  0.7583
18840SOL    HW257099   7.037   2.936   7.252  1.4593  0.9337  0.8399
18841SOL     OW57100   1.727   9.322   8.043  0.1419 -0.0179 -0.0216
18841SOL    HW157101   1.724   9.232   8.075  1.4074  0.0396  0.2906
18841SOL    HW257102   1.808   9.358   8.078  1.1211  0.3399 -2.4673
18842SOL     OW57103   5.232   6.348   6.906  0.3952 -0.0732  0.4349
18842SOL    HW157104   5.208   6.282   6.970 -0.8114  0.0531  0.1273
18842SOL    HW257105   5.226   6.431   6.953 -2.8530  0.2884 -0.3470
18843SOL     OW57106   1.591   0.900   0.400 -0.2870 -0.0057 -0.7052
18843SOL    HW157107   1.587   0.806   0.419  0.9234 -0.3209 -1.8253
18843SOL    HW257108   1.560   0.907   0.309  1.0942  0.4594 -1.1615
18844SOL     OW57109   6.121   0.260   8.208  0.2763 -0.3529  0.5184
18844SOL    HW157110   6.067   0.205   8.265  0.6168 -0.3830  0.8210
18844SOL    HW257111   6.198   0.281   8.262  0.2155  0.3016  0.3556
18845SOL     OW57112   4.388   4.798   3.234  0.0229  0.0814 -0.0103
18845SOL    HW157113   4.407   4.709   3.261 -1.1707  0.5154  2.5569
18845SOL    HW257114   4.347   4.838   3.311 -0.3016  2.5721 -1.3816
18846SOL     OW57115   5.440   9.623   1.844 -0.1774  0.0974  0.0470
18846SOL    HW157116   5.357   9.636   1.890  0.3081 -0.0114  0.9794
18846SOL    HW257117   5.489   9.563   1.900  0.9232  0.9305 -0.0028
18847SOL     OW57118   3.271   4.242   9.372  0.1711 -0.4654  0.0257
18847SOL    HW157119   3.284   4.242   9.467 -0.9286 -0.0066  0.2022
18847SOL    HW257120   3.257   4.150   9.349 -0.3962 -0.4968  0.4559
18848SOL     OW57121   7.206   3.457   3.511 -0.5371 -0.1412  0.3891
18848SOL    HW157122   7.118   3.495   3.520 -0.4975 -0.0191  0.2679
18848SOL    HW257123   7.263   3.533   3.500 -0.0416 -0.0221  3.0807
18849SOL     OW57124   3.202   2.728   7.699 -0.0396  0.2596  0.0423
18849SOL    HW157125   3.233   2.787   7.631  0.3485  1.9002  1.5587
18849SOL    HW257126   3.281   2.680   7.726  0.4223  1.5940  1.1813
18850SOL     OW57127   7.082   5.963   0.026 -0.3526 -0.0324  0.2670
18850SOL    HW157128   6.991   5.990   0.036 -0.7519 -1.7202  1.8351
18850SOL    HW257129   7.105   5.927   0.111  1.7172  0.1312 -0.1863
18851SOL     OW57130   4.767   4.927   4.101 -0.7060  0.0505  0.7269
18851SOL    HW157131   4.842   4.870   4.119  1.6179  2.2893 -1.1550
18851SOL    HW257132   4.734   4.898   4.016  1.4179  2.2117 -0.9671
18852SOL     OW57133   9.743   4.989   9.861  0.6111  0.2071  0.2148
18852SOL    HW157134   9.700   4.913   9.823 -0.7355  1.0466 -0.0537
18852SOL    HW257135   9.822   4.955   9.903  0.4076 -1.2096 -0.5010
18853SOL     OW57136   9.742   3.845   1.473  0.2433  0.5587 -0.3243
18853SOL    HW157137   9.815   3.796   1.435  0.3638 -1.4424  2.2089
18853SOL    HW257138   9.670   3.833   1.412  1.2076  0.0335 -1.3856
18854SOL     OW57139   2.593   9.779   7.708 -0.1182 -0.2663  0.5666
18854SOL    HW157140   2.604   9.692   7.669 -1.3672 -0.4532  0.6167
18854SOL    HW257141   2.578   9.837   7.634 -1.2588 -0.4255  0.6527
18855SOL     OW57142   9.079   6.428   2.110  0.1976  0.2331 -0.6848
18855SOL    HW157143   9.163   6.432   2.156  0.3239 -1.3409 -0.7436
18855SOL    HW257144   9.071   6.337   2.082 -1.3109  0.4732 -1.1060
18856SOL     OW57145   0.077   8.715   0.695  0.1497  0.3344 -0.1818
18856SOL    HW157146   0.039   8.628   0.705 -0.0349  0.1751 -1.9973
18856SOL    HW257147   0.006   8.775   0.716 -0.0964  0.0450 -0.1817
18857SOL     OW57148   9.912   6.128   9.362 -0.2739  0.1530  0.2955
18857SOL    HW157149   9.867   6.164   9.286 -1.4433  0.5496  1.1517
18857SOL    HW257150   9.883   6.182   9.436 -1.0869 -1.7197  1.4127
18858SOL     OW57151   4.430   7.022   2.854 -0.1759 -0.5978  0.0325
18858SOL    HW157152   4.482   7.035   2.774 -1.0914 -0.8898 -0.6292
18858SOL    HW257153   4.485   7.055   2.925  1.6286 -2.3921 -0.4392
18859SOL     OW57154   4.334   4.644   9.852  0.3885 -0.1770 -0.0336
18859SOL    HW157155   4.411   4.592   9.829  0.3662  0.6606 -2.2968
18859SOL    HW257156   4.260   4.590   9.825  0.1979 -0.5210  1.1287
18860SOL     OW57157   2.212   2.339   2.482  0.0689 -0.0902  0.1391
18860SOL    HW157158   2.132   2.373   2.523  0.3523 -0.2976  0.8714
18860SOL    HW257159   2.187   2.252   2.451  0.5947 -1.1070  2.3694
18861SOL     OW57160   3.653   9.985   4.233  0.5223 -0.1732 -0.1375
18861SOL    HW157161   3.670   9.946   4.147 -0.0371 -0.5594 -0.0702
18861SOL    HW257162   3.717   9.944   4.291  0.0872 -0.8299 -0.1139
18862SOL     OW57163   0.748   7.472   1.039  0.1218  0.7193 -0.2777
18862SOL    HW157164   0.735   7.566   1.030 -1.2828  0.7031  1.2191
18862SOL    HW257165   0.664   7.433   1.017  0.1023 -0.0336  1.0276
18863SOL     OW57166   5.078   2.294   4.599  0.0709 -0.7148  0.3415
18863SOL    HW157167   5.009   2.360   4.595 -2.1600 -2.8474  0.8417
18863SOL    HW257168   5.127   2.306   4.518 -1.8009  0.0007 -0.7573
18864SOL     OW57169   8.788   3.592   0.921  0.3515  0.0686 -0.0597
18864SOL    HW157170   8.762   3.666   0.975 -1.8139 -0.5008 -0.2007
18864SOL    HW257171   8.858   3.549   0.970  1.0489  1.7033  0.4232
18865SOL     OW57172   6.423   6.831   0.426  0.1153 -0.2326  0.2420
18865SOL    HW157173   6.489   6.771   0.392  1.0519  1.0195 -0.2029
18865SOL    HW257174   6.340   6.798   0.390  0.8083 -0.2465 -1.4225
18866SOL     OW57175   6.124   0.905   8.635 -0.3073 -0.0150 -0.2199
18866SOL    HW157176   6.140   0.943   8.722 -2.7329  0.1302  0.2461
18866SOL    HW257177   6.077   0.823   8.654 -0.9036  0.0454 -1.4036
18867SOL     OW57178   7.410   1.780   7.379  0.2022 -0.2572  0.2186
18867SOL    HW157179   7.494   1.767   7.334  0.1681 -0.3341  0.1765
18867SOL    HW257180   7.428   1.847   7.445  0.5250 -0.8877  0.8014
18868SOL     OW57181   3.284   0.143   5.824  0.3363 -0.0020  0.4003
18868SOL    HW157182   3.263   0.236   5.812 -0.8585 -0.3741 -0.4954
18868SOL    HW257183   3.200   0.101   5.840  1.0811 -0.6094  3.3821
18869SOL     OW57184   0.918   2.077   8.692  0.0920  0.1279 -0.6302
18869SOL    HW157185   0.847   2.114   8.745  1.6054  1.6736  0.4353
18869SOL    HW257186   0.925   1.986   8.721 -0.8625  0.2099 -0.1105
18870SOL     OW57187   5.247   8.356   0.384  0.0472  0.0176  0.2769
18870SOL    HW157188   5.296   8.438   0.377 -1.0673  0.6625 -0.3912
18870SOL    HW257189   5.175   8.366   0.321 -0.5202 -1.1893  0.7007
18871SOL     OW57190   2.256   2.944   9.168 -0.3444  0.0477 -0.1628
18871SOL    HW157191   2.179   2.895   9.196 -1.1771  1.8184  0.8098
18871SOL    HW257192   2.289   2.985   9.248  2.0050 -1.1241 -0.4419
18872SOL     OW57193   4.976   1.833   3.275 -0.2245 -0.4114 -0.1247
18872SOL    HW157194   4.954   1.740   3.269  0.2410 -0.4684 -1.5036
18872SOL    HW257195   4.940   1.861   3.359  1.0335 -2.2038  1.0833
18873SOL     OW57196   5.998   6.469   4.909 -0.2389  1.0286 -0.5073
18873SOL    HW157197   6.081   6.431   4.881 -0.7700  0.3405 -1.1795
18873SOL    HW257198   6.021   6.556   4.941  0.3533  2.1525 -3.6401
18874SOL     OW57199   6.623   3.369   7.525 -0.0559 -0.2502 -0.0330
18874SOL    HW157200   6.556   3.315   7.567  0.1560 -0.5676 -0.1028
18874SOL    HW257201   6.685   3.389   7.596 -0.1710 -0.0426  0.0083
18875SOL     OW57202   3.107   1.357   5.996 -0.2122  0.0032  0.3044
18875SOL    HW157203   3.188   1.354   6.047 -0.0070  0.5638  0.0220
18875SOL    HW257204   3.087   1.265   5.977  1.4973 -0.0922 -1.3829
18876SOL     OW57205   3.907   9.838   3.067  0.5163 -0.2488  0.5117
18876SOL    HW157206   3.890   9.859   2.975 -1.0550 -0.0000  0.8167
18876SOL    HW257207   3.835   9.778   3.091 -0.0026  0.8846  1.9689
18877SOL     OW57208   1.728   6.084   6.630  0.0699  0.4546 -0.1748
18877SOL    HW157209   1.767   5.997   6.633 -0.0091  0.4261  1.7634
18877SOL    HW257210   1.642   6.073   6.671  0.0827  1.4355  0.1616
18878SOL     OW57211   7.539   9.657   4.269 -0.4005  0.2888  0.0828
18878SOL    HW157212   7.586   9.597   4.212 -2.0084 -0.0126 -0.9878
18878SOL    HW257213   7.593   9.664   4.347 -0.2187 -2.6555  0.3047
18879SOL     OW57214   7.912   9.845   6.671  0.0002 -0.3998 -0.1785
18879SOL    HW157215   7.855   9.876   6.601  0.5701 -2.4665 -1.6545
18879SOL    HW257216   7.894   9.904   6.744 -2.6241  0.1815 -1.1682
18880SOL     OW57217   7.814   6.648   4.890  0.3917 -0.0867 -0.0945
18880SOL    HW157218   7.846   6.639   4.800  1.3440 -2.7930  0.4252
18880SOL    HW257219   7.854   6.728   4.923  0.0399  0.9477 -2.0350
18881SOL     OW57220   7.666   1.847   6.804  0.1395 -0.0304 -0.0522
18881SOL    HW157221   7.631   1.924   6.759  0.5207  0.2170  0.0787
18881SOL    HW257222   7.599   1.779   6.789  0.5941 -0.1751 -1.6458
18882SOL     OW57223   6.999   5.941   9.721 -0.1276  0.0623 -0.0802
18882SOL    HW157224   7.072   5.888   9.751  0.5616  1.4704  0.8733
18882SOL    HW257225   6.921   5.896   9.755  0.2845 -1.2879 -0.8549
18883SOL     OW57226   8.704   0.728   9.349 -0.2556 -0.0438 -0.3592
18883SOL    HW157227   8.791   0.762   9.329 -0.2098  0.7119  1.0183
18883SOL    HW257228   8.644   0.799   9.326 -0.3411  0.1598  0.4622
18884SOL     OW57229   4.533   1.127   2.581  0.3764 -0.6056 -0.3860
18884SOL    HW157230   4.582   1.187   2.638 -0.4120 -0.1408 -0.1839
18884SOL    HW257231   4.574   1.042   2.595  0.2990 -0.4691  0.7797
18885SOL     OW57232   3.750   4.316   4.359 -0.1173  0.1763 -0.2906
18885SOL    HW157233   3.734   4.369   4.281  0.7003 -0.0481 -0.6163
18885SOL    HW257234   3.820   4.256   4.333  0.2842  0.2177  0.6624
18886SOL     OW57235   4.115   0.731   6.934  0.4784  0.4941 -0.0178
18886SOL    HW157236   4.105   0.807   6.992 -1.3580  1.3230 -1.3487
18886SOL    HW257237   4.197   0.748   6.887  0.9128  0.8237  0.8276
18887SOL     OW57238   6.962   1.203   5.832 -0.2370  0.3956  0.5220
18887SOL    HW157239   7.000   1.228   5.748 -0.6360 -1.3233 -0.2149
18887SOL    HW257240   7.035   1.205   5.894  0.7107 -1.1279 -0.4948
18888SOL     OW57241   8.574   8.339   7.578 -1.0658 -0.3346 -0.1886
18888SOL    HW157242   8.515   8.331   7.653 -0.7138 -2.5462 -0.0734
18888SOL    HW257243   8.565   8.255   7.532 -0.4109  0.5374 -1.9844
18889SOL     OW57244   6.556   0.408   8.961  0.7485  0.3975  0.0296
18889SOL    HW157245   6.634   0.457   8.933  0.9925 -0.6872 -1.2634
18889SOL    HW257246   6.581   0.316   8.951 -0.1699  0.0121  1.1250
18890SOL     OW57247   1.829   4.600   0.916  0.3740  0.3023 -0.0641
18890SOL    HW157248   1.819   4.688   0.879 -0.4352  0.2426 -0.0072
18890SOL    HW257249   1.757   4.550   0.878  0.9966 -0.4146 -0.3142
18891SOL     OW57250   6.030   6.428   7.199  0.1647 -0.1194  0.2561
18891SOL    HW157251   6.011   6.492   7.131  1.6453 -1.1878 -1.2457
18891SOL    HW257252   6.124   6.439   7.217 -0.2760  0.4160  2.4590
18892SOL     OW57253   1.665   3.822   5.779  0.3007  0.3582 -0.0461
18892SOL    HW157254   1.754   3.850   5.757 -0.2335  1.9829 -0.2672
18892SOL    HW257255   1.670   3.794   5.870  1.3876 -1.2163 -0.5651
18893SOL     OW57256   0.082   0.370   7.296  0.1258  0.3115 -0.6400
18893SOL    HW157257   0.162   0.423   7.302 -0.0828  0.5122  0.5191
18893SOL    HW257258   0.092   0.304   7.364  0.2069 -0.9263 -1.8190
18894SOL     OW57259   0.072   3.024   2.433 -0.1930 -0.0469  0.3039
18894SOL    HW157260   0.011   3.059   2.368 -1.2040 -1.8819  0.2098
18894SOL    HW257261   0.078   3.092   2.500  0.6053  1.7509 -1.4789
18895SOL     OW57262   0.465   9.597   8.850  0.5155  0.3596 -0.8422
18895SOL    HW157263   0.449   9.603   8.944 -0.5197  0.8088 -1.0396
18895SOL    HW257264   0.514   9.515   8.839  3.3422  1.7510  0.4194
18896SOL     OW57265   2.315   1.393   5.911 -0.5067  0.4992 -0.0373
18896SOL    HW157266   2.324   1.354   5.824  2.8632 -0.8933  0.7895
18896SOL    HW257267   2.360   1.477   5.904  2.0760 -0.7153  0.8765
18897SOL     OW57268   7.345   0.962   0.243 -0.2982  0.5360 -0.3331
18897SOL    HW157269   7.362   0.878   0.285  0.2650  1.1091  0.6076
18897SOL    HW257270   7.259   0.952   0.203 -0.8783 -0.0149  1.0139
18898SOL     OW57271   1.873   9.120   3.108 -0.0138  0.7438  0.1092
18898SOL    HW157272   1.874   9.069   3.026 -0.2001 -2.0357  1.7154
18898SOL    HW257273   1.951   9.175   3.103  0.0103  0.6115 -1.9049
18899SOL     OW57274   4.193   9.643   7.918 -0.3807  0.6711 -0.3444
18899SOL    HW157275   4.220   9.656   7.827  1.2417 -1.6273 -0.2838
18899SOL    HW257276   4.101   9.618   7.912 -0.1268 -0.1153 -1.4609
18900SOL     OW57277   9.579   1.573   1.698  0.0001 -0.0900  0.1125
18900SOL    HW157278   9.524   1.649   1.679 -1.2220 -0.9765 -0.0220
18900SOL    HW257279   9.654   1.582   1.640 -1.4529 -0.3787 -1.9198
18901SOL     OW57280   2.518   1.844   2.992 -0.1152 -0.7661  0.1264
18901SOL    HW157281   2.435   1.890   2.974 -0.7782 -1.5724  1.0146
18901SOL    HW257282   2.491   1.763   3.035  1.1087 -1.4181 -0.3024
18902SOL     OW57283   1.493   7.161   9.101  0.0871 -0.0038 -0.2345
18902SOL    HW157284   1.499   7.076   9.058  0.0928 -0.9272  1.5113
18902SOL    HW257285   1.517   7.144   9.192 -1.8155  1.4703  0.6161
18903SOL     OW57286   5.265   6.849   6.745  0.3454 -0.1688 -0.2704
18903SOL    HW157287   5.226   6.930   6.778 -2.3522 -1.6336  0.4099
18903SOL    HW257288   5.264   6.859   6.650 -1.9262 -0.1551 -0.3061
18904SOL     OW57289   9.218   0.995   0.992 -0.4488  0.2872 -0.2504
18904SOL    HW157290   9.305   0.955   0.993 -0.7672 -0.4125  0.2560
18904SOL    HW257291   9.158   0.921   0.985 -1.0111  0.7664 -0.6203
18905SOL     OW57292   6.754   2.685   3.915 -0.4071  0.3821  0.3957
18905SOL    HW157293   6.772   2.641   3.832  0.0639 -0.0340  0.7130
18905SOL    HW257294   6.814   2.759   3.916 -0.2927  0.2881  0.4457
18906SOL     OW57295   3.602   7.160   1.765 -0.0918 -0.0865  0.0416
18906SOL    HW157296   3.636   7.217   1.697 -0.5197 -0.2407 -0.3007
18906SOL    HW257297   3.668   7.165   1.835  0.4468 -0.0840 -0.4569
18907SOL     OW57298   9.010   1.409   5.248 -0.4415 -0.1165  0.1904
18907SOL    HW157299   8.940   1.358   5.289  0.8060 -1.2034  1.0917
18907SOL    HW257300   9.089   1.356   5.261  0.6627  1.3413 -0.2311
18908SOL     OW57301   2.047   7.297   9.513  0.1972 -0.2659  0.0888
18908SOL    HW157302   1.998   7.314   9.594  0.2215 -0.8968  0.2412
18908SOL    HW257303   1.982   7.301   9.444  0.4748  2.2644 -0.1317
18909SOL     OW57304   4.541   6.803   3.777 -0.0770  0.4117 -0.4789
18909SOL    HW157305   4.611   6.864   3.800 -0.8518  1.5729 -1.0854
18909SOL    HW257306   4.564   6.772   3.690  0.4366 -0.3779 -0.0792
18910SOL     OW57307   9.324   2.309   2.930 -0.7189  0.1429  0.0054
18910SOL    HW157308   9.401   2.274   2.975 -1.3519  0.9148  1.7813
18910SOL    HW257309   9.355   2.389   2.888  0.1897 -1.2355 -2.1567
18911SOL     OW57310   4.103   2.742   6.078 -0.1940  0.1641  0.5100
18911SOL    HW157311   4.189   2.703   6.061 -1.0533 -1.5766  0.0090
18911SOL    HW257312   4.116   2.791   6.160  1.2548 -0.0812  0.4613
18912SOL     OW57313   6.033   2.113   8.746  0.1409  0.0296 -0.3991
18912SOL    HW157314   5.987   2.048   8.694 -1.0293  0.5782 -0.0880
18912SOL    HW257315   5.975   2.130   8.820  1.8140 -0.8195  1.1736
18913SOL     OW57316   3.351   1.802   7.710 -0.0935 -0.3753 -0.0400
18913SOL    HW157317   3.441   1.787   7.738  0.2481  1.2162 -0.2140
18913SOL    HW257318   3.308   1.839   7.787 -0.5396 -0.8502 -0.0520
18914SOL     OW57319   2.157   0.050   5.876 -0.4431 -0.1359  0.0417
18914SOL    HW157320   2.130   0.141   5.886 -0.0652  0.2298 -1.8934
18914SOL    HW257321   2.252   0.051   5.884 -0.2303  0.0048 -1.9612
18915SOL     OW57322   9.849   0.494   4.747  0.4422 -0.3542 -0.4139
18915SOL    HW157323   9.878   0.578   4.712  0.9410  0.8636  2.6209
18915SOL    HW257324   9.829   0.441   4.669 -0.3570  2.6843 -2.4339
18916SOL     OW57325   8.164   4.500   6.547  0.2411 -0.4995  0.0157
18916SOL    HW157326   8.217   4.493   6.468  1.4845 -0.6300  0.8265
18916SOL    HW257327   8.223   4.474   6.618 -0.5690  0.4373  1.0844
18917SOL     OW57328   8.239   6.053   6.490 -0.1274  0.8197 -0.0835
18917SOL    HW157329   8.147   6.028   6.502 -0.0015  0.5888  0.4184
18917SOL    HW257330   8.260   6.023   6.402  0.1520 -1.3030  0.6474
18918SOL     OW57331   1.946   8.674   8.431  0.5846  0.1167  0.9021
18918SOL    HW157332   1.995   8.744   8.387  0.2541  0.1484  0.5752
18918SOL    HW257333   1.907   8.624   8.359  0.0563  0.1538  1.1625
18919SOL     OW57334   2.101   1.684   3.084  0.3880 -0.0429  0.4682
18919SOL    HW157335   2.108   1.742   3.008  0.2076  0.5438  0.9022
18919SOL    HW257336   2.007   1.679   3.102  0.4795  0.3191  1.0446
18920SOL     OW57337   7.727   1.942   9.608 -0.1015  0.3641 -0.0481
18920SOL    HW157338   7.767   2.025   9.580  0.2376  0.4785  0.7446
18920SOL    HW257339   7.788   1.908   9.674 -1.3919  0.6204  1.3128
18921SOL     OW57340   7.805   2.413   6.650  0.1067  0.0971  0.3135
18921SOL    HW157341   7.726   2.458   6.681  1.7295  1.7318  2.3899
18921SOL    HW257342   7.832   2.463   6.572 -0.8735 -0.5005 -0.4355
18922SOL     OW57343   6.597   3.912   3.671 -0.6935  0.2061  0.5352
18922SOL    HW157344   6.617   3.912   3.577 -0.6796 -0.9867  0.5330
18922SOL    HW257345   6.506   3.883   3.676 -0.5905 -0.0543  0.9169
18923SOL     OW57346   4.872   4.485   3.911 -0.6421 -0.1260 -0.3530
18923SOL    HW157347   4.875   4.554   3.845  0.8536  0.4765  0.3008
18923SOL    HW257348   4.827   4.526   3.985  0.4518  0.2507  0.1205
18924SOL     OW57349   3.541   3.828   6.957 -0.4897  0.6869  0.2940
18924SOL    HW157350   3.483   3.767   6.910  0.1050 -0.1141  0.5690
18924SOL    HW257351   3.510   3.915   6.932 -0.2517  0.2892 -1.5188
18925SOL     OW57352   8.240   1.618   5.391 -0.7441 -0.6201  0.0583
18925SOL    HW157353   8.219   1.605   5.484 -0.3892 -0.6368  0.1390
18925SOL    HW257354   8.257   1.712   5.383  1.4065 -0.9121  0.4904
18926SOL     OW57355   0.534   1.396   5.589 -0.3069  0.3543 -0.2927
18926SOL    HW157356   0.475   1.324   5.611  0.3220 -0.9875 -2.6884
18926SOL    HW257357   0.618   1.370   5.626  0.1153 -0.6159 -1.8318
18927SOL     OW57358   1.366   9.666   0.685  0.4587  0.2246 -0.1850
18927SOL    HW157359   1.409   9.637   0.766 -0.8028  0.5273  0.6330
18927SOL    HW257360   1.279   9.628   0.690  0.6293 -0.4671 -1.8493
18928SOL     OW57361   0.366   5.167   1.933  0.5307 -0.3384  0.2273
18928SOL    HW157362   0.440   5.225   1.953  0.4888 -0.3363  0.3760
18928SOL    HW257363   0.363   5.105   2.006 -1.1116  1.1372  1.5268
18929SOL     OW57364   2.547   3.193   8.762 -0.4499 -0.1453 -0.3032
18929SOL    HW157365   2.568   3.100   8.751  1.4123 -0.3498  3.5401
18929SOL    HW257366   2.622   3.239   8.725 -0.1311 -0.3064  0.1325
18930SOL     OW57367   1.500   0.385   1.321  0.0013 -0.7749 -0.4634
18930SOL    HW157368   1.415   0.427   1.306  1.0391  0.9194 -2.0132
18930SOL    HW257369   1.479   0.304   1.368 -2.3694  0.0313 -0.0129
18931SOL     OW57370   5.955   9.397   1.653  0.3392  0.1365  0.5650
18931SOL    HW157371   6.021   9.460   1.623  0.1938  0.8886  1.7425
18931SOL    HW257372   5.965   9.322   1.595  2.0064  0.3645  0.5107
18932SOL     OW57373   1.191   5.746   0.845 -0.2284 -0.1489 -0.3308
18932SOL    HW157374   1.258   5.742   0.914 -0.1948 -0.5405 -0.3842
18932SOL    HW257375   1.238   5.777   0.768 -0.3085  0.4959 -0.1313
18933SOL     OW57376   7.234   5.738   3.378  0.0517  0.1046 -0.3859
18933SOL    HW157377   7.274   5.796   3.314  0.1991 -1.3230 -1.6402
18933SOL    HW257378   7.141   5.738   3.356 -0.3349  1.5620  1.0317
18934SOL     OW57379   5.922   6.219   3.817 -0.5477  0.3486  0.2581
18934SOL    HW157380   5.887   6.305   3.838 -1.0338 -0.3055  2.3578
18934SOL    HW257381   5.990   6.236   3.752 -0.5608  2.3080  0.6954
18935SOL     OW57382   8.182   5.688   6.936 -0.1187  0.0098 -1.0956
18935SOL    HW157383   8.095   5.652   6.950 -0.5822  0.6569 -2.1854
18935SOL    HW257384   8.237   5.611   6.917 -0.6573 -0.3113 -1.3762
18936SOL     OW57385   5.241   9.049   4.259 -0.1724  0.3781 -0.0100
18936SOL    HW157386   5.260   9.048   4.353  0.4380  1.3218 -0.1100
18936SOL    HW257387   5.244   9.141   4.235 -0.8804  0.1935 -0.8521
18937SOL     OW57388   9.814   9.135   0.658  0.0950 -0.1417 -0.0586
18937SOL    HW157389   9.781   9.099   0.740 -0.9959 -1.1197 -0.8915
18937SOL    HW257390   9.878   9.201   0.685 -0.8187  0.1374  1.5837
18938SOL     OW57391   1.817   0.530   0.558  0.0409 -0.6430 -0.0794
18938SOL    HW157392   1.903   0.539   0.517 -0.1300  2.1851 -0.0376
18938SOL    HW257393   1.835   0.490   0.643  1.3747  0.0945  0.0117
18939SOL     OW57394   2.446   2.213   1.875 -0.6516  0.1467  0.4153
18939SOL    HW157395   2.520   2.255   1.919 -0.3658 -0.4204  0.4925
18939SOL    HW257396   2.371   2.270   1.894  0.2023  2.1959 -1.8634
18940SOL     OW57397   4.412   1.772   8.787 -0.6991  0.5128 -0.1561
18940SOL    HW157398   4.326   1.814   8.785 -0.0080  2.0465 -3.8904
18940SOL    HW257399   4.398   1.688   8.743 -0.5144  0.1816  0.4069
18941SOL     OW57400   6.181   0.231   6.914  0.1772  0.7530  0.3297
18941SOL    HW157401   6.271   0.200   6.919 -0.0705  0.1703  1.3838
18941SOL    HW257402   6.181   0.314   6.961 -0.1697 -0.0912  1.8982
18942SOL     OW57403   7.468   4.573   7.703 -0.3615 -0.1668  0.5675
18942SOL    HW157404   7.448   4.501   7.763  1.2630 -0.5313  0.7172
18942SOL    HW257405   7.456   4.534   7.616 -1.2512 -0.0794  0.6470
18943SOL     OW57406   9.406   8.907   2.747 -0.0499  0.1429  0.6517
18943SOL    HW157407   9.329   8.851   2.733  0.7721 -0.8765  0.0248
18943SOL    HW257408   9.473   8.847   2.780  0.6072  0.9327  0.7928
18944SOL     OW57409   9.809   5.565   5.356  1.2915  0.0920 -0.2806
18944SOL    HW157410   9.894   5.605   5.334  1.2699  1.1020  1.2844
18944SOL    HW257411   9.831   5.493   5.414  1.0572  1.0333  1.0250
18945SOL     OW57412   5.147   3.931   7.640  0.1396 -0.5447 -0.1390
18945SOL    HW157413   5.075   3.873   7.614 -0.8843  1.3879 -1.9018
18945SOL    HW257414   5.218   3.909   7.580 -0.4669  0.3922 -1.2425
18946SOL     OW57415   6.624   8.478   5.871 -0.0467  0.5222 -0.4480
18946SOL    HW157416   6.630   8.390   5.909  0.2114  0.0515 -1.5364
18946SOL    HW257417   6.531   8.499   5.875  0.2228  1.6500  2.9142
18947SOL     OW57418   3.386   9.019   3.947  0.1272  0.1348 -0.2546
18947SOL    HW157419   3.366   9.019   4.040 -2.7527 -0.1372 -0.7770
18947SOL    HW257420   3.397   9.111   3.924  2.2740  0.1392  0.5330
18948SOL     OW57421   2.605   3.221   3.659 -0.2424  0.6468  0.0982
18948SOL    HW157422   2.661   3.143   3.661 -2.9989 -1.5226 -0.4794
18948SOL    HW257423   2.584   3.232   3.566 -0.3670  1.7601  0.2466
18949SOL     OW57424   6.481   5.421   2.400  0.0906 -0.1841 -0.1323
18949SOL    HW157425   6.425   5.482   2.352  0.5455 -1.1020 -1.9335
18949SOL    HW257426   6.559   5.471   2.420 -0.7623  0.6924  1.1379
18950SOL     OW57427   2.400   5.795   3.318  0.4332 -0.2006 -0.2165
18950SOL    HW157428   2.370   5.798   3.409 -0.4484 -2.0368 -0.3975
18950SOL    HW257429   2.488   5.833   3.321  0.6354 -0.6942  1.5067
18951SOL     OW57430   3.393   4.013   8.186  0.0239  0.1178 -0.0659
18951SOL    HW157431   3.345   4.096   8.176  0.2673  0.4083  1.0577
18951SOL    HW257432   3.484   4.040   8.198  0.6702 -0.4527 -2.8983
18952SOL     OW57433   9.165   2.288   3.157  0.7937  0.3109 -0.0784
18952SOL    HW157434   9.212   2.313   3.078  0.2266  0.6621 -0.3150
18952SOL    HW257435   9.184   2.358   3.219 -0.3236  1.0671 -0.5511
18953SOL     OW57436   6.434   2.213   4.758 -0.2897 -0.1973 -0.5837
18953SOL    HW157437   6.428   2.247   4.669  0.1523  0.5673 -0.3251
18953SOL    HW257438   6.447   2.119   4.746 -1.2393 -0.2614 -1.3079
18954SOL     OW57439   7.247   0.952   7.979 -0.6389 -0.0178 -0.1094
18954SOL    HW157440   7.244   1.002   7.898 -0.9110 -0.6824 -0.5235
18954SOL    HW257441   7.164   0.972   8.023 -1.1923 -0.8425 -0.7405
18955SOL     OW57442   9.831   6.936   8.475 -0.1754 -0.0753  0.5741
18955SOL    HW157443   9.909   6.978   8.511  0.5725 -1.5600  0.7468
18955SOL    HW257444   9.764   6.948   8.543  0.2325  0.1995  0.9331
18956SOL     OW57445   7.779   4.294   7.049  0.2181  0.0043 -0.1614
18956SOL    HW157446   7.738   4.349   6.982 -0.0734 -0.5333 -0.4297
18956SOL    HW257447   7.707   4.240   7.083  1.0028 -2.5242 -2.1583
18957SOL     OW57448   9.515   2.448   4.721 -0.4489  0.2479 -0.8788
18957SOL    HW157449   9.609   2.434   4.732 -0.6458 -0.9327 -0.4961
18957SOL    HW257450   9.505   2.485   4.634  0.3405  0.0879 -1.0389
18958SOL     OW57451   9.950   4.860   0.458  0.1797  0.0748  0.6471
18958SOL    HW157452   9.865   4.872   0.414 -0.0451 -3.7250 -0.2452
18958SOL    HW257453  10.014   4.896   0.396 -0.5433  0.0045 -0.1550
18959SOL     OW57454   8.139   4.111   4.344 -0.1210  0.2286 -0.1299
18959SOL    HW157455   8.227   4.082   4.320 -0.2103 -1.1034  0.9806
18959SOL    HW257456   8.153   4.170   4.418 -0.1383  0.2453 -0.1400
18960SOL     OW57457   4.788   8.999   3.587 -0.3130 -0.4182  0.5755
18960SOL    HW157458   4.834   8.957   3.659 -1.0135 -0.0817  1.2363
18960SOL    HW257459   4.856   9.047   3.539  0.3024 -1.3864  0.4584
18961SOL     OW57460   2.422   4.900   6.143  0.0053 -0.2085  0.3102
18961SOL    HW157461   2.506   4.875   6.104 -0.5773 -1.3301 -0.2907
18961SOL    HW257462   2.430   4.994   6.159  1.4474 -0.3305  0.4657
18962SOL     OW57463   3.015   8.095   9.409  0.6043 -0.5997 -0.1968
18962SOL    HW157464   3.041   8.090   9.501  0.2891  3.6376  0.3162
18962SOL    HW257465   2.920   8.085   9.410  0.7014 -1.5549 -0.2059
18963SOL     OW57466   2.314   9.733   1.541  0.1338  0.0611  0.4895
18963SOL    HW157467   2.299   9.812   1.490  2.5413 -0.3280 -0.9889
18963SOL    HW257468   2.325   9.764   1.631 -0.2099  1.2438  0.1371
18964SOL     OW57469   2.649   6.245   8.309  0.1161 -0.4055 -0.5250
18964SOL    HW157470   2.576   6.291   8.266 -0.2355  0.9043  1.3185
18964SOL    HW257471   2.606   6.175   8.358  0.4899 -1.7465 -2.0380
18965SOL     OW57472   3.805   6.655   7.370  0.9959  0.2653  0.3003
18965SOL    HW157473   3.815   6.662   7.465 -0.3904  1.4461  0.3962
18965SOL    HW257474   3.711   6.658   7.355  1.0683 -2.0059 -1.0069
18966SOL     OW57475   8.268   0.989   7.932 -0.2067  0.7264 -0.3847
18966SOL    HW157476   8.283   1.081   7.953  0.0207  0.8408 -1.0427
18966SOL    HW257477   8.355   0.952   7.920 -0.3376  0.8205 -1.7722
18967SOL     OW57478   3.383   5.163   5.537  0.3340 -0.2576  0.0240
18967SOL    HW157479   3.327   5.241   5.538 -0.9710 -1.1647 -0.0822
18967SOL    HW257480   3.397   5.145   5.444 -0.0583 -0.6218  0.0326
18968SOL     OW57481   6.806   3.842   2.977 -0.1404 -0.6588 -0.7115
18968SOL    HW157482   6.782   3.751   2.958 -0.4697 -0.8715  0.6528
18968SOL    HW257483   6.744   3.894   2.926 -0.4846 -1.1948 -0.8505
18969SOL     OW57484   7.971   4.334   3.247  0.0793 -0.5657  0.3466
18969SOL    HW157485   7.995   4.242   3.251 -0.9760 -0.9335 -0.9149
18969SOL    HW257486   8.050   4.381   3.274  1.0874 -1.8015 -0.3681
18970SOL     OW57487   6.809   9.604   0.684  0.3112 -0.1536 -0.3366
18970SOL    HW157488   6.815   9.629   0.776  1.8926 -1.8786  0.1118
18970SOL    HW257489   6.809   9.686   0.636  0.5420  0.7576  1.1584
18971SOL     OW57490   2.103   0.763   0.309 -0.5082 -0.0838 -0.3923
18971SOL    HW157491   2.118   0.677   0.270 -1.5881 -0.4684  0.0183
18971SOL    HW257492   2.012   0.762   0.337 -0.1263  0.6531  0.9651
18972SOL     OW57493   7.807   2.850   7.958  0.4256 -0.1613 -0.1004
18972SOL    HW157494   7.796   2.917   8.025 -1.2983  0.2324 -0.7107
18972SOL    HW257495   7.902   2.840   7.949  0.7113  1.2967  0.8885
18973SOL     OW57496   9.583   1.268   2.041 -0.5423  0.2361 -0.1216
18973SOL    HW157497   9.569   1.360   2.020  0.2629  0.2433 -0.7058
18973SOL    HW257498   9.634   1.269   2.122  1.1377  0.3918 -1.1236
18974SOL     OW57499   6.782   2.920  -0.018 -0.5207  0.3893 -0.5419
18974SOL    HW157500   6.706   2.878   0.022  1.5285 -2.8863  0.2279
18974SOL    HW257501   6.793   3.002   0.031 -0.3898 -1.6398  3.1391
18975SOL     OW57502   6.415   9.574   9.506  0.6802 -0.0921  0.6006
18975SOL    HW157503   6.479   9.623   9.557  0.6531  0.2263  0.3324
18975SOL    HW257504   6.400   9.494   9.557  1.2180 -0.1288  0.7080
18976SOL     OW57505   9.515   2.194   3.075 -0.2897 -0.0587 -0.3395
18976SOL    HW157506   9.597   2.230   3.039 -0.2709  0.7640  0.4942
18976SOL    HW257507   9.540   2.108   3.108  0.3774  0.3855  0.3629
18977SOL     OW57508   1.998   6.897   5.482 -0.1040  0.2713  0.1298
18977SOL    HW157509   2.015   6.987   5.453 -1.5802  0.2436 -0.9471
18977SOL    HW257510   1.903   6.889   5.479  0.0142 -1.3892  0.0190
18978SOL     OW57511   0.233   8.433   7.942  0.7006  0.0280  0.0361
18978SOL    HW157512   0.191   8.421   8.027  0.1281 -0.2352 -0.2725
18978SOL    HW257513   0.234   8.528   7.929 -0.3691  0.0166 -0.2166
18979SOL     OW57514   5.756   0.250   8.385  0.3108  0.0366 -0.1390
18979SOL    HW157515   5.750   0.289   8.472 -0.0974  1.1655 -0.6517
18979SOL    HW257516   5.849   0.235   8.372  0.4689  0.7192  0.1343
18980SOL     OW57517   6.110   8.623   5.135  0.0353  0.5389  0.9340
18980SOL    HW157518   6.168   8.556   5.100  0.8153  1.6681  0.0026
18980SOL    HW257519   6.052   8.645   5.063 -0.6054  0.4672  1.4166
18981SOL     OW57520   6.079   2.410   3.842 -0.1142 -0.4817 -1.0328
18981SOL    HW157521   6.049   2.460   3.917  1.3262 -0.1019 -0.6799
18981SOL    HW257522   6.003   2.357   3.816 -0.4076 -1.2612  1.1920
18982SOL     OW57523   1.700   7.925   2.483 -0.4678  0.4893  0.5340
18982SOL    HW157524   1.608   7.936   2.459 -0.5306  0.4931  0.7715
18982SOL    HW257525   1.747   7.987   2.428 -0.8983  2.7131  2.5079
18983SOL     OW57526   8.557   5.443   8.059  0.6037 -0.4125  0.1888
18983SOL    HW157527   8.553   5.538   8.049 -0.5257 -0.3569  0.9388
18983SOL    HW257528   8.615   5.428   8.134  1.2288 -0.3527 -0.2764
18984SOL     OW57529   2.870   2.973   2.043 -0.1091 -0.8589 -0.4296
18984SOL    HW157530   2.943   3.001   1.987  1.1258 -2.2428  0.4068
18984SOL    HW257531   2.887   2.880   2.059 -1.4423 -0.9320  0.7438
18985SOL     OW57532   9.421   6.583   7.605 -0.7219 -0.3865 -0.2202
18985SOL    HW157533   9.388   6.559   7.519 -2.8358 -1.1831  0.7218
18985SOL    HW257534   9.425   6.500   7.653  2.4589 -0.2995 -0.0954
18986SOL     OW57535   3.808   3.983   4.615  0.4294  0.2446 -0.0810
18986SOL    HW157536   3.877   3.924   4.585 -1.2761 -2.9222  1.5735
18986SOL    HW257537   3.735   3.967   4.555 -0.3986 -0.2014  1.0006
18987SOL     OW57538   4.481   7.062   6.354  0.1392 -0.4793  0.5961
18987SOL    HW157539   4.496   7.156   6.366  0.3800 -0.5090  0.5364
18987SOL    HW257540   4.403   7.057   6.298  1.0045 -0.2799 -0.6777
18988SOL     OW57541   8.705   2.673   7.713 -0.3865 -1.1375  0.6105
18988SOL    HW157542   8.652   2.726   7.654  0.4720 -1.0112 -0.0610
18988SOL    HW257543   8.658   2.591   7.721 -0.7205 -1.0023  0.0712
18989SOL     OW57544   0.026   1.030   5.793  0.2131 -0.0576  0.0457
18989SOL    HW157545   0.002   0.938   5.801 -0.3063 -0.0017 -0.7619
18989SOL    HW257546   0.113   1.029   5.753  0.3632 -0.2025  0.3735
18990SOL     OW57547   2.721   4.358   9.040  0.1601 -0.1206  0.2350
18990SOL    HW157548   2.807   4.346   9.081  0.8140 -0.6122 -1.2197
18990SOL    HW257549   2.731   4.321   8.953 -1.8937 -1.2423  0.4168
18991SOL     OW57550   8.389   1.151   0.610  0.1442 -0.2120  0.4734
18991SOL    HW157551   8.351   1.100   0.681 -1.7540  2.5582  1.5836
18991SOL    HW257552   8.328   1.138   0.537  1.0626 -1.4999 -0.1154
18992SOL     OW57553   8.627   8.630   8.339  0.0801 -0.4354 -0.5341
18992SOL    HW157554   8.642   8.725   8.339 -1.9814 -0.0139  1.4238
18992SOL    HW257555   8.712   8.592   8.318  0.7204  1.8403 -2.4187
18993SOL     OW57556   3.451   8.669   9.395 -0.2821  0.7853 -0.3133
18993SOL    HW157557   3.533   8.631   9.425  1.1564  2.2515 -2.1721
18993SOL    HW257558   3.437   8.745   9.452 -1.7099 -0.7820  1.5809
18994SOL     OW57559   0.508   3.178   4.045  0.1156  0.0320 -0.0502
18994SOL    HW157560   0.455   3.157   3.968 -0.2662  0.1753  0.1728
18994SOL    HW257561   0.596   3.149   4.022  0.5133  2.2011 -1.4621
18995SOL     OW57562   1.323   1.707   4.178 -0.1229  0.4716  0.1321
18995SOL    HW157563   1.414   1.688   4.156 -0.1860  1.1827 -0.8074
18995SOL    HW257564   1.271   1.667   4.108 -0.6810 -1.3519  1.5019
18996SOL     OW57565   6.612   0.093   2.310  0.3987 -0.3476  0.0226
18996SOL    HW157566   6.558   0.077   2.387  0.6671  0.4105  0.3700
18996SOL    HW257567   6.553   0.131   2.245  0.0517 -1.4649 -0.3528
18997SOL     OW57568   0.933   7.454   7.419 -0.2783 -0.3170  0.1042
18997SOL    HW157569   0.901   7.422   7.334  0.6955  1.7671 -1.1305
18997SOL    HW257570   0.970   7.377   7.461 -1.2705 -1.5126 -1.1211
18998SOL     OW57571   5.196   3.691   8.269 -0.2767  0.4161  0.0729
18998SOL    HW157572   5.114   3.741   8.266 -1.0361 -0.7572  0.4464
18998SOL    HW257573   5.168   3.599   8.271  1.0816 -0.0398 -0.7492
18999SOL     OW57574   6.538   9.669   9.284  0.1648  0.3440  0.2046
18999SOL    HW157575   6.504   9.756   9.305  2.1346  1.2559 -0.1161
18999SOL    HW257576   6.494   9.611   9.346 -0.9104  1.6145  0.6924
19000SOL     OW57577   5.663   8.414   8.056 -0.3895 -0.3849 -0.3302
19000SOL    HW157578   5.706   8.446   8.135  0.3093 -0.9026 -0.4913
19000SOL    HW257579   5.665   8.488   7.995 -1.5800  0.2542  0.3678
19001SOL     OW57580   1.838   5.987   2.706  0.6064  0.0892 -0.4062
19001SOL    HW157581   1.842   5.935   2.786  1.0446 -0.3978 -0.7405
19001SOL    HW257582   1.778   5.939   2.649 -1.3975  1.5340  0.3988
19002SOL     OW57583   0.441   5.085   2.179  0.7071  0.0475  0.1734
19002SOL    HW157584   0.411   5.112   2.265  0.4857 -3.8577  1.5100
19002SOL    HW257585   0.533   5.061   2.192  0.6700 -0.5856 -0.6135
19003SOL     OW57586   2.004   8.627   4.037  0.1186  0.4286  0.5856
19003SOL    HW157587   2.077   8.587   4.085  0.0530 -0.9501 -0.4257
19003SOL    HW257588   1.943   8.655   4.105  0.6234 -0.3147  1.3642
19004SOL     OW57589   6.938   6.845   9.387 -0.8467  0.0839 -0.1460
19004SOL    HW157590   6.905   6.781   9.451 -1.8098  1.8138  1.1659
19004SOL    HW257591   6.916   6.806   9.302  0.5586 -2.3161  0.5095
19005SOL     OW57592   5.082   6.848   5.561  0.0290  0.6177 -0.7348
19005SOL    HW157593   5.138   6.862   5.637  0.5483  1.6944 -1.2931
19005SOL    HW257594   5.121   6.902   5.492 -2.0852  1.9722 -0.9721
19006SOL     OW57595   3.212   8.172   9.627  0.7818  0.1767  0.0783
19006SOL    HW157596   3.136   8.221   9.658 -0.6203 -1.8937  0.1244
19006SOL    HW257597   3.284   8.236   9.627 -1.2719  2.7045 -1.6716
19007SOL     OW57598   7.487   4.179   7.173 -0.6035 -0.0618 -0.1072
19007SOL    HW157599   7.415   4.122   7.199  0.1738 -1.2161 -0.3674
19007SOL    HW257600   7.542   4.186   7.251 -0.6471  0.2675 -0.1040
19008SOL     OW57601   6.616   7.726   3.625 -0.1732  0.1902 -0.1181
19008SOL    HW157602   6.594   7.728   3.718 -1.1039 -0.3971 -0.3065
19008SOL    HW257603   6.707   7.756   3.621 -0.0700  0.0744  0.9921
19009SOL     OW57604   2.092   7.426   8.264 -0.0011 -0.1324 -0.2360
19009SOL    HW157605   2.075   7.465   8.349  0.1252 -2.1031  0.7510
19009SOL    HW257606   2.188   7.422   8.258  0.1271  2.8904 -1.9266
19010SOL     OW57607   2.002   7.672   3.820 -0.3632 -0.3232  0.0190
19010SOL    HW157608   1.940   7.743   3.837  1.2791  0.9975  0.7620
19010SOL    HW257609   1.987   7.649   3.728 -3.2421 -1.4175  0.6562
19011SOL     OW57610   1.098   8.929   9.839  0.1679 -0.0740 -1.0571
19011SOL    HW157611   1.183   8.954   9.875  0.6443  0.2856 -2.3536
19011SOL    HW257612   1.119   8.894   9.752 -1.0160  0.0512 -1.4075
19012SOL     OW57613   5.848   7.052   8.502 -0.3260 -0.3867 -0.1994
19012SOL    HW157614   5.842   7.090   8.414  1.5827  1.3175  0.3174
19012SOL    HW257615   5.891   7.120   8.554 -1.1454 -1.4628  2.0119
19013SOL     OW57616   1.667   4.985   4.137 -0.3702  0.1342 -0.5305
19013SOL    HW157617   1.611   4.981   4.059 -0.2663 -1.0862 -0.5473
19013SOL    HW257618   1.718   4.905   4.135 -1.3971 -0.6353  1.5699
19014SOL     OW57619   1.252   3.848   5.591 -0.6017 -0.1672 -0.1742
19014SOL    HW157620   1.234   3.760   5.625  0.6760 -0.2471  0.3690
19014SOL    HW257621   1.255   3.837   5.496 -0.0424 -0.8093 -0.0906
19015SOL     OW57622   0.088   3.860   9.823 -0.0933 -1.1419  0.0158
19015SOL    HW157623   0.111   3.924   9.891  0.1951 -0.4450 -0.7334
19015SOL    HW257624   0.084   3.777   9.870  1.1352 -0.8364  0.7096
19016SOL     OW57625   1.291   6.186   8.092  0.5403 -0.3375 -0.1641
19016SOL    HW157626   1.196   6.183   8.078  0.2421  1.0933  1.2639
19016SOL    HW257627   1.323   6.243   8.022 -0.1750  2.0757  1.3448
19017SOL     OW57628   9.641   6.427   8.404  1.3994  0.0131 -0.7231
19017SOL    HW157629   9.580   6.493   8.371  2.5335  1.2446 -0.4679
19017SOL    HW257630   9.718   6.478   8.432  1.0298 -1.0564  2.6016
19018SOL     OW57631   0.042   2.906   6.618  0.0897 -0.5371  0.2116
19018SOL    HW157632   0.088   2.975   6.571  2.1610 -1.5227  0.6672
19018SOL    HW257633   0.098   2.887   6.694 -2.6702  0.3578  2.6163
19019SOL     OW57634   0.199   3.198   8.654 -0.3344 -0.6311 -0.0248
19019SOL    HW157635   0.237   3.274   8.698 -0.4701 -0.9410  0.6333
19019SOL    HW257636   0.261   3.127   8.669  0.4331 -0.3727 -1.7183
19020SOL     OW57637   3.315   4.624   8.624 -0.6944 -0.4586  0.4280
19020SOL    HW157638   3.332   4.532   8.645  2.5424 -0.5681 -1.8217
19020SOL    HW257639   3.390   4.671   8.661 -0.6149  0.7582 -1.1514
19021SOL     OW57640   4.471   3.117   8.991  0.2361 -0.2241  0.4047
19021SOL    HW157641   4.447   3.127   8.899  0.4193 -0.7003  0.3001
19021SOL    HW257642   4.565   3.099   8.989 -0.2274 -3.1194  0.4490
19022SOL     OW57643   6.516   9.407   3.948 -0.2230  0.1115  0.0448
19022SOL    HW157644   6.517   9.502   3.935  0.5817 -0.1115 -2.0454
19022SOL    HW257645   6.423   9.384   3.944 -0.3636  0.7133 -0.4538
19023SOL     OW57646   7.963   6.181   8.038  0.5716  0.9768 -0.1812
19023SOL    HW157647   7.891   6.191   7.975  0.2373  1.4400  0.2698
19023SOL    HW257648   8.041   6.208   7.990  0.1885  2.2555 -0.1154
19024SOL     OW57649   7.117   2.868   6.010 -0.2968  0.2005 -0.0258
19024SOL    HW157650   7.177   2.803   6.047  0.6377  1.0898  0.0588
19024SOL    HW257651   7.072   2.904   6.087  2.2403  2.6431  0.4675
19025SOL     OW57652   9.214   7.431   3.464 -0.1669  0.2503  0.1001
19025SOL    HW157653   9.277   7.451   3.533 -0.5108 -0.7182  0.7154
19025SOL    HW257654   9.234   7.494   3.394 -0.8767  2.4080  1.7108
19026SOL     OW57655   0.609   4.168   4.682  0.1226 -0.5869 -0.5611
19026SOL    HW157656   0.519   4.198   4.689 -0.0191 -1.1627  0.2338
19026SOL    HW257657   0.661   4.248   4.670 -0.2387  0.0125  1.4759
19027SOL     OW57658   0.791   2.684   7.050 -0.5222  0.3358  0.3031
19027SOL    HW157659   0.834   2.765   7.022 -0.0940  0.2962  0.8206
19027SOL    HW257660   0.698   2.700   7.037 -0.3554  0.4206 -0.8533
19028SOL     OW57661   3.406   5.508   0.204  0.2668  0.4350  0.1604
19028SOL    HW157662   3.443   5.431   0.161  0.0056 -0.4688  1.4796
19028SOL    HW257663   3.357   5.473   0.278 -1.5136  1.7433 -0.3282
19029SOL     OW57664   3.204   1.917   5.058  0.0268  0.4529 -0.4285
19029SOL    HW157665   3.147   1.993   5.043 -0.5421  0.0195 -0.4917
19029SOL    HW257666   3.153   1.860   5.116  0.1829 -0.1828 -0.9105
19030SOL     OW57667   7.524   2.265   2.565 -0.1640  0.3189  0.2831
19030SOL    HW157668   7.453   2.310   2.610 -0.1798 -0.3727  0.9796
19030SOL    HW257669   7.572   2.220   2.635  0.4737  0.1239 -0.2675
19031SOL     OW57670   6.844   2.731   5.697 -0.4885 -0.1961 -0.2362
19031SOL    HW157671   6.918   2.672   5.684 -0.5447 -0.4634  0.5862
19031SOL    HW257672   6.777   2.677   5.740 -0.2976  0.6051  1.1297
19032SOL     OW57673   7.049   7.543   5.940  0.2486 -0.1468 -0.1024
19032SOL    HW157674   7.046   7.593   5.858  0.1375 -3.2600 -2.1775
19032SOL    HW257675   6.964   7.559   5.981  0.1048  1.0712 -0.8426
19033SOL     OW57676   2.652   9.562   7.559  0.0243  0.1494  0.5826
19033SOL    HW157677   2.739   9.547   7.596 -0.0574  0.5214  0.9378
19033SOL    HW257678   2.635   9.485   7.505  0.0530 -0.5140  1.5005
19034SOL     OW57679   2.073   2.127   2.338  0.1806 -0.4479 -0.1243
19034SOL    HW157680   2.039   2.086   2.417 -0.7124 -1.2980 -0.9246
19034SOL    HW257681   2.162   2.091   2.329  0.8430  0.7413  1.2261
19035SOL     OW57682   4.499   6.315   2.090  0.0307 -0.3564  0.1251
19035SOL    HW157683   4.512   6.357   2.175  1.6601  0.5526 -0.5184
19035SOL    HW257684   4.404   6.308   2.081 -0.2459 -3.3717  3.3224
19036SOL     OW57685   9.725   8.820   1.937 -0.0674 -0.2916 -0.1823
19036SOL    HW157686   9.706   8.770   2.017 -1.9641  0.0115 -0.3893
19036SOL    HW257687   9.682   8.770   1.867  1.4887 -0.5003 -1.0392
19037SOL     OW57688   3.590   5.463   4.130 -0.3871  0.2901 -0.3746
19037SOL    HW157689   3.570   5.557   4.132  1.3745  0.6941  1.1667
19037SOL    HW257690   3.608   5.445   4.038 -1.0429  1.3719 -0.7473
19038SOL     OW57691   2.617   7.815   1.670 -0.2245 -0.3663 -0.1363
19038SOL    HW157692   2.557   7.814   1.595 -1.2514 -0.6401  0.6716
19038SOL    HW257693   2.597   7.736   1.718 -0.7201  0.5942  1.3014
19039SOL     OW57694   4.788   5.374   2.472  0.1756  0.4192  0.4166
19039SOL    HW157695   4.774   5.461   2.434  0.6576 -0.1453 -1.1494
19039SOL    HW257696   4.708   5.355   2.521 -1.0346  0.6916 -1.3747
19040SOL     OW57697   5.889   9.508   6.665 -0.0512  0.4594  0.1947
19040SOL    HW157698   5.944   9.578   6.699  0.8619 -0.8624  1.5960
19040SOL    HW257699   5.886   9.524   6.570  0.2449  2.2640  0.4544
19041SOL     OW57700   9.554   8.995   1.627  0.5290 -0.4081 -0.5473
19041SOL    HW157701   9.541   8.907   1.592  1.5791  0.2746 -2.8429
19041SOL    HW257702   9.649   9.002   1.640  0.4436  0.3563 -0.2836
19042SOL     OW57703   5.769   1.693   3.964  0.0602  0.3704 -0.5072
19042SOL    HW157704   5.702   1.746   4.007 -0.4439 -1.1175  0.6620
19042SOL    HW257705   5.843   1.694   4.025  0.1195 -0.0786 -0.5674
19043SOL     OW57706   2.471   8.413   0.918 -0.9632  0.1830  0.1773
19043SOL    HW157707   2.432   8.393   1.003 -0.4121  0.1811  0.4390
19043SOL    HW257708   2.442   8.503   0.899 -1.2723  0.1004  0.2569
19044SOL     OW57709   4.084   1.926   8.661  0.3198  0.5581  0.3267
19044SOL    HW157710   4.089   1.927   8.566 -2.9123  1.8219  0.0481
19044SOL    HW257711   4.128   2.006   8.688  1.1319  0.2603 -0.0817
19045SOL     OW57712   4.250   2.938   1.966  0.3739  1.1080  0.0860
19045SOL    HW157713   4.315   2.956   2.034  0.1077  1.3804  0.2708
19045SOL    HW257714   4.301   2.935   1.885  0.9071 -0.7345  0.4585
19046SOL     OW57715   0.951   9.660   7.483  0.4097  0.3482  0.2924
19046SOL    HW157716   0.982   9.596   7.546 -1.0340 -0.8242 -0.1404
19046SOL    HW257717   0.856   9.645   7.478  0.5622 -0.1295 -2.7176
19047SOL     OW57718   8.501   6.308   4.923  0.2165 -0.2947  0.5004
19047SOL    HW157719   8.466   6.229   4.883 -0.2764 -0.5648  1.4286
19047SOL    HW257720   8.534   6.278   5.008 -1.0494  0.6808  1.3769
19048SOL     OW57721   6.518   6.852   6.105  0.6140  0.4257  0.5838
19048SOL    HW157722   6.590   6.813   6.155  1.7703  2.3215  0.4939
19048SOL    HW257723   6.546   6.850   6.014 -0.9919 -1.9501  0.0480
19049SOL     OW57724   2.197   9.282   0.227 -0.1077  0.1315  0.4291
19049SOL    HW157725   2.142   9.319   0.297 -0.2881 -3.1052  2.1791
19049SOL    HW257726   2.148   9.300   0.147 -1.7130  0.8424  1.5066
19050SOL     OW57727   4.075   5.609   2.080 -0.2615 -0.1107 -0.2157
19050SOL    HW157728   4.121   5.550   2.140  0.2021 -0.3615 -0.8003
19050SOL    HW257729   3.985   5.578   2.080  0.1294 -1.3539 -1.1250
19051SOL     OW57730   3.155   4.730   3.506 -0.1599 -0.6872 -0.3181
19051SOL    HW157731   3.135   4.650   3.456  0.8369 -1.7216  0.8660
19051SOL    HW257732   3.120   4.713   3.593  1.1394 -0.3593  0.2942
19052SOL     OW57733   9.920   5.806   7.148  0.1886  0.0315 -0.0255
19052SOL    HW157734   9.980   5.866   7.104 -1.2625  1.0229 -0.7689
19052SOL    HW257735   9.901   5.739   7.082 -0.9527  0.7821 -0.5059
19053SOL     OW57736   8.715   7.539   9.890 -0.1855  0.0531 -0.3065
19053SOL    HW157737   8.655   7.532   9.965 -2.6910  2.2625 -1.9225
19053SOL    HW257738   8.661   7.516   9.814  1.3095  1.1177 -1.7555
19054SOL     OW57739   4.096   5.154   1.672 -0.1299  0.6916  0.4108
19054SOL    HW157740   4.171   5.156   1.612 -0.2836  0.9323  0.2280
19054SOL    HW257741   4.092   5.063   1.701  0.2158  0.6693  0.3960
19055SOL     OW57742   7.633   0.165   3.428  0.8433 -0.3489 -0.2884
19055SOL    HW157743   7.698   0.164   3.498 -1.6128  0.0300  2.1647
19055SOL    HW257744   7.606   0.074   3.418 -0.0814 -0.1739  0.5534
19056SOL     OW57745   0.662   0.852   8.031 -0.2300 -0.0412 -0.4374
19056SOL    HW157746   0.594   0.791   8.001  1.4437 -1.9274 -0.6506
19056SOL    HW257747   0.722   0.859   7.957  1.4625 -0.9786  0.7744
19057SOL     OW57748   9.175   0.663   6.956 -0.7489  0.1486 -0.3402
19057SOL    HW157749   9.260   0.704   6.975 -1.1974  0.9790 -0.0792
19057SOL    HW257750   9.179   0.643   6.863  0.4308 -1.4887  0.0163
19058SOL     OW57751   3.775   3.180   9.112 -0.2968  0.2409  0.1873
19058SOL    HW157752   3.753   3.235   9.187  0.9227  1.5970 -0.4083
19058SOL    HW257753   3.697   3.184   9.056 -1.2260 -0.7970  1.3279
19059SOL     OW57754   5.224   1.384   7.498 -0.0654 -0.1830 -0.6128
19059SOL    HW157755   5.150   1.329   7.524  1.0173 -0.5298  1.9877
19059SOL    HW257756   5.300   1.327   7.504  0.6141  0.5824 -1.7465
19060SOL     OW57757   4.356   0.869   6.338  0.6145  0.0621 -0.1473
19060SOL    HW157758   4.291   0.834   6.399  0.6544  1.2036  0.5721
19060SOL    HW257759   4.345   0.816   6.259 -1.3079  0.3084 -0.1098
19061SOL     OW57760   3.321   4.079   5.411  0.1046 -0.0632  0.3090
19061SOL    HW157761   3.406   4.117   5.437 -0.1763  1.6430 -1.0397
19061SOL    HW257762   3.309   4.005   5.470  1.9787  0.3644  1.3306
19062SOL     OW57763   9.434   0.962   9.980 -0.2237 -0.1584 -0.0324
19062SOL    HW157764   9.393   1.041   9.946  1.9098  0.7307 -0.7284
19062SOL    HW257765   9.501   0.940   9.915  0.0383 -1.8391  0.7475
19063SOL     OW57766   5.295   2.612   7.365 -0.8864 -0.5700 -0.0485
19063SOL    HW157767   5.294   2.609   7.269 -0.7510 -1.8026 -0.0289
19063SOL    HW257768   5.349   2.688   7.386  0.8309 -1.4703 -0.9678
19064SOL     OW57769   6.376   7.387   3.615  0.1906 -0.4971 -0.5745
19064SOL    HW157770   6.335   7.373   3.530  1.6703  0.1246 -1.4221
19064SOL    HW257771   6.457   7.433   3.596 -0.3456  1.4093  1.3498
19065SOL     OW57772   7.299   5.772   7.756 -0.0194  0.6445 -0.3585
19065SOL    HW157773   7.314   5.818   7.839  0.8722 -0.2117 -0.0330
19065SOL    HW257774   7.281   5.682   7.781  1.2828  0.1413 -1.1205
19066SOL     OW57775   7.718   9.592   2.582 -0.5152 -0.0358 -0.6504
19066SOL    HW157776   7.786   9.649   2.618 -1.1802 -1.0762  2.6002
19066SOL    HW257777   7.688   9.638   2.504  0.8439  2.6827  0.2695
19067SOL     OW57778   9.126   9.527   0.433  0.4308 -0.2782  0.9859
19067SOL    HW157779   9.079   9.513   0.351 -0.9935  1.8328  1.3637
19067SOL    HW257780   9.077   9.476   0.498  0.4073 -0.3969  0.8754
19068SOL     OW57781   9.241   2.489   1.942 -0.3474  0.0177 -0.7416
19068SOL    HW157782   9.311   2.441   1.898  0.6665  0.9312 -0.1541
19068SOL    HW257783   9.242   2.576   1.902  0.2488  0.7001  0.6959
19069SOL     OW57784   9.465   8.090   6.564 -0.3638  0.6849 -0.2422
19069SOL    HW157785   9.396   8.041   6.520  0.5469 -0.1983 -0.7075
19069SOL    HW257786   9.449   8.075   6.657 -0.9037  0.6277 -0.3433
19070SOL     OW57787   6.136   6.849   7.925  0.1080  0.8375  0.3669
19070SOL    HW157788   6.211   6.903   7.950  2.0411 -1.8554  0.7920
19070SOL    HW257789   6.126   6.865   7.831  3.0876 -0.7361 -0.3418
19071SOL     OW57790   6.989   2.658   9.056  0.0616  0.9030  0.1464
19071SOL    HW157791   6.943   2.711   8.991 -1.4570  0.1647  0.5720
19071SOL    HW257792   6.958   2.692   9.140 -1.9936 -1.4264  0.4405
19072SOL     OW57793   0.365   2.394   1.457 -0.8745 -0.5997 -0.4681
19072SOL    HW157794   0.423   2.422   1.387  1.9130  1.0440  2.2189
19072SOL    HW257795   0.290   2.453   1.453 -0.9454 -0.7840 -2.2237
19073SOL     OW57796   0.587   6.496   4.765 -0.1721  0.3228 -0.2023
19073SOL    HW157797   0.650   6.425   4.780  1.7813  1.5908 -1.8362
19073SOL    HW257798   0.588   6.546   4.847  0.7421  0.1312 -0.0792
19074SOL     OW57799   8.693   7.943   5.229  0.1141 -0.4692  0.1006
19074SOL    HW157800   8.766   7.998   5.202 -1.4341  0.7898 -1.8751
19074SOL    HW257801   8.648   7.993   5.297  0.3310 -0.6166  0.3516
19075SOL     OW57802   8.385   3.744   8.330  0.4275 -0.0691 -0.5905
19075SOL    HW157803   8.303   3.715   8.368  0.2553  1.4027  0.2165
19075SOL    HW257804   8.368   3.748   8.236  0.3483 -2.0999 -0.7071
19076SOL     OW57805   8.100   6.265   3.879  0.1827  0.1023  0.0288
19076SOL    HW157806   8.145   6.334   3.829  1.3661  0.2611  1.2779
19076SOL    HW257807   8.103   6.295   3.970 -0.4511 -0.9810  0.4244
19077SOL     OW57808   6.860   1.984   3.305  0.5428 -0.6139  0.4334
19077SOL    HW157809   6.783   2.002   3.359  0.2843 -1.4442  0.3528
19077SOL    HW257810   6.875   2.066   3.258 -1.7629 -1.0828 -1.3515
19078SOL     OW57811   3.974   3.659   6.321 -0.2670  0.1491  0.3501
19078SOL    HW157812   3.930   3.710   6.390  1.0440  0.5430  0.9140
19078SOL    HW257813   3.975   3.570   6.356  0.7734  0.4225  1.0520
19079SOL     OW57814   0.420   1.710   3.194  0.2074 -0.1783  0.1109
19079SOL    HW157815   0.430   1.651   3.269  1.1734 -0.4394 -0.2053
19079SOL    HW257816   0.487   1.777   3.207  0.0999  0.0102 -0.3028
19080SOL     OW57817   8.113   7.107   6.303 -0.1376  0.6581 -0.1343
19080SOL    HW157818   8.123   7.160   6.224  1.1866  0.4860 -0.1111
19080SOL    HW257819   8.168   7.151   6.368  0.0519 -0.0880  0.2202
19081SOL     OW57820   6.665   8.380   4.597 -0.0875 -0.4158  0.1504
19081SOL    HW157821   6.690   8.460   4.551  2.1665 -0.8850  0.4633
19081SOL    HW257822   6.601   8.409   4.663 -0.9339  0.7500 -1.1238
19082SOL     OW57823   7.614   6.040   2.855 -0.3744 -0.5217 -0.4144
19082SOL    HW157824   7.541   5.979   2.844  1.2671 -2.2197 -3.2204
19082SOL    HW257825   7.594   6.112   2.794 -0.8411  0.2870  0.6570
19083SOL     OW57826   6.908   8.065   3.559 -0.5008 -0.2817  0.1169
19083SOL    HW157827   6.999   8.093   3.547 -0.4851  0.6006  1.8954
19083SOL    HW257828   6.885   8.096   3.647 -2.5761 -0.3640 -0.3518
19084SOL     OW57829   6.106   1.148   1.176 -0.1355  0.1731 -0.1835
19084SOL    HW157830   6.080   1.086   1.244  0.2585 -1.5764 -1.5723
19084SOL    HW257831   6.182   1.194   1.213  0.9375 -1.7178  0.0667
19085SOL     OW57832   6.320   0.581   0.446 -0.3245 -0.0807  0.5764
19085SOL    HW157833   6.392   0.643   0.460  1.0022 -1.9156  2.5179
19085SOL    HW257834   6.241   0.632   0.464  0.3702  2.0228 -1.6978
19086SOL     OW57835   6.106   7.372   9.684  0.0569 -0.1899 -0.2919
19086SOL    HW157836   6.191   7.381   9.641  0.6653  1.0372  1.0750
19086SOL    HW257837   6.070   7.461   9.684  0.0672 -0.1477  1.6549
19087SOL     OW57838   6.008   8.608   9.065 -0.4930  0.4408  0.8003
19087SOL    HW157839   5.959   8.545   9.119 -1.9731  0.9663  0.1284
19087SOL    HW257840   6.066   8.653   9.127 -0.4682 -0.5659  1.5340
19088SOL     OW57841   7.257   4.154   1.476  0.2668 -0.8636  0.4631
19088SOL    HW157842   7.225   4.161   1.386 -0.5931  0.0802  0.8107
19088SOL    HW257843   7.179   4.134   1.527  0.3434  0.6401  1.2366
19089SOL     OW57844   4.259   7.770   6.630 -0.4594  0.1780  0.0627
19089SOL    HW157845   4.335   7.716   6.608 -1.4585 -2.4499  2.4025
19089SOL    HW257846   4.211   7.779   6.548  0.7093 -0.9381 -0.7833
19090SOL     OW57847   1.905   8.406   1.775 -0.0991 -0.0732  0.4151
19090SOL    HW157848   1.889   8.460   1.852 -2.2102 -0.7097  0.4693
19090SOL    HW257849   1.914   8.317   1.809  2.3302  0.0118  0.2151
19091SOL     OW57850   2.557   9.099   8.346 -0.3104  0.4660  0.1126
19091SOL    HW157851   2.605   9.042   8.406  0.0270  1.6494  1.0099
19091SOL    HW257852   2.522   9.169   8.402 -0.9498  0.9831 -0.9012
19092SOL     OW57853   0.678   9.080   0.887  0.9535  0.2263 -0.4163
19092SOL    HW157854   0.725   9.163   0.875  3.2666 -1.1291 -1.3436
19092SOL    HW257855   0.632   9.067   0.804  1.4380  0.1148 -0.6758
19093SOL     OW57856   0.832   7.042   6.762 -0.2563 -0.0674  0.0714
19093SOL    HW157857   0.769   7.011   6.697  1.7304 -1.1491 -1.4626
19093SOL    HW257858   0.798   7.127   6.791 -1.9674 -0.2456 -1.2840
19094SOL     OW57859   6.759   0.012   7.646 -0.6068 -0.2033  0.2151
19094SOL    HW157860   6.736   0.011   7.553 -0.4997  0.8144  0.1619
19094SOL    HW257861   6.677  -0.009   7.691 -0.5235 -1.3128 -0.1137
19095SOL     OW57862   3.734   9.162   8.606  0.0345  0.1915 -0.1740
19095SOL    HW157863   3.826   9.158   8.579  0.2589  0.5982  0.5154
19095SOL    HW257864   3.728   9.242   8.659 -0.9076  0.6221 -0.9103
19096SOL     OW57865   1.380   7.952   9.101 -0.2392  0.0702 -0.3935
19096SOL    HW157866   1.358   7.948   9.008 -1.8462 -1.7188 -0.0109
19096SOL    HW257867   1.451   7.888   9.111 -0.6311 -0.3468 -0.2635
19097SOL     OW57868   2.605   5.756   8.458  0.6865  0.0236 -0.3769
19097SOL    HW157869   2.540   5.735   8.525 -0.9817  1.1516 -1.5746
19097SOL    HW257870   2.628   5.670   8.421  2.5075 -0.7740  2.2767
19098SOL     OW57871   8.253   3.143   7.814 -0.3167  0.3007  0.0977
19098SOL    HW157872   8.266   3.223   7.763 -1.6321  0.5910  0.1941
19098SOL    HW257873   8.186   3.166   7.878 -0.4350 -0.7717  0.3694
19099SOL     OW57874   0.313   5.101   3.442 -0.3481  0.5075 -0.0565
19099SOL    HW157875   0.354   5.081   3.358 -2.5619  1.2133 -1.3758
19099SOL    HW257876   0.382   5.146   3.491  1.2596 -0.6678 -1.1318
19100SOL     OW57877   4.329   5.661   6.868 -0.2969 -0.4600 -0.2857
19100SOL    HW157878   4.286   5.660   6.954 -3.4399 -0.8750 -1.6913
19100SOL    HW257879   4.420   5.680   6.886 -1.4718  3.4121  2.8844
19101SOL     OW57880   5.123   2.283   7.395 -0.5118  0.3752 -0.2562
19101SOL    HW157881   5.082   2.335   7.464  0.4008  1.1266 -0.2677
19101SOL    HW257882   5.070   2.204   7.390 -1.0785  0.6812  0.7365
19102SOL     OW57883   8.773   6.109   9.760 -0.1225 -0.0681  0.1135
19102SOL    HW157884   8.841   6.118   9.694 -2.1090  0.9642 -1.9520
19102SOL    HW257885   8.787   6.183   9.819  1.9258 -1.2366  1.2045
19103SOL     OW57886   3.556   8.212   8.294 -0.5322  0.4573 -0.1856
19103SOL    HW157887   3.574   8.241   8.383  0.2687  0.0552 -0.2055
19103SOL    HW257888   3.633   8.240   8.244 -0.5908 -0.0657 -0.5742
19104SOL     OW57889   7.125   8.744   4.223  0.0399 -0.8675 -0.0799
19104SOL    HW157890   7.144   8.833   4.253  0.7478 -0.9007 -0.4184
19104SOL    HW257891   7.055   8.714   4.281 -0.6383  0.1266 -0.3506
19105SOL     OW57892   6.582   9.809   7.498  0.4320 -0.3451  0.3817
19105SOL    HW157893   6.597   9.714   7.498  0.1502 -0.4395 -1.9979
19105SOL    HW257894   6.637   9.842   7.427 -2.8218  0.6360 -1.8697
19106SOL     OW57895   0.431   1.684   3.942 -0.2660  0.0842  0.0828
19106SOL    HW157896   0.522   1.712   3.943 -0.7146  1.7340 -1.0654
19106SOL    HW257897   0.387   1.742   4.005 -1.0725  1.5805 -1.7718
19107SOL     OW57898   6.075   2.523   9.541  0.1861 -0.5468 -0.2263
19107SOL    HW157899   5.987   2.554   9.518  0.8908  1.8837  0.0115
19107SOL    HW257900   6.077   2.529   9.637  0.0995 -2.1829 -0.1061
19108SOL     OW57901   2.682   8.149   1.151  0.5413  0.1787 -0.0805
19108SOL    HW157902   2.627   8.188   1.083  0.0826 -0.1811  0.0794
19108SOL    HW257903   2.747   8.217   1.171  1.5719 -0.2148 -1.8654
19109SOL     OW57904   6.455   8.799   0.427 -0.4467  0.3331  0.2042
19109SOL    HW157905   6.515   8.735   0.467 -1.0457 -0.8242 -0.6677
19109SOL    HW257906   6.394   8.745   0.377 -3.7628  1.2250  2.9057
19110SOL     OW57907   9.246   4.749   2.281  0.9139  0.3125  0.3218
19110SOL    HW157908   9.320   4.762   2.340  1.3160 -1.6917  0.3545
19110SOL    HW257909   9.197   4.675   2.319 -0.2236  0.5918 -0.5258
19111SOL     OW57910   2.552   8.394   5.200  0.0398 -0.4311 -0.7746
19111SOL    HW157911   2.496   8.467   5.223  0.0886 -0.5422 -0.2924
19111SOL    HW257912   2.622   8.433   5.147 -0.3522 -0.2555 -1.1692
19112SOL     OW57913   4.455   9.631   0.280 -0.7334  0.3293 -0.7752
19112SOL    HW157914   4.538   9.583   0.280 -1.1728 -0.4348 -0.0749
19112SOL    HW257915   4.451   9.670   0.192  0.0241 -0.2099 -1.0661
19113SOL     OW57916   9.866   6.253   9.601  0.3386 -0.5983  0.4253
19113SOL    HW157917   9.925   6.192   9.644 -0.9067 -1.1539  1.3996
19113SOL    HW257918   9.851   6.322   9.666  1.4560  0.6191 -0.5332
19114SOL     OW57919   8.369   2.513   3.705  0.0602 -0.0625 -0.8249
19114SOL    HW157920   8.455   2.482   3.732 -0.4698 -1.6114 -0.8162
19114SOL    HW257921   8.366   2.604   3.735  1.0978 -0.4481  0.5724
19115SOL     OW57922   4.281   7.972   5.665  0.2038  0.0108 -0.2220
19115SOL    HW157923   4.371   7.939   5.657 -0.4556 -1.7567 -0.7946
19115SOL    HW257924   4.253   7.985   5.575  0.5311  2.5339 -0.0115
19116SOL     OW57925   1.364   4.481   2.390  0.6506  0.2582  0.6761
19116SOL    HW157926   1.311   4.509   2.465 -0.2629  0.0954  0.1052
19116SOL    HW257927   1.450   4.520   2.405  0.2947  0.7530  1.4844
19117SOL     OW57928   7.590   7.887   0.287  0.0396  0.1175 -0.2420
19117SOL    HW157929   7.513   7.844   0.323  0.2531  2.3158  3.3601
19117SOL    HW257930   7.660   7.868   0.349  1.8876  0.0804 -2.1942
19118SOL     OW57931   4.344   1.361   5.883  0.5800  0.5570 -0.1232
19118SOL    HW157932   4.370   1.270   5.868 -0.1009  0.3763 -0.2784
19118SOL    HW257933   4.261   1.370   5.835 -0.0755  0.8508  1.0186
19119SOL     OW57934   3.955   7.383   7.900  0.0823 -0.6508 -0.0627
19119SOL    HW157935   3.977   7.422   7.816  0.7039  0.7241  0.7097
19119SOL    HW257936   3.881   7.434   7.932 -0.9791 -1.9745 -0.3099
19120SOL     OW57937   5.551   6.578   9.115 -0.3505 -0.0848  0.3144
19120SOL    HW157938   5.492   6.503   9.109 -0.3831 -0.0386  0.0204
19120SOL    HW257939   5.638   6.540   9.124 -0.4788 -0.1492  1.3225
19121SOL     OW57940   2.625   3.407   2.592  0.1483  0.4629 -0.2938
19121SOL    HW157941   2.567   3.334   2.572 -0.3360  0.9503 -0.6895
19121SOL    HW257942   2.576   3.460   2.655  1.5024 -0.8554  2.0394
19122SOL     OW57943   3.631   9.858   2.124 -0.5696  0.1970 -0.5130
19122SOL    HW157944   3.538   9.841   2.116 -0.5380 -0.0758 -0.3269
19122SOL    HW257945   3.671   9.810   2.051 -0.3662 -1.5579  0.6688
19123SOL     OW57946   4.132   6.829   1.420 -0.2685 -0.0798 -0.1242
19123SOL    HW157947   4.169   6.747   1.387  1.1472  0.7039 -0.5886
19123SOL    HW257948   4.161   6.895   1.357 -0.3276  0.9580  0.9040
19124SOL     OW57949   9.930   1.434   1.713  0.0376 -0.4754  0.0802
19124SOL    HW157950  10.003   1.383   1.748  0.1569 -0.3011  0.0852
19124SOL    HW257951   9.892   1.476   1.790  1.0339  0.8697 -0.1251
19125SOL     OW57952   9.315   8.619   7.839 -0.3808  0.5542 -0.0624
19125SOL    HW157953   9.268   8.697   7.809  0.8446  1.1700 -0.4060
19125SOL    HW257954   9.402   8.651   7.864  0.4510 -0.8411 -1.0684
19126SOL     OW57955   0.663   8.219   8.394 -0.5124  0.0730 -0.8527
19126SOL    HW157956   0.642   8.243   8.304 -1.3565 -1.3103 -1.0477
19126SOL    HW257957   0.654   8.301   8.443 -1.5315  0.5389 -1.7852
19127SOL     OW57958   0.923   8.966   1.437 -0.3425 -0.4747  0.3667
19127SOL    HW157959   0.872   8.948   1.516 -1.8690 -2.4165 -0.9686
19127SOL    HW257960   0.858   8.969   1.367  0.8291  2.2666 -0.7730
19128SOL     OW57961   7.650   3.938   0.433  0.5653  0.5782  0.4545
19128SOL    HW157962   7.597   4.016   0.416 -0.1814 -0.2915 -1.4101
19128SOL    HW257963   7.633   3.880   0.359  2.6141 -0.5652  0.7983
19129SOL     OW57964   3.446   4.183   0.460  0.8200 -0.1734 -0.1003
19129SOL    HW157965   3.475   4.247   0.525  0.4937 -0.1825  0.0535
19129SOL    HW257966   3.507   4.195   0.386  1.0407 -0.0004  0.1089
19130SOL     OW57967   4.630   7.319   5.901 -0.3276  0.7302  0.2152
19130SOL    HW157968   4.602   7.327   5.810 -2.9146  1.0286  0.9692
19130SOL    HW257969   4.611   7.229   5.925 -1.2476  1.0996  0.9222
19131SOL     OW57970   1.363   0.720   9.190  0.1358 -0.4786 -0.0677
19131SOL    HW157971   1.341   0.628   9.209  0.6936 -0.5591  0.1957
19131SOL    HW257972   1.396   0.754   9.273  1.3060 -0.4478 -0.5349
19132SOL     OW57973   6.357   2.780   1.110  0.0601  0.2676 -0.0055
19132SOL    HW157974   6.437   2.785   1.162 -0.3196  0.9425  0.5362
19132SOL    HW257975   6.387   2.760   1.021  0.6891 -1.2665  0.5268
19133SOL     OW57976   3.973   0.077   9.013 -0.4682 -1.1425  0.2991
19133SOL    HW157977   3.950   0.164   9.045  0.7751 -1.2162  1.5194
19133SOL    HW257978   3.900   0.021   9.038 -0.6092 -0.7165  0.8546
19134SOL     OW57979   0.262   1.660   3.502  0.1556 -0.4547 -0.0779
19134SOL    HW157980   0.282   1.579   3.454  0.2032 -0.7304  0.4040
19134SOL    HW257981   0.237   1.630   3.589  2.8201  0.1611  1.0028
19135SOL     OW57982   2.599   2.312   7.568 -0.1632  1.1066 -0.4002
19135SOL    HW157983   2.554   2.299   7.485  0.7919  3.4961 -1.3769
19135SOL    HW257984   2.532   2.346   7.627 -1.0390 -1.3358  0.1532
19136SOL     OW57985   8.298   9.780   5.243  0.3978  0.0235  0.1309
19136SOL    HW157986   8.318   9.868   5.214 -0.0239 -0.2122 -0.9176
19136SOL    HW257987   8.381   9.733   5.238  0.8853  0.6315  1.8151
19137SOL     OW57988   4.597   8.073   2.939  0.2755 -0.4440 -0.0861
19137SOL    HW157989   4.600   8.010   2.867  0.6271 -2.2291  1.4386
19137SOL    HW257990   4.514   8.119   2.925 -0.2136 -1.5349 -1.0029
19138SOL     OW57991   3.567   4.927   3.597 -0.1158  0.4585 -0.3980
19138SOL    HW157992   3.591   5.017   3.616 -0.5143  0.4331  0.2476
19138SOL    HW257993   3.615   4.875   3.662 -0.8535  0.3098  0.0427
19139SOL     OW57994   3.881   3.526   0.998  0.3373 -0.1156  0.2772
19139SOL    HW157995   3.789   3.516   0.970  0.2089  0.9030  0.3097
19139SOL    HW257996   3.930   3.536   0.917  0.4985 -1.1239  0.2323
19140SOL     OW57997   3.539   6.559   4.511 -0.2405  0.7323 -0.4219
19140SOL    HW157998   3.532   6.567   4.415  1.8618  3.2775 -0.4791
19140SOL    HW257999   3.456   6.591   4.544 -0.8706  0.1295 -1.3710
19141SOL     OW58000   1.506   7.286   8.694 -0.2381  0.8627  0.0828
19141SOL    HW158001   1.575   7.314   8.754  0.3862  1.1757 -0.7683
19141SOL    HW258002   1.428   7.332   8.724  0.4257  2.3059 -0.3308
19142SOL     OW58003   3.715   9.863   0.605 -0.6451 -0.0136 -0.4566
19142SOL    HW158004   3.647   9.915   0.562 -1.2729 -0.6226 -0.2287
19142SOL    HW258005   3.721   9.900   0.693 -0.5055  0.2033 -0.5582
19143SOL     OW58006   1.180   5.973   6.697  0.1369 -0.8442  0.2143
19143SOL    HW158007   1.111   6.033   6.668  1.8596  1.3449  0.3894
19143SOL    HW258008   1.216   5.936   6.617  0.9809  0.6755 -0.1546
19144SOL     OW58009   9.288   4.787   6.769 -0.6436 -0.6105  0.1679
19144SOL    HW158010   9.376   4.825   6.777 -0.5747 -0.9883  1.3289
19144SOL    HW258011   9.273   4.782   6.674  1.1390 -1.7720 -0.1052
19145SOL     OW58012   5.618   2.752   2.010 -0.1160 -0.3095 -0.2263
19145SOL    HW158013   5.622   2.776   1.917 -0.9771 -0.5856 -0.3394
19145SOL    HW258014   5.527   2.766   2.035  0.0503 -0.4913  0.5131
19146SOL     OW58015   5.158   9.404   4.486  0.2120  0.3842 -0.2805
19146SOL    HW158016   5.079   9.413   4.540  0.4922  2.1044 -0.0760
19146SOL    HW258017   5.212   9.479   4.511  1.1052  0.2635 -1.7257
19147SOL     OW58018   2.834   9.421   5.610  0.1611  0.4079 -0.3935
19147SOL    HW158019   2.874   9.443   5.694 -0.6076 -0.2364  0.1581
19147SOL    HW258020   2.769   9.490   5.595  0.5964  0.7631 -0.6817
19148SOL     OW58021   0.140   0.382   3.496 -0.1729  0.3717 -0.9165
19148SOL    HW158022   0.186   0.327   3.560  0.2360  0.7524 -0.8767
19148SOL    HW258023   0.050   0.350   3.497  0.0300 -0.2134 -0.7998
19149SOL     OW58024   7.823   7.327   5.685  0.1420 -0.4579  0.2744
19149SOL    HW158025   7.883   7.256   5.662  0.1093 -0.2372 -0.4953
19149SOL    HW258026   7.740   7.284   5.703 -0.0322 -0.5612 -0.7639
19150SOL     OW58027   4.450   1.651   5.334  0.1132 -0.0354 -0.0196
19150SOL    HW158028   4.374   1.704   5.355  0.6758  1.4583 -1.5660
19150SOL    HW258029   4.518   1.680   5.395 -0.1114 -0.3090  0.3645
19151SOL     OW58030   3.455   3.095   5.482  0.1892  1.1391 -0.1714
19151SOL    HW158031   3.366   3.072   5.456 -0.0461  0.7077  0.9656
19151SOL    HW258032   3.453   3.097   5.578  0.9653  2.9231 -0.1528
19152SOL     OW58033   7.879   7.567   9.748 -0.0582 -0.3221 -0.1015
19152SOL    HW158034   7.849   7.614   9.825  1.6738  1.5150 -0.4835
19152SOL    HW258035   7.880   7.633   9.678  0.6209 -1.3759 -1.1282
19153SOL     OW58036   5.228   1.988   6.118 -0.2777 -0.0309 -0.1361
19153SOL    HW158037   5.204   1.985   6.211 -0.6195  1.7766 -0.1291
19153SOL    HW258038   5.179   1.917   6.079  1.1843 -1.9460  1.3171
19154SOL     OW58039   9.609   4.614   8.337 -0.2322 -0.3425  0.6032
19154SOL    HW158040   9.557   4.677   8.387 -1.6094 -0.7601 -0.2489
19154SOL    HW258041   9.699   4.645   8.346 -0.8100  1.4401  0.6313
19155SOL     OW58042   7.318   8.520   0.120  0.3172 -0.3421 -0.0858
19155SOL    HW158043   7.343   8.608   0.092  0.5820 -0.4500 -0.1964
19155SOL    HW258044   7.370   8.461   0.064 -0.5506 -0.5796 -0.6584
19156SOL     OW58045   1.387   1.237   1.732  0.3535 -0.2645  0.2508
19156SOL    HW158046   1.322   1.206   1.795  0.1490 -0.6799 -0.1518
19156SOL    HW258047   1.408   1.159   1.679 -1.4676  0.5821 -1.9195
19157SOL     OW58048   8.554   5.188   0.592  0.4124 -0.2782  0.2287
19157SOL    HW158049   8.465   5.218   0.577  0.5587  0.8123  1.3223
19157SOL    HW258050   8.609   5.255   0.550  0.7242 -0.3424  0.5309
19158SOL     OW58051   2.297   9.175   4.171  0.2285  0.3518  0.0142
19158SOL    HW158052   2.271   9.263   4.141 -0.7674  0.6471  1.6417
19158SOL    HW258053   2.321   9.187   4.263 -0.0192 -1.1035  0.2886
19159SOL     OW58054   7.531   3.658   5.319 -0.1454  0.4373 -0.3881
19159SOL    HW158055   7.586   3.650   5.397 -0.5650  2.5169  0.1860
19159SOL    HW258056   7.445   3.629   5.349  0.4024 -2.2201 -1.1203
19160SOL     OW58057   2.613   6.186   2.433 -0.0898  0.0750 -0.1016
19160SOL    HW158058   2.707   6.177   2.449 -0.2496 -2.6312 -0.3214
19160SOL    HW258059   2.581   6.238   2.506  1.8293  2.8697 -1.0686
19161SOL     OW58060   6.422   1.903   9.506 -0.3340  0.0096 -0.5584
19161SOL    HW158061   6.419   1.983   9.558 -0.0595 -0.4132  0.1097
19161SOL    HW258062   6.338   1.860   9.522  0.5583 -1.1659  1.2250
19162SOL     OW58063   3.076   7.215   1.855  0.3179 -0.3719  0.2408
19162SOL    HW158064   3.033   7.130   1.844  0.5514 -0.9582  3.0871
19162SOL    HW258065   3.169   7.196   1.852  0.3716 -0.0961  0.1149
19163SOL     OW58066   3.014   4.872   4.153  0.3964 -0.0762 -0.6469
19163SOL    HW158067   3.000   4.813   4.227  0.3350  0.3294 -0.3315
19163SOL    HW258068   2.927   4.883   4.115  0.5017 -0.6554 -1.0702
19164SOL     OW58069   1.526   5.105   5.048  0.1317 -0.0726 -0.2289
19164SOL    HW158070   1.565   5.182   5.090 -0.2807 -0.2759  0.5504
19164SOL    HW258071   1.522   5.040   5.118 -1.2151 -0.1961 -0.4021
19165SOL     OW58072   5.275   4.597   1.495 -0.3838  0.0267 -0.1269
19165SOL    HW158073   5.229   4.676   1.520 -0.6813 -0.6402  1.5579
19165SOL    HW258074   5.363   4.608   1.531 -0.5174 -0.5323  0.3785
19166SOL     OW58075   3.626   5.611   5.317 -0.6367 -0.5386  0.5704
19166SOL    HW158076   3.651   5.700   5.292 -0.5498 -0.5202  0.7198
19166SOL    HW258077   3.678   5.593   5.396  1.3661 -1.6788 -0.9000
19167SOL     OW58078   9.391   0.385   1.993 -0.4407  0.7374  0.1997
19167SOL    HW158079   9.479   0.420   1.978  0.2872 -0.5359  1.2991
19167SOL    HW258080   9.344   0.403   1.912  0.8932  1.2763 -0.4830
19168SOL     OW58081   9.407   3.564   2.582  0.1199  0.1240 -0.2653
19168SOL    HW158082   9.333   3.525   2.535  0.4724  0.4292 -1.0867
19168SOL    HW258083   9.367   3.633   2.636 -0.4014 -0.8332  0.5994
19169SOL     OW58084   7.521   9.422   2.199 -0.2117 -0.3416 -0.1293
19169SOL    HW158085   7.615   9.440   2.192 -0.0254 -0.0368  2.1940
19169SOL    HW258086   7.479   9.506   2.178 -0.0354 -0.6340 -1.7697
19170SOL     OW58087   7.870   5.845   4.031 -0.2012  0.4310  0.8611
19170SOL    HW158088   7.960   5.878   4.034  0.9524 -2.4409  0.4474
19170SOL    HW258089   7.825   5.907   3.973  2.3874  0.0996 -1.7539
19171SOL     OW58090   2.672   4.885   8.377 -0.2316  0.2314 -0.0519
19171SOL    HW158091   2.759   4.873   8.417 -0.0824  0.0525 -0.4240
19171SOL    HW258092   2.619   4.925   8.446  0.8778  2.8976 -0.5966
19172SOL     OW58093   3.058   3.555   7.052 -0.4702  0.7600  0.3430
19172SOL    HW158094   3.063   3.568   7.147 -2.0360  1.2453  0.3756
19172SOL    HW258095   2.965   3.550   7.033 -0.1694  0.2661 -1.1370
19173SOL     OW58096   5.096   6.821   1.668 -0.3296 -0.1904 -0.9243
19173SOL    HW158097   5.182   6.862   1.666 -0.9141  1.2020  0.1306
19173SOL    HW258098   5.113   6.727   1.658  1.4167 -0.0663  0.4200
19174SOL     OW58099   4.505   0.905   8.457  0.4646 -0.3368 -0.2619
19174SOL    HW158100   4.531   0.906   8.549 -1.6530 -0.3636  0.4075
19174SOL    HW258101   4.574   0.952   8.411  1.9157 -0.9171  1.2307
19175SOL     OW58102   9.150   0.457   0.101  0.2736 -0.4457  0.4726
19175SOL    HW158103   9.096   0.485   0.027  0.3653  2.9189  1.5340
19175SOL    HW258104   9.213   0.396   0.062 -2.0572 -1.8617 -1.4221
19176SOL     OW58105   1.227   4.466   2.641  0.2187  0.1735 -0.0040
19176SOL    HW158106   1.309   4.482   2.686  0.9033 -2.3987 -0.1916
19176SOL    HW258107   1.164   4.522   2.685  1.7199  0.9106  1.2915
19177SOL     OW58108   2.507   4.344   0.227 -0.0390  0.5603  0.3965
19177SOL    HW158109   2.429   4.319   0.177 -2.3316  2.6371  2.6497
19177SOL    HW258110   2.496   4.437   0.244  2.5089  0.7197  1.6026
19178SOL     OW58111   1.128   6.994   7.573  0.0998 -0.1415 -0.4889
19178SOL    HW158112   1.110   6.901   7.587 -0.9342  0.0471 -0.4890
19178SOL    HW258113   1.194   7.015   7.639 -2.1603 -0.0991  1.9201
19179SOL     OW58114   8.312   3.593   4.651  0.6217 -0.1316 -0.0991
19179SOL    HW158115   8.284   3.560   4.566 -0.2796 -0.0833  0.1672
19179SOL    HW258116   8.276   3.530   4.714 -1.6533  1.6213  0.4706
19180SOL     OW58117   0.014   1.727   3.124  0.3308  0.4962 -0.3920
19180SOL    HW158118  -0.054   1.782   3.161  0.7441  0.8704 -0.1711
19180SOL    HW258119   0.096   1.765   3.157  0.7027  0.7198 -1.5329
19181SOL     OW58120   8.313   3.196   5.542 -0.1370  0.1489 -0.9373
19181SOL    HW158121   8.358   3.117   5.512 -0.8835 -0.6086 -0.1012
19181SOL    HW258122   8.336   3.262   5.477  1.9764 -0.2598 -0.6928
19182SOL     OW58123   2.803   0.057   1.370  0.2734 -1.1465  0.2937
19182SOL    HW158124   2.783   0.082   1.460 -1.8887  1.7043 -0.8245
19182SOL    HW258125   2.728   0.004   1.343 -1.2130  1.3577 -0.9152
19183SOL     OW58126   7.079   5.926   6.516 -0.7051  0.1575 -0.1257
19183SOL    HW158127   7.158   5.880   6.488  1.0850  2.8537  0.1336
19183SOL    HW258128   7.038   5.954   6.434 -0.8435 -0.3602 -0.2374
19184SOL     OW58129   7.018   4.452   7.467 -0.5121 -0.4433 -0.1128
19184SOL    HW158130   7.109   4.472   7.490 -1.0087  1.4315  0.4403
19184SOL    HW258131   6.976   4.434   7.551 -1.1028  0.8931 -0.0924
19185SOL     OW58132   5.340   4.988   3.292  0.6183 -0.2946 -0.6107
19185SOL    HW158133   5.346   5.024   3.381  0.3053 -0.0785 -0.6739
19185SOL    HW258134   5.390   5.050   3.238 -1.0024  0.8113 -0.9342
19186SOL     OW58135   2.049   5.140   9.761 -0.2379 -0.6537  0.1415
19186SOL    HW158136   2.124   5.130   9.703  1.0683 -0.6403  1.7640
19186SOL    HW258137   2.008   5.053   9.762 -0.1196 -0.7276 -0.5511
19187SOL     OW58138   7.585   0.790   9.331 -0.4663 -0.0619  0.1416
19187SOL    HW158139   7.555   0.844   9.405 -0.6483  0.7879 -0.5436
19187SOL    HW258140   7.521   0.806   9.262  0.6998  0.5807 -0.8244
19188SOL     OW58141   0.369   8.895   5.644 -0.1944 -0.5149 -0.6584
19188SOL    HW158142   0.344   8.804   5.628  0.6280 -0.8091 -0.3001
19188SOL    HW258143   0.320   8.920   5.723 -0.6511 -0.5461 -0.9282
19189SOL     OW58144   9.259   8.054   9.834 -0.4190 -0.2243 -0.2124
19189SOL    HW158145   9.216   8.026   9.915  1.0418  0.0366  0.7176
19189SOL    HW258146   9.299   7.975   9.799  1.0891  0.0733  0.7355
19190SOL     OW58147   4.869   9.484   1.601 -0.4234  0.0168 -0.5928
19190SOL    HW158148   4.960   9.479   1.572 -0.0413  0.7693  0.4190
19190SOL    HW258149   4.862   9.417   1.670 -0.2290  0.9181  0.3275
19191SOL     OW58150   3.961   7.816   5.568 -0.0709  0.5704  0.0147
19191SOL    HW158151   4.042   7.780   5.533  0.2809  1.6783 -0.3448
19191SOL    HW258152   3.948   7.898   5.520 -1.1205  0.6684  0.4422
19192SOL     OW58153   6.422   0.938   2.111 -0.0828 -0.0162  0.1914
19192SOL    HW158154   6.374   0.909   2.189 -0.4980  0.7676  0.2431
19192SOL    HW258155   6.514   0.926   2.133 -0.1659  0.8177  1.0799
19193SOL     OW58156   5.784   2.930   6.716 -0.1438 -0.3896  0.0369
19193SOL    HW158157   5.815   2.840   6.723 -0.2807 -0.3087  1.9838
19193SOL    HW258158   5.789   2.965   6.804 -0.7715  1.3079 -0.5527
19194SOL     OW58159   6.336   2.037   6.679 -0.4919 -0.6244 -0.1675
19194SOL    HW158160   6.253   2.054   6.723 -0.8193 -0.8195 -0.6996
19194SOL    HW258161   6.322   2.069   6.590  0.0749 -0.4685 -0.2026
19195SOL     OW58162   1.284   6.373   3.800  0.4575  0.1640 -0.2949
19195SOL    HW158163   1.259   6.365   3.892 -0.0159  0.2156 -0.4170
19195SOL    HW258164   1.375   6.405   3.803  0.2499  0.7287  0.1512
19196SOL     OW58165   1.678   8.819   6.251  0.2243 -0.1351 -0.5981
19196SOL    HW158166   1.615   8.858   6.190 -0.5896  1.2302  1.0406
19196SOL    HW258167   1.624   8.773   6.315  0.7092  2.1646  1.6040
19197SOL     OW58168   6.676   1.568   0.553 -0.3088 -0.0448  0.1649
19197SOL    HW158169   6.720   1.556   0.469  0.5728 -1.2356  0.7652
19197SOL    HW258170   6.628   1.650   0.543 -0.1158 -0.0825 -1.4461
19198SOL     OW58171   2.083   7.760   6.351 -0.0136  0.0657 -0.0557
19198SOL    HW158172   2.006   7.721   6.393  0.0077  0.0445 -0.0359
19198SOL    HW258173   2.080   7.730   6.261  0.6616 -0.9688  0.2575
19199SOL     OW58174   2.754   1.599   0.192  0.4024  0.3797 -0.1486
19199SOL    HW158175   2.783   1.659   0.260  2.6588 -0.5595 -0.2090
19199SOL    HW258176   2.776   1.643   0.110  0.3282  0.2859 -0.2194
19200SOL     OW58177   2.254   9.136   0.603 -0.4809 -0.2084 -0.2558
19200SOL    HW158178   2.244   9.068   0.536  1.4737 -0.6407 -0.1835
19200SOL    HW258179   2.334   9.182   0.578 -1.0340  1.1955  0.4659
19201SOL     OW58180   5.403   9.540   6.724 -0.1765  0.2719 -0.2248
19201SOL    HW158181   5.362   9.468   6.770 -1.0303  1.4124  0.8663
19201SOL    HW258182   5.336   9.571   6.663 -0.4340  1.1498  0.4687
19202SOL     OW58183   5.910   4.645   7.946  0.0270  0.1456 -0.6714
19202SOL    HW158184   5.838   4.663   8.007 -0.8326 -1.2074 -1.2368
19202SOL    HW258185   5.979   4.609   8.002  0.1767  1.1683 -0.1662
19203SOL     OW58186   1.785   2.570   4.450  0.8925  0.3017  0.0565
19203SOL    HW158187   1.733   2.650   4.441  2.6867  1.6780  1.1308
19203SOL    HW258188   1.812   2.569   4.541  1.2113 -1.3586 -0.0373
19204SOL     OW58189   5.068   4.634   2.607 -0.7736 -0.1909 -0.5849
19204SOL    HW158190   5.162   4.625   2.623  0.4206  7.2512 -0.2422
19204SOL    HW258191   5.028   4.630   2.694 -0.6938 -1.9238 -0.5918
19205SOL     OW58192   0.765   8.359   2.782 -0.1138 -0.3816  0.5909
19205SOL    HW158193   0.692   8.361   2.721 -0.4764  1.9385  1.0355
19205SOL    HW258194   0.741   8.292   2.846 -1.4886 -0.1659  0.3170
19206SOL     OW58195   3.692   2.039   8.689 -0.8397 -0.0182 -0.3093
19206SOL    HW158196   3.697   2.123   8.644  0.6179  1.0320  1.6466
19206SOL    HW258197   3.615   2.046   8.746 -0.0814  0.4844  0.6890
19207SOL     OW58198   1.890   1.284   8.646 -0.2194 -0.1357 -0.6594
19207SOL    HW158199   1.857   1.212   8.699  3.2028 -0.0012  1.9944
19207SOL    HW258200   1.978   1.257   8.620  1.4399  3.1356  0.9105
19208SOL     OW58201   1.760   3.955   6.679 -0.3349  0.5266 -0.1172
19208SOL    HW158202   1.694   3.903   6.726 -0.4320 -0.1729 -1.0146
19208SOL    HW258203   1.843   3.911   6.696 -0.6055 -0.8572 -2.1143
19209SOL     OW58204   2.916   0.283   6.098  0.8607  0.2864 -0.6780
19209SOL    HW158205   2.828   0.287   6.136  0.1650  0.4740 -2.2651
19209SOL    HW258206   2.968   0.237   6.165  0.0405  1.8416  1.1273
19210SOL     OW58207   3.059   5.995   7.713 -0.5632  0.2300 -0.5950
19210SOL    HW158208   3.044   6.061   7.645  0.6691 -1.9643 -3.2442
19210SOL    HW258209   2.971   5.963   7.735 -1.2568  3.1056  1.3126
19211SOL     OW58210   9.059   7.948   4.729 -0.1122  0.3079  0.9380
19211SOL    HW158211   9.077   7.913   4.641  2.0523 -0.2124  1.5096
19211SOL    HW258212   9.146   7.964   4.766 -0.9635  0.4617  3.0114
19212SOL     OW58213   6.033   2.587   8.767 -0.0542 -0.1738  0.3036
19212SOL    HW158214   6.049   2.622   8.680  0.7676 -0.9142  0.1473
19212SOL    HW258215   5.938   2.596   8.779 -0.4534 -1.6256 -1.3489
19213SOL     OW58216   2.167   9.422   9.190 -0.1758  0.2675 -0.0070
19213SOL    HW158217   2.194   9.330   9.193 -2.4864 -0.4639  0.5066
19213SOL    HW258218   2.236   9.468   9.237  0.3370 -1.3925  0.9727
19214SOL     OW58219   3.506   3.214   0.487  0.7053  0.1717 -0.6462
19214SOL    HW158220   3.503   3.310   0.487 -0.3333  0.1535 -0.3828
19214SOL    HW258221   3.566   3.192   0.416  0.7880  1.0173 -0.8481
19215SOL     OW58222   9.147   4.187   6.842  0.3072  0.5347 -0.4792
19215SOL    HW158223   9.134   4.254   6.774  1.6407  1.3051 -0.0209
19215SOL    HW258224   9.212   4.128   6.805  1.6019  1.3764  0.3782
19216SOL     OW58225   0.207   5.034   3.693 -0.0807  0.2114  0.3523
19216SOL    HW158226   0.273   4.965   3.708 -0.2359  0.1899  0.9351
19216SOL    HW258227   0.233   5.073   3.609  0.6494  0.1719  0.5521
19217SOL     OW58228   1.817   1.492   2.774 -0.0040  0.6740 -0.0527
19217SOL    HW158229   1.905   1.512   2.743 -0.5406  3.5853  0.0027
19217SOL    HW258230   1.768   1.469   2.695  0.5897 -0.2219 -0.1758
19218SOL     OW58231   8.049   2.797   5.433  0.2842  0.2546 -0.4217
19218SOL    HW158232   8.044   2.708   5.398 -0.2261 -0.7838  2.0915
19218SOL    HW258233   7.964   2.836   5.411 -0.7003 -0.9599  1.0370
19219SOL     OW58234   6.870   1.895   6.876 -0.5699 -0.1151 -0.0434
19219SOL    HW158235   6.965   1.904   6.867 -0.5676  0.6935  0.7540
19219SOL    HW258236   6.857   1.863   6.965 -1.0983  0.7707  0.2082
19220SOL     OW58237   7.632   7.656   6.172  0.4954  0.2574 -0.4376
19220SOL    HW158238   7.716   7.680   6.134 -1.2844  0.0787 -5.1354
19220SOL    HW258239   7.579   7.735   6.168 -0.4974 -0.3891 -0.5818
19221SOL     OW58240   3.423   6.812   1.056  0.3078  0.0875 -0.1403
19221SOL    HW158241   3.392   6.760   0.981  0.9908  2.0180 -1.8598
19221SOL    HW258242   3.395   6.762   1.133 -0.6902 -1.8447 -1.6576
19222SOL     OW58243   2.129   9.593   0.977 -0.6363 -0.0378  0.0970
19222SOL    HW158244   2.115   9.584   0.883 -1.3240 -0.7832  0.2514
19222SOL    HW258245   2.043   9.574   1.016  0.0612 -1.6759  0.9524
19223SOL     OW58246   5.312   7.619   1.452 -0.1444  0.0189  0.7470
19223SOL    HW158247   5.312   7.628   1.356 -0.4569 -2.2591  0.4647
19223SOL    HW258248   5.226   7.650   1.479  0.2343  1.4307  0.4108
19224SOL     OW58249   4.460   0.585   7.631 -0.3345 -0.2159  0.0001
19224SOL    HW158250   4.425   0.603   7.718 -0.7910 -0.5829 -0.1012
19224SOL    HW258251   4.502   0.666   7.605 -1.6297  0.4452 -0.1199
19225SOL     OW58252   5.332   9.799   9.266 -0.1464 -0.3835 -0.8735
19225SOL    HW158253   5.390   9.859   9.314 -0.0081 -1.0207 -0.2274
19225SOL    HW258254   5.324   9.723   9.323 -1.7478 -0.2512 -0.8824
19226SOL     OW58255   6.334   7.921   4.672 -0.6157 -0.1112  0.3540
19226SOL    HW158256   6.423   7.937   4.642 -1.2960  1.7699 -0.8280
19226SOL    HW258257   6.279   7.971   4.613 -2.6721 -2.8132 -0.2169
19227SOL     OW58258   2.310   5.250   9.066 -0.6762 -0.3621 -0.1416
19227SOL    HW158259   2.324   5.168   9.114  1.0792 -0.8556 -1.3710
19227SOL    HW258260   2.399   5.281   9.047 -1.2635  2.2726  0.9351
19228SOL     OW58261   5.340   6.443   0.639 -0.5058  0.3293  0.0616
19228SOL    HW158262   5.261   6.390   0.644 -0.3583  0.0162 -0.7561
19228SOL    HW258263   5.409   6.387   0.677 -0.4755  0.1847 -0.2039
19229SOL     OW58264   2.609   1.116   7.377 -0.8537 -0.3515 -0.8984
19229SOL    HW158265   2.639   1.203   7.349  1.9179 -0.5580  1.0352
19229SOL    HW258266   2.545   1.133   7.445 -0.8937  0.1632 -1.0618
19230SOL     OW58267   7.725   6.775   3.347 -0.0282 -0.2162  0.0135
19230SOL    HW158268   7.773   6.708   3.397 -0.6270 -2.2308 -1.9428
19230SOL    HW258269   7.727   6.743   3.256 -1.0122  2.0689 -0.8933
19231SOL     OW58270   9.167   4.232   2.802 -0.0494  0.0654  0.1219
19231SOL    HW158271   9.148   4.143   2.771 -1.2611  0.0836  0.7638
19231SOL    HW258272   9.190   4.280   2.722 -0.0214 -0.6600 -0.3167
19232SOL     OW58273   2.795   5.101   9.358 -0.3130 -0.5777 -0.3450
19232SOL    HW158274   2.849   5.112   9.280 -1.7434 -0.0303 -1.2960
19232SOL    HW258275   2.857   5.078   9.427  1.0178 -0.8331 -1.5758
19233SOL     OW58276   7.554   4.048   0.893  0.1633  0.6137 -0.0663
19233SOL    HW158277   7.499   3.970   0.906  2.4164 -0.6863  3.2063
19233SOL    HW258278   7.622   4.020   0.832  0.7533  0.0319  0.8193
19234SOL     OW58279   5.398   2.620   6.646  0.3733 -0.1060 -0.3018
19234SOL    HW158280   5.439   2.706   6.649  0.9538 -0.3948  0.4711
19234SOL    HW258281   5.386   2.602   6.552 -1.0268  1.3826 -0.4530
19235SOL     OW58282   4.933   0.992   3.876  0.6401  0.3645 -0.1734
19235SOL    HW158283   4.915   1.084   3.857  1.3092  1.1085  2.3598
19235SOL    HW258284   4.992   0.964   3.806  1.2789  2.2134 -0.4352
19236SOL     OW58285   4.381   6.970   5.453 -0.1449  0.5594 -0.2157
19236SOL    HW158286   4.349   7.060   5.454 -0.0844  0.5816  0.2608
19236SOL    HW258287   4.407   6.954   5.363 -3.0640 -0.0123 -1.0922
19237SOL     OW58288   7.113   0.709   4.003  0.4930 -0.6222 -0.4779
19237SOL    HW158289   7.030   0.666   4.025  0.5928 -0.3292  0.5363
19237SOL    HW258290   7.164   0.705   4.084  1.0791  0.0745 -0.8014
19238SOL     OW58291   2.058   3.529   9.733 -0.1829  0.0695 -0.5661
19238SOL    HW158292   2.074   3.438   9.760 -1.5563 -0.0529 -0.0614
19238SOL    HW258293   2.078   3.530   9.640  2.2245 -0.1247 -0.1140
19239SOL     OW58294   2.603   4.386   4.962  0.4555 -0.3107  0.5063
19239SOL    HW158295   2.639   4.327   5.029  2.8050  0.0477 -0.3463
19239SOL    HW258296   2.607   4.473   5.003  1.1081 -0.1999  0.2165
19240SOL     OW58297   7.245   4.093   0.922  0.0604 -0.1045  0.4743
19240SOL    HW158298   7.304   4.050   0.984 -0.0158 -1.1228 -0.1312
19240SOL    HW258299   7.254   4.042   0.841  0.9367  1.8127 -0.6938
19241SOL     OW58300   1.650   1.786   5.371  0.1324 -0.7793  0.1774
19241SOL    HW158301   1.640   1.726   5.298  0.5379 -0.1796 -0.3825
19241SOL    HW258302   1.615   1.869   5.339 -2.9589 -1.3065  1.8421
19242SOL     OW58303   9.040   1.656   7.360  0.3085 -1.0558  0.0263
19242SOL    HW158304   9.072   1.742   7.331 -0.8431 -1.3798 -2.5374
19242SOL    HW258305   8.972   1.676   7.424 -1.0205  0.1103 -1.6359
19243SOL     OW58306   5.209   1.825   4.761 -0.0477 -0.2153  0.1101
19243SOL    HW158307   5.117   1.852   4.753 -0.1663 -1.0978 -2.3721
19243SOL    HW258308   5.259   1.906   4.754 -0.5996  0.3313  1.9393
19244SOL     OW58309   4.969   2.423   7.570 -0.0354 -0.3748  0.1403
19244SOL    HW158310   4.915   2.379   7.636  2.1277 -2.3662  0.7206
19244SOL    HW258311   4.907   2.450   7.502 -2.1570  0.4715  2.2681
19245SOL     OW58312   7.718   9.133   8.379 -0.8395 -0.5421  0.3295
19245SOL    HW158313   7.778   9.195   8.420 -1.3613  0.0793  0.1611
19245SOL    HW258314   7.718   9.158   8.287 -0.4111 -1.3294  0.1030
19246SOL     OW58315   8.397   0.329   1.437 -0.0951 -0.3199 -0.5062
19246SOL    HW158316   8.323   0.350   1.381 -0.9867  1.4852  1.2672
19246SOL    HW258317   8.466   0.303   1.375 -1.4532  0.1959 -2.3346
19247SOL     OW58318   0.663   9.825   6.218 -0.6707 -0.2091 -0.5538
19247SOL    HW158319   0.626   9.868   6.295 -0.0049  0.1873 -0.4477
19247SOL    HW258320   0.751   9.799   6.245  0.2995  1.6078 -1.7280
19248SOL     OW58321   7.922   1.337   6.906  0.3645  0.0539 -0.5908
19248SOL    HW158322   7.877   1.277   6.966  0.0585  0.7115 -0.1551
19248SOL    HW258323   7.877   1.325   6.822  1.6742 -1.8902 -1.0938
19249SOL     OW58324   8.295   6.960   0.912  0.1702  0.1235  0.2163
19249SOL    HW158325   8.270   7.046   0.878 -1.4037 -0.2638  0.3218
19249SOL    HW258326   8.382   6.944   0.876 -0.5011  0.7133 -1.7745
19250SOL     OW58327   3.820   7.090   7.919 -0.2914  0.0050 -0.0913
19250SOL    HW158328   3.823   7.095   7.823  0.2138 -0.3117 -0.0929
19250SOL    HW258329   3.857   7.173   7.948 -0.0177 -0.0890 -0.1684
19251SOL     OW58330   6.866   0.022   1.348  0.2092 -0.0794  0.3595
19251SOL    HW158331   6.947  -0.009   1.390 -0.7330 -0.0668  2.2905
19251SOL    HW258332   6.873   0.118   1.352  0.6685 -0.0568 -0.6781
19252SOL     OW58333   6.050   9.205   8.626 -0.3048 -0.1089 -0.2656
19252SOL    HW158334   6.085   9.189   8.713 -1.0011  0.6385  0.1677
19252SOL    HW258335   5.955   9.203   8.637 -0.4147  1.5573 -0.6768
19253SOL     OW58336   3.219   7.866   5.625  0.3470 -0.5267 -0.0927
19253SOL    HW158337   3.208   7.879   5.531  0.0735 -0.3735 -0.0432
19253SOL    HW258338   3.304   7.905   5.645  0.0026  0.2696 -0.1285
19254SOL     OW58339   0.488   7.371   4.346  0.3137 -0.2313 -1.1607
19254SOL    HW158340   0.403   7.415   4.345 -0.6074 -1.7844  0.7975
19254SOL    HW258341   0.467   7.279   4.331  1.1996 -1.1104  2.1810
19255SOL     OW58342   0.579   8.207   4.885  0.4410  0.0799 -0.0704
19255SOL    HW158343   0.510   8.147   4.855  0.0636 -0.3442  1.5251
19255SOL    HW258344   0.534   8.266   4.945  1.1437  0.9132 -0.3532
19256SOL     OW58345   5.308   4.100   9.853  0.0434 -0.3787  0.0894
19256SOL    HW158346   5.261   4.078   9.772 -0.2376  0.4372  0.0302
19256SOL    HW258347   5.397   4.118   9.824  0.1161 -0.7824  0.0546
19257SOL     OW58348   5.534   0.308   3.642 -0.0352  0.0164 -0.1556
19257SOL    HW158349   5.621   0.345   3.629 -0.6165  1.3139 -0.4482
19257SOL    HW258350   5.474   0.379   3.622 -1.1928 -1.0454 -0.5876
19258SOL     OW58351   0.881   5.143   3.745 -0.2737  0.2907  0.3285
19258SOL    HW158352   0.860   5.133   3.653  0.0666  3.5715 -0.2436
19258SOL    HW258353   0.817   5.206   3.778  0.5970  0.4187  1.8955
19259SOL     OW58354   5.884   3.669   7.916 -0.0567  0.5357 -0.1283
19259SOL    HW158355   5.812   3.635   7.969  0.7236 -0.4513  0.3234
19259SOL    HW258356   5.883   3.763   7.932 -0.6121  0.4082  0.6635
19260SOL     OW58357   7.849   1.582   9.772  0.2616 -0.5156 -0.8270
19260SOL    HW158358   7.887   1.667   9.753  1.9744 -1.7774 -3.6860
19260SOL    HW258359   7.908   1.542   9.835 -1.5528  0.9582  2.0414
19261SOL     OW58360   6.040   1.077   4.607  0.1818 -1.2148 -0.4383
19261SOL    HW158361   6.042   1.064   4.512  0.5723 -1.6792 -0.3737
19261SOL    HW258362   5.947   1.072   4.630  0.0688 -0.8866 -0.8247
19262SOL     OW58363   6.626   1.392   7.133  0.4471  0.3463  1.0385
19262SOL    HW158364   6.705   1.353   7.095  0.3887  1.2620 -0.0701
19262SOL    HW258365   6.613   1.344   7.215  1.9568 -0.0511  1.0750
19263SOL     OW58366   2.748   7.807   1.325 -0.2466  0.2924  0.6181
19263SOL    HW158367   2.732   7.722   1.284 -1.0506  1.6170 -1.9889
19263SOL    HW258368   2.664   7.853   1.319  0.6087  1.9042  0.4314
19264SOL     OW58369   7.326   4.923   7.528  0.2804  0.0111  0.3277
19264SOL    HW158370   7.389   4.884   7.467  0.1539 -0.8520  0.7401
19264SOL    HW258371   7.284   4.848   7.570 -0.1779  0.5959  0.9203
19265SOL     OW58372   4.116   6.246   9.166  0.1442 -0.0949 -0.2685
19265SOL    HW158373   4.033   6.199   9.169 -0.2840  0.6948  0.8162
19265SOL    HW258374   4.182   6.180   9.188  0.0126 -1.0742 -2.5096
19266SOL     OW58375   3.815   2.515   2.416  0.3080 -0.0408  0.6794
19266SOL    HW158376   3.815   2.555   2.329  2.4987 -0.1804  0.5586
19266SOL    HW258377   3.810   2.421   2.399 -1.0631 -0.0210  0.8203
19267SOL     OW58378   9.961   8.294   4.141 -0.0957  0.1712 -0.4181
19267SOL    HW158379   9.921   8.251   4.216  0.6723 -0.1879 -0.2002
19267SOL    HW258380  10.045   8.326   4.174  0.5411 -0.5670 -1.2877
19268SOL     OW58381   8.275   9.023   2.176  0.1786  0.4441  0.1990
19268SOL    HW158382   8.293   8.953   2.114 -0.0524 -0.4574  1.1074
19268SOL    HW258383   8.242   9.095   2.123  1.5327  0.2960 -0.8924
19269SOL     OW58384   5.212   3.822   4.762  0.4056 -0.3889 -0.7592
19269SOL    HW158385   5.306   3.803   4.761  0.4716 -0.0475 -1.7394
19269SOL    HW258386   5.195   3.857   4.849  1.0910 -0.9107 -0.4068
19270SOL     OW58387   2.067   3.971   4.120  0.0287 -0.0015 -0.1257
19270SOL    HW158388   2.152   3.940   4.088 -0.7309 -0.3744 -1.9100
19270SOL    HW258389   2.011   3.893   4.116 -1.1930  0.8897 -2.0377
19271SOL     OW58390   2.862   5.968   6.557 -0.2098  0.0231 -0.6630
19271SOL    HW158391   2.956   5.977   6.568 -0.2815 -0.1187  0.0700
19271SOL    HW258392   2.847   5.985   6.464  0.2483  2.5623 -0.3298
19272SOL     OW58393   0.099   6.737   0.372  0.4484 -0.4896  0.0736
19272SOL    HW158394   0.059   6.741   0.285  1.8921  1.6269 -0.5611
19272SOL    HW258395   0.027   6.759   0.432 -0.2100 -0.4116 -0.7299
19273SOL     OW58396   8.323   8.833   0.889 -0.0830 -0.7828 -0.0773
19273SOL    HW158397   8.239   8.806   0.926 -0.7233 -0.4499 -1.2176
19273SOL    HW258398   8.341   8.767   0.821  0.3790 -0.6382 -0.0932
19274SOL     OW58399   6.129   1.257   9.667  0.4861 -0.0008  0.7687
19274SOL    HW158400   6.134   1.310   9.747 -1.6993  0.7060  0.4971
19274SOL    HW258401   6.049   1.206   9.677  0.4030 -0.2135 -0.7841
19275SOL     OW58402   0.739   8.192   0.245  0.1472  0.3847 -0.5460
19275SOL    HW158403   0.657   8.242   0.248 -0.0248  0.0653  0.4444
19275SOL    HW258404   0.720   8.119   0.185 -0.6363 -0.2434  0.4238
19276SOL     OW58405   0.223   5.333   9.063  0.2452  0.1075 -0.1719
19276SOL    HW158406   0.209   5.276   9.138 -0.5484 -1.4826 -1.4774
19276SOL    HW258407   0.240   5.419   9.101 -1.0273 -0.4583  1.7914
19277SOL     OW58408   1.113   0.972   5.953 -0.3400  0.1865 -0.0061
19277SOL    HW158409   1.104   0.877   5.939 -0.3784 -0.3618  2.9236
19277SOL    HW258410   1.184   0.979   6.018  0.2003  2.2473 -0.7619
19278SOL     OW58411   6.015   6.718   2.544 -0.1071  0.0632  0.3695
19278SOL    HW158412   5.937   6.694   2.593 -0.3665  1.7705  0.8626
19278SOL    HW258413   5.989   6.797   2.496  1.2029  0.4312  0.2408
19279SOL     OW58414   2.151   8.996   8.807 -0.3500 -0.0522 -0.4259
19279SOL    HW158415   2.056   9.003   8.801 -0.6176 -0.8755  1.8294
19279SOL    HW258416   2.178   9.073   8.857 -0.0190 -0.5435  0.1640
19280SOL     OW58417   3.556   3.260   5.851  0.2993 -0.2659 -0.2822
19280SOL    HW158418   3.481   3.202   5.844 -0.9314  1.1727  0.4894
19280SOL    HW258419   3.572   3.290   5.762 -1.0192  0.5859 -0.2464
19281SOL     OW58420   0.923   5.898   9.491  0.3045 -0.3187 -0.0246
19281SOL    HW158421   0.960   5.854   9.415 -0.4197 -2.5102  0.8138
19281SOL    HW258422   0.828   5.897   9.476  0.1998 -0.1788  0.5967
19282SOL     OW58423   3.601   7.186   2.223 -0.7964  0.3610 -0.4495
19282SOL    HW158424   3.569   7.257   2.167  0.7886  0.5513 -1.1437
19282SOL    HW258425   3.684   7.219   2.259 -0.0795 -1.0999 -0.7180
19283SOL     OW58426   9.876   0.770   4.658  0.0650  0.0883  0.0826
19283SOL    HW158427   9.883   0.827   4.582 -2.3579 -1.5771 -1.5460
19283SOL    HW258428   9.793   0.795   4.699 -0.5697 -1.5698 -0.1208
19284SOL     OW58429   5.105   3.604   7.788 -0.2940  0.3269 -0.6112
19284SOL    HW158430   5.043   3.671   7.759 -1.2295  0.8507  2.2331
19284SOL    HW258431   5.189   3.631   7.749 -0.6941  3.0858  0.2087
19285SOL     OW58432   5.447   3.044   9.851 -0.3236  0.6054 -0.0091
19285SOL    HW158433   5.421   3.122   9.901  0.3421  0.2408  0.9331
19285SOL    HW258434   5.370   2.989   9.851 -0.6196  1.0137 -0.1793
19286SOL     OW58435   3.966   4.120   0.020 -0.1568 -0.0181  0.1638
19286SOL    HW158436   3.939   4.037   0.060 -1.5830  0.5474  0.4208
19286SOL    HW258437   3.996   4.095  -0.068 -0.0511 -0.8737  0.4330
19287SOL     OW58438   6.773   6.126   8.457 -0.3944 -0.7276  0.5941
19287SOL    HW158439   6.693   6.082   8.429 -0.5360 -1.0748  1.5056
19287SOL    HW258440   6.827   6.056   8.493 -0.9506 -0.0952  2.8219
19288SOL     OW58441   2.721   8.608   9.794  0.7138 -0.0402 -0.6244
19288SOL    HW158442   2.702   8.643   9.882  1.7888 -0.5176 -0.1845
19288SOL    HW258443   2.635   8.598   9.753  0.2042  0.3151  0.3292
19289SOL     OW58444   2.334   3.477   9.516  0.2667 -0.3465 -0.4755
19289SOL    HW158445   2.402   3.459   9.451  1.2963 -0.4779  0.6145
19289SOL    HW258446   2.372   3.545   9.572 -1.3351  1.1298 -1.0974
19290SOL     OW58447   7.654   0.794   3.374 -0.4042  0.0268  0.0750
19290SOL    HW158448   7.650   0.843   3.293  1.6478  1.6843  0.8969
19290SOL    HW258449   7.736   0.745   3.370  0.2529  0.9252  1.5171
19291SOL     OW58450   8.129   8.733   2.277  0.3646 -0.1475  0.0615
19291SOL    HW158451   8.202   8.778   2.234  1.0744 -2.7484 -1.6740
19291SOL    HW258452   8.063   8.724   2.208 -0.9730  0.7244  1.1713
19292SOL     OW58453   5.772   7.331   0.574  0.2870  0.4984 -0.4344
19292SOL    HW158454   5.697   7.356   0.627  0.9390  1.0521  0.2654
19292SOL    HW258455   5.833   7.292   0.636 -0.0651 -1.4514 -1.2640
19293SOL     OW58456   6.473   0.055   2.530  0.4102 -0.8312 -0.0654
19293SOL    HW158457   6.425   0.133   2.560  0.9876 -0.7345  0.6325
19293SOL    HW258458   6.509   0.017   2.610  0.4431 -1.6175 -0.4447
19294SOL     OW58459   6.502   6.445   6.711 -0.0645  0.1494  0.0404
19294SOL    HW158460   6.465   6.428   6.797  0.8072  1.3999  0.6880
19294SOL    HW258461   6.495   6.540   6.700  0.2045  0.0514 -1.1006
19295SOL     OW58462   5.662   4.479   3.569 -0.3464 -0.1819  0.4097
19295SOL    HW158463   5.688   4.516   3.654 -0.9356  2.1040 -0.3265
19295SOL    HW258464   5.566   4.470   3.576 -0.4497  0.4082 -0.1205
19296SOL     OW58465   0.224   4.049   9.053 -0.1913  0.4878 -0.1035
19296SOL    HW158466   0.272   3.966   9.054 -1.3121 -0.2261 -1.3751
19296SOL    HW258467   0.292   4.116   9.062  0.9461 -0.5130 -0.9070
19297SOL     OW58468   9.399   0.512   0.689  0.0754  0.2262  0.2554
19297SOL    HW158469   9.327   0.562   0.727  0.4921  0.8168  0.2936
19297SOL    HW258470   9.450   0.577   0.640  0.8390 -0.0868  0.6119
19298SOL     OW58471   1.301   9.224   7.847 -0.7650  0.2664 -0.5024
19298SOL    HW158472   1.370   9.200   7.910  0.1162  1.5617 -0.9305
19298SOL    HW258473   1.259   9.301   7.885 -3.8810 -1.9911  1.0847
19299SOL     OW58474   4.545   6.735   0.559 -0.1107 -0.5942  0.1980
19299SOL    HW158475   4.518   6.804   0.498  0.0488  0.0615  0.8576
19299SOL    HW258476   4.478   6.735   0.627  1.2303  0.6996  1.5725
19300SOL     OW58477   6.539   0.464   2.901  0.6210 -0.2330 -0.1765
19300SOL    HW158478   6.545   0.486   2.808 -0.0481  1.6308  0.1666
19300SOL    HW258479   6.588   0.383   2.911  0.7069 -0.4518 -2.1521
19301SOL     OW58480   9.664   8.444   7.751  0.5026 -0.1639 -0.0224
19301SOL    HW158481   9.630   8.393   7.824 -1.5241  0.7946 -0.2181
19301SOL    HW258482   9.703   8.521   7.792  0.9816 -0.4933  0.1379
19302SOL     OW58483   3.468   3.218   7.586 -0.3765 -0.7094  0.1017
19302SOL    HW158484   3.546   3.251   7.630  0.0245 -1.7724  0.1899
19302SOL    HW258485   3.497   3.140   7.539 -0.6382  0.6671 -2.5587
19303SOL     OW58486   6.988   4.393   4.589  0.4153 -0.1148  0.3772
19303SOL    HW158487   7.019   4.362   4.675  0.4846  0.0538  0.4147
19303SOL    HW258488   6.893   4.392   4.597  0.4239  1.1660  0.9279
19304SOL     OW58489   0.816   9.337   1.593 -0.1559  0.9542  0.0459
19304SOL    HW158490   0.728   9.372   1.579  0.3853  3.4442  1.9790
19304SOL    HW258491   0.865   9.362   1.514 -0.2690  3.1535  0.6039
19305SOL     OW58492   1.763   4.855   1.827  0.1755  0.0473 -0.3032
19305SOL    HW158493   1.794   4.764   1.823 -0.7993 -0.2734 -0.7706
19305SOL    HW258494   1.828   4.905   1.777  1.1067 -0.2674  0.5509
19306SOL     OW58495   0.287   6.583   9.679  0.2072  0.4653 -0.6372
19306SOL    HW158496   0.228   6.524   9.632  0.0777 -0.0169  0.1060
19306SOL    HW258497   0.366   6.531   9.692  1.2692  1.4809 -2.6308
19307SOL     OW58498   9.206   0.766   7.386 -0.0883 -0.0912  0.4364
19307SOL    HW158499   9.273   0.698   7.397  0.4724  0.2201 -0.7856
19307SOL    HW258500   9.186   0.795   7.475 -0.0270 -1.5451  0.9517
19308SOL     OW58501   2.800   3.794   4.841  0.0122 -0.0412 -0.1918
19308SOL    HW158502   2.749   3.719   4.871  1.4243 -0.6832  0.7313
19308SOL    HW258503   2.886   3.757   4.820  1.5487  1.6424  2.6285
19309SOL     OW58504   4.899   0.236   7.400 -0.5779  0.2057  0.5038
19309SOL    HW158505   4.835   0.250   7.329 -0.3644 -1.7358 -0.1295
19309SOL    HW258506   4.941   0.153   7.378  1.6987  1.0745  1.2816
19310SOL     OW58507   6.312   9.665   3.870  0.9406 -0.3149  0.6483
19310SOL    HW158508   6.268   9.745   3.843  1.8024  0.1607  0.6147
19310SOL    HW258509   6.401   9.674   3.836  0.9452 -1.4557  0.3221
19311SOL     OW58510   8.847   6.155   7.223 -0.0631 -0.0187 -0.1171
19311SOL    HW158511   8.839   6.157   7.128  1.3704  0.0543 -0.2695
19311SOL    HW258512   8.894   6.074   7.241 -0.6310 -0.2010  0.5646
19312SOL     OW58513   0.776   0.415   2.449 -0.4377  0.4992  0.1747
19312SOL    HW158514   0.838   0.474   2.492 -0.6037  0.0524  1.0488
19312SOL    HW258515   0.765   0.343   2.511  0.8126 -1.1819 -1.4345
19313SOL     OW58516   1.044   9.578   3.776 -0.4333 -0.3713  0.4413
19313SOL    HW158517   1.083   9.491   3.776  1.3942  0.3956  0.0961
19313SOL    HW258518   0.987   9.579   3.853  0.9657 -1.2651  1.5312
19314SOL     OW58519   5.170   5.321   2.478  0.5000 -0.0826 -0.6723
19314SOL    HW158520   5.261   5.313   2.450  0.1802  0.0842 -1.8408
19314SOL    HW258521   5.133   5.233   2.468  0.0771  0.2199 -1.9721
19315SOL     OW58522   5.662   2.339   9.143 -0.0601  0.1323 -0.0350
19315SOL    HW158523   5.587   2.344   9.202 -0.9347 -1.1382 -1.0060
19315SOL    HW258524   5.719   2.273   9.183 -0.2655 -0.1316 -0.1732
19316SOL     OW58525   2.072   8.284   4.264  0.3744  0.2871  0.0983
19316SOL    HW158526   2.144   8.221   4.266 -0.0324 -0.1798  2.8215
19316SOL    HW258527   2.004   8.242   4.212  2.3787  1.2470 -3.6620
19317SOL     OW58528   0.696   6.143   0.777  0.1125 -0.3882  0.2503
19317SOL    HW158529   0.669   6.105   0.861 -1.8830  0.0356 -0.1504
19317SOL    HW258530   0.666   6.234   0.782  2.3459  0.4198  0.0921
19318SOL     OW58531   0.773   3.694   8.149  0.0640  0.0283 -0.6912
19318SOL    HW158532   0.736   3.651   8.226  0.6884 -0.0698 -0.4348
19318SOL    HW258533   0.734   3.648   8.074 -0.5006  0.0831 -0.4364
19319SOL     OW58534   0.298   2.313   7.853 -0.0056 -0.0983 -0.0540
19319SOL    HW158535   0.224   2.267   7.812 -1.0186  1.4006  0.0257
19319SOL    HW258536   0.364   2.318   7.783  1.2280 -3.7981  0.6094
19320SOL     OW58537   5.643   3.059   3.686 -0.0774 -0.0590  0.1767
19320SOL    HW158538   5.626   2.984   3.743  0.6857 -0.5355 -0.2164
19320SOL    HW258539   5.621   3.135   3.740  1.3358 -0.4720  1.3768
19321SOL     OW58540   4.824   4.116   6.441  0.3992  0.1724 -0.1426
19321SOL    HW158541   4.876   4.045   6.479 -1.1183 -0.8219  0.1227
19321SOL    HW258542   4.825   4.098   6.347  0.8841  0.4119 -0.1886
19322SOL     OW58543   9.365   9.349   3.421 -0.2652  0.6715  0.0659
19322SOL    HW158544   9.285   9.400   3.405  0.1746  1.0318 -1.0314
19322SOL    HW258545   9.344   9.261   3.387 -0.2980  0.6824  0.0572
19323SOL     OW58546   5.828   2.905   2.121 -0.4387  0.3406 -0.3089
19323SOL    HW158547   5.772   2.978   2.144 -0.7068  0.1943 -0.4903
19323SOL    HW258548   5.768   2.831   2.108 -0.2454  0.2676 -0.8405
19324SOL     OW58549   7.238   5.456   9.011  0.2842  0.6999  0.1910
19324SOL    HW158550   7.312   5.503   9.049 -0.5497  2.3936 -0.2148
19324SOL    HW258551   7.185   5.523   8.969  0.4309 -0.9215 -2.8338
19325SOL     OW58552   2.082   5.572   4.354  0.6650 -0.1097  0.3291
19325SOL    HW158553   2.133   5.640   4.398  1.4433 -0.1705 -0.4628
19325SOL    HW258554   2.147   5.513   4.316  0.2735  1.6986 -3.7480
19326SOL     OW58555   6.220   7.025   8.852 -0.0892  0.0046  0.4118
19326SOL    HW158556   6.144   7.082   8.843  0.0976  0.5218  1.8382
19326SOL    HW258557   6.296   7.084   8.846  0.1426 -0.2589  0.6740
19327SOL     OW58558   7.662   8.116   3.392 -0.6642 -0.6017  0.2404
19327SOL    HW158559   7.723   8.063   3.444 -1.7244 -2.7511 -0.6210
19327SOL    HW258560   7.577   8.075   3.405 -1.2611 -0.0971 -1.7378
19328SOL     OW58561   4.619   1.122   8.939 -0.4169  0.2481  0.3413
19328SOL    HW158562   4.547   1.153   8.885  0.4028  1.1252 -0.2936
19328SOL    HW258563   4.578   1.065   9.004 -1.3872 -1.1068 -1.3765
19329SOL     OW58564   9.673   2.666   0.420  0.2746  0.2256  0.2678
19329SOL    HW158565   9.763   2.667   0.454  1.2127 -1.8489 -1.8778
19329SOL    HW258566   9.672   2.735   0.354 -0.6015  2.0665  2.0776
19330SOL     OW58567   8.001   5.486   2.929  0.1354  0.2603 -0.7736
19330SOL    HW158568   8.064   5.549   2.896  0.6030 -1.1617 -2.7732
19330SOL    HW258569   7.921   5.504   2.880 -0.5761  1.0067  0.5956
19331SOL     OW58570   0.382   1.244   2.220 -0.4685 -0.1965 -0.0453
19331SOL    HW158571   0.348   1.208   2.138  1.6376 -1.7176 -0.3300
19331SOL    HW258572   0.382   1.170   2.280  0.4548  0.2451  0.5123
19332SOL     OW58573   6.953   6.047   6.851 -0.2778 -0.5842  0.4209
19332SOL    HW158574   6.990   6.049   6.763 -0.9588 -0.1882  0.1336
19332SOL    HW258575   6.867   6.007   6.840 -0.1493 -1.0425  0.9987
19333SOL     OW58576   0.122   7.716   8.640 -0.2985 -0.0460  0.2798
19333SOL    HW158577   0.075   7.674   8.568 -0.7183  0.0521  0.4930
19333SOL    HW258578   0.201   7.751   8.600 -0.4791 -0.0804 -0.1122
19334SOL     OW58579   9.098   7.095   3.122 -0.3501 -0.3567 -0.5190
19334SOL    HW158580   9.009   7.128   3.133 -1.2109 -3.2451  3.2507
19334SOL    HW258581   9.150   7.144   3.185  0.0001 -0.8935 -0.3772
19335SOL     OW58582   1.302   8.574   3.966 -0.0691 -0.5875  0.2033
19335SOL    HW158583   1.396   8.562   3.977 -0.3342 -1.3570  2.0881
19335SOL    HW258584   1.294   8.658   3.921  1.5196 -0.7107 -0.3840
19336SOL     OW58585   0.786   3.286   9.066  0.5664  0.2706  0.5774
19336SOL    HW158586   0.721   3.335   9.015  0.1704  0.3038  1.1117
19336SOL    HW258587   0.753   3.197   9.069  2.5048 -0.6986 -2.5272
19337SOL     OW58588   6.432   4.326   4.631 -0.3328 -0.0637  0.2558
19337SOL    HW158589   6.369   4.281   4.687 -1.7556 -0.3053 -1.4471
19337SOL    HW258590   6.430   4.277   4.549  0.6389  1.0873 -0.4878
19338SOL     OW58591   3.994   9.425   3.392 -0.2300 -0.1473 -0.4787
19338SOL    HW158592   3.899   9.430   3.385 -0.1667  0.6564 -0.8133
19338SOL    HW258593   4.022   9.384   3.310 -0.2099  0.6609 -0.8882
19339SOL     OW58594   8.559   0.560   6.481 -0.0699  0.0623 -0.1870
19339SOL    HW158595   8.544   0.651   6.504  0.2248  0.2870 -0.8608
19339SOL    HW258596   8.654   0.553   6.471 -0.0639 -0.3924  0.1594
19340SOL     OW58597   7.449   7.534   9.316  0.1757  0.1021 -0.3039
19340SOL    HW158598   7.539   7.532   9.348 -0.2447 -0.1409  0.9163
19340SOL    HW258599   7.396   7.507   9.391 -0.9284  0.3378 -0.9728
19341SOL     OW58600   7.745   3.969   9.566  0.0402  0.6489 -0.6597
19341SOL    HW158601   7.729   3.875   9.581 -2.5713  1.3076  1.4782
19341SOL    HW258602   7.837   3.973   9.539  0.5687 -2.4432  0.2125
19342SOL     OW58603   9.747   8.116   4.976 -0.3014 -0.0322 -0.2154
19342SOL    HW158604   9.835   8.090   5.002 -0.0680  0.1787 -0.7636
19342SOL    HW258605   9.697   8.119   5.057  0.3270  0.3276  0.1678
19343SOL     OW58606   2.776   9.438   6.058 -0.1019 -0.3385 -0.4584
19343SOL    HW158607   2.786   9.430   6.153 -3.2700  1.1516  0.1242
19343SOL    HW258608   2.725   9.361   6.033 -0.7319  0.1304 -0.6382
19344SOL     OW58609   5.243   0.047   9.025 -0.1279 -0.4145  0.0392
19344SOL    HW158610   5.335   0.038   8.999  0.3204 -0.8316  1.6497
19344SOL    HW258611   5.209  -0.043   9.025 -0.8470 -0.1779 -1.4931
19345SOL     OW58612   4.482   1.891   2.809  0.2950  0.6167  0.3229
19345SOL    HW158613   4.562   1.865   2.855 -0.2143 -0.1418  0.8107
19345SOL    HW258614   4.412   1.872   2.871 -0.5292 -1.4993 -1.1424
19346SOL     OW58615   9.252   7.222   3.290 -0.1549 -0.1488 -0.0055
19346SOL    HW158616   9.270   7.295   3.348 -1.0902 -0.4394  0.6745
19346SOL    HW258617   9.237   7.148   3.348 -0.0564 -0.6897 -0.6544
19347SOL     OW58618   1.526   5.612   5.514 -0.3661  0.0497 -0.4746
19347SOL    HW158619   1.460   5.608   5.445 -1.5107  0.0703  0.5733
19347SOL    HW258620   1.476   5.601   5.595  1.2015 -2.7233  0.2689
19348SOL     OW58621   2.418   8.589   5.372 -0.3660  0.6042  0.5275
19348SOL    HW158622   2.502   8.589   5.419  1.3328 -0.3956 -2.2284
19348SOL    HW258623   2.431   8.652   5.301 -1.7957  0.1636 -0.1629
19349SOL     OW58624   2.703   4.047   9.647  0.1514  0.0241 -0.2228
19349SOL    HW158625   2.640   4.049   9.575  0.9824 -1.3968 -1.0325
19349SOL    HW258626   2.710   4.138   9.675 -1.9878  0.2708 -0.3248
19350SOL     OW58627   4.007   3.638   1.802  0.5124  0.0307 -0.0410
19350SOL    HW158628   3.939   3.702   1.783  0.2894 -0.5276 -1.2207
19350SOL    HW258629   4.085   3.690   1.821  0.1435  0.6574 -0.2172
19351SOL     OW58630   1.267   8.259   5.104 -0.2570  0.0492 -0.2615
19351SOL    HW158631   1.252   8.311   5.025  0.1562 -1.1416 -1.1721
19351SOL    HW258632   1.248   8.169   5.076  0.6598 -0.4876  0.7755
19352SOL     OW58633   0.414   1.479   6.065  0.1035 -0.2781 -0.3947
19352SOL    HW158634   0.395   1.402   6.012 -1.6061 -0.9884  1.1211
19352SOL    HW258635   0.505   1.501   6.044  0.5409 -2.4908 -1.1320
19353SOL     OW58636   2.896   4.584   2.012  0.4830 -0.3100 -0.1720
19353SOL    HW158637   2.882   4.679   2.022 -0.6930 -0.4489 -0.4442
19353SOL    HW258638   2.856   4.545   2.089 -0.3071 -0.6894 -0.7653
19354SOL     OW58639   0.167   3.166   6.904 -0.0915  0.0169 -0.0334
19354SOL    HW158640   0.173   3.187   6.997  0.7314 -1.5216  0.2918
19354SOL    HW258641   0.250   3.123   6.883 -0.3774  0.0862 -1.4139
19355SOL     OW58642   0.854   7.002   7.642  0.3651 -0.0413 -0.1854
19355SOL    HW158643   0.947   7.006   7.619  0.6540  0.3171  0.9608
19355SOL    HW258644   0.823   7.092   7.632  0.4116  0.0501  0.4702
19356SOL     OW58645   2.725   1.436   3.390 -0.3420 -0.2062 -0.1539
19356SOL    HW158646   2.759   1.526   3.391 -1.3018  0.2234 -1.9398
19356SOL    HW258647   2.632   1.446   3.372 -0.3375 -1.5959 -1.0944
19357SOL     OW58648   0.394   2.145   8.654  0.1330 -0.2393 -0.7899
19357SOL    HW158649   0.381   2.054   8.679 -0.0646 -0.2455 -0.9141
19357SOL    HW258650   0.343   2.156   8.574 -0.1191  0.0692 -0.5932
19358SOL     OW58651   1.713   6.117   4.265  0.0145  0.3050 -0.0600
19358SOL    HW158652   1.751   6.032   4.288  1.3394  1.1237  0.8905
19358SOL    HW258653   1.721   6.122   4.170  2.1364  0.3371  0.0705
19359SOL     OW58654   2.351   1.384   6.982 -0.4291  0.8286  0.3694
19359SOL    HW158655   2.300   1.465   6.996 -0.3726  1.2797 -1.6518
19359SOL    HW258656   2.305   1.340   6.911 -0.3035 -0.8263  1.2798
19360SOL     OW58657   1.377   2.405   4.294 -0.3261 -0.0435 -0.1312
19360SOL    HW158658   1.369   2.497   4.320 -0.5755 -0.5431  1.6793
19360SOL    HW258659   1.334   2.400   4.209 -0.5814  1.4465 -0.1092
19361SOL     OW58660   8.844   9.884   8.259  0.1907 -0.1067 -0.1098
19361SOL    HW158661   8.874   9.874   8.169 -1.0601 -0.6210 -0.4910
19361SOL    HW258662   8.924   9.887   8.312  0.9482  0.5916 -1.2640
19362SOL     OW58663   0.686   2.188   1.953 -0.0396  0.1959  0.5408
19362SOL    HW158664   0.730   2.273   1.956 -1.3254  1.0138 -1.5278
19362SOL    HW258665   0.594   2.209   1.938  0.0942 -1.4272 -4.4557
19363SOL     OW58666   8.254   3.989   5.476  0.1537  0.3522 -0.0355
19363SOL    HW158667   8.263   4.040   5.556  1.4892  0.9808 -0.5647
19363SOL    HW258668   8.342   3.957   5.456 -0.2512 -0.2684 -0.9573
19364SOL     OW58669   7.804   3.226   6.262 -0.1730  0.0501  0.5950
19364SOL    HW158670   7.802   3.164   6.335  1.2264  0.6951  1.2349
19364SOL    HW258671   7.734   3.198   6.204 -0.7266 -1.0388  1.7443
19365SOL     OW58672   2.536   7.730   9.178 -0.2268 -0.0398 -0.4892
19365SOL    HW158673   2.507   7.651   9.224 -0.8374  1.0111  1.0230
19365SOL    HW258674   2.624   7.708   9.146  0.2987 -0.7874  1.3498
19366SOL     OW58675   4.244   5.085   3.520  0.9394 -0.8330 -0.1887
19366SOL    HW158676   4.339   5.090   3.516  0.9651 -0.0052  0.8922
19366SOL    HW258677   4.218   5.167   3.562 -0.2100 -1.2902  0.0303
19367SOL     OW58678   4.246   8.245   9.666 -0.8252  0.2179  0.2026
19367SOL    HW158679   4.248   8.151   9.686  2.5172 -0.0661 -0.8927
19367SOL    HW258680   4.170   8.255   9.608 -1.8815 -1.5722  1.1722
19368SOL     OW58681   4.738   3.327   1.288 -0.6721  0.1559 -0.7438
19368SOL    HW158682   4.825   3.347   1.324 -0.5897  1.3814 -1.5638
19368SOL    HW258683   4.688   3.408   1.302 -1.5916 -0.4336 -0.5673
19369SOL     OW58684   9.714   9.127   1.255  0.0156 -0.5260 -0.4951
19369SOL    HW158685   9.809   9.120   1.251  0.1512  0.7046 -0.0381
19369SOL    HW258686   9.683   9.037   1.265  1.2688 -0.7631  1.7603
19370SOL     OW58687   1.963   9.587   9.090  0.1758  0.3206 -0.5596
19370SOL    HW158688   1.935   9.647   9.160  0.0100 -0.1680 -0.2032
19370SOL    HW258689   2.010   9.517   9.136 -1.3647 -0.8868 -0.7256
19371SOL     OW58690   0.023   7.993   4.966 -0.3035 -0.0843 -0.0832
19371SOL    HW158691   0.072   7.996   5.048  0.5061  2.9128 -0.5441
19371SOL    HW258692   0.091   7.990   4.898 -0.8708  0.2993 -0.6754
19372SOL     OW58693   5.711   2.356   9.500 -0.7106  0.4134  0.0061
19372SOL    HW158694   5.735   2.381   9.590  0.3311  5.2969 -1.3487
19372SOL    HW258695   5.617   2.373   9.495 -0.9230 -0.6022  0.3151
19373SOL     OW58696   4.360   8.953   0.909 -0.3450  0.7648  0.1605
19373SOL    HW158697   4.447   8.994   0.911 -0.0883  0.2097  0.7480
19373SOL    HW258698   4.304   9.018   0.868  0.2029  1.4094  0.4130
19374SOL     OW58699   1.485   8.621   3.593  0.0861  0.8891  0.2622
19374SOL    HW158700   1.458   8.549   3.537 -1.0953  0.9184  0.7793
19374SOL    HW258701   1.534   8.580   3.665  1.7004  0.8607 -0.7926
19375SOL     OW58702   2.987   3.815   0.403 -0.7050  0.4542  0.2243
19375SOL    HW158703   3.044   3.873   0.454  1.0809 -0.9931 -0.0554
19375SOL    HW258704   3.019   3.821   0.314 -0.4299 -1.0128  0.2023
19376SOL     OW58705   4.802   9.201   9.108  0.1727 -0.4556  0.5282
19376SOL    HW158706   4.860   9.159   9.044  1.8699  1.9224  0.3623
19376SOL    HW258707   4.858   9.267   9.150 -1.8922  0.4913  1.9251
19377SOL     OW58708   2.137   4.871  -0.015 -0.0680 -0.5554  0.2653
19377SOL    HW158709   2.224   4.881  -0.053 -0.0376  1.2845  0.7188
19377SOL    HW258710   2.152   4.836   0.072  0.0886 -1.7360 -0.2235
19378SOL     OW58711   4.784   3.729   0.042  0.2161 -0.1274 -0.0038
19378SOL    HW158712   4.825   3.711   0.126 -1.3137  0.1392  0.8250
19378SOL    HW258713   4.835   3.678  -0.021  0.1119 -1.9779  1.3571
19379SOL     OW58714   9.494   7.292   5.826  0.5617  0.2878 -0.2335
19379SOL    HW158715   9.426   7.228   5.847  0.1013  1.0530  0.7211
19379SOL    HW258716   9.547   7.250   5.759  0.7666 -1.4252  0.9517
19380SOL     OW58717   8.895   4.535   9.044 -0.5450  0.1886 -0.5788
19380SOL    HW158718   8.932   4.579   8.967 -2.0837  0.7159 -1.0585
19380SOL    HW258719   8.852   4.605   9.093  1.2309  0.0470  1.3395
19381SOL     OW58720   3.916   5.927   6.383  0.0756  0.3113  0.1588
19381SOL    HW158721   3.978   5.945   6.312 -0.9934  1.7469 -0.4677
19381SOL    HW258722   3.924   6.003   6.441  0.2711 -0.4139  1.1019
19382SOL     OW58723   1.544   1.929   1.919  0.0241  0.3194  0.3891
19382SOL    HW158724   1.591   1.855   1.880 -1.5844  0.5593 -2.2788
19382SOL    HW258725   1.455   1.897   1.932 -0.4193  1.4229  0.2155
19383SOL     OW58726   2.517   4.599   5.758 -0.2690  0.0284 -0.4591
19383SOL    HW158727   2.437   4.547   5.761 -0.2640 -0.0284 -1.3000
19383SOL    HW258728   2.547   4.601   5.849 -2.3999  1.8971  0.3210
19384SOL     OW58729   9.307   8.509   4.416 -0.4956  0.3904  0.1623
19384SOL    HW158730   9.372   8.445   4.387 -0.0801  0.6623  0.4809
19384SOL    HW258731   9.306   8.575   4.346 -1.3798 -0.2728 -0.4718
19385SOL     OW58732   8.570   9.347   2.140 -0.4601  0.0208 -0.2545
19385SOL    HW158733   8.478   9.368   2.124 -0.3529 -0.2409 -1.2525
19385SOL    HW258734   8.585   9.375   2.230 -1.2501  0.9929 -0.4048
19386SOL     OW58735   3.895   6.189   2.325  0.4315 -0.0808 -0.0926
19386SOL    HW158736   3.878   6.135   2.248  0.3118  1.1272 -0.9406
19386SOL    HW258737   3.980   6.230   2.308  0.9748 -0.7017  0.9714
19387SOL     OW58738   4.774   3.391   0.255 -0.2978 -0.2716 -0.0710
19387SOL    HW158739   4.703   3.436   0.301  0.4124 -1.2581  2.1049
19387SOL    HW258740   4.834   3.461   0.229 -1.6483  0.4960 -1.2825
19388SOL     OW58741   2.282   1.440   3.949 -0.3286 -0.6339  0.7950
19388SOL    HW158742   2.264   1.513   3.889  3.6531  0.7995  1.0306
19388SOL    HW258743   2.196   1.415   3.983 -2.0928  2.6776 -0.7314
19389SOL     OW58744   1.930   9.639   3.966  0.1793 -0.2350  0.2275
19389SOL    HW158745   2.010   9.664   3.920  1.0326 -0.7538  1.3603
19389SOL    HW258746   1.867   9.707   3.944  1.4557  1.1626  0.6884
19390SOL     OW58747   1.909   0.862   0.879 -0.0461  0.1480  0.3691
19390SOL    HW158748   1.850   0.906   0.817 -1.6528 -1.4464  0.6640
19390SOL    HW258749   1.996   0.871   0.840 -0.8632  0.0713 -1.6084
19391SOL     OW58750   3.364   4.875   4.829  0.5648 -0.1658  0.7142
19391SOL    HW158751   3.423   4.824   4.772 -0.2847  0.7810 -1.0994
19391SOL    HW258752   3.277   4.839   4.811  0.2405  0.3812  1.1747
19392SOL     OW58753   5.831   9.825   4.046  0.7102 -0.4732  0.0013
19392SOL    HW158754   5.840   9.919   4.064 -0.1211 -0.7892  2.3286
19392SOL    HW258755   5.753   9.819   3.990 -0.1937  0.1287  1.1524
19393SOL     OW58756   0.252   8.676   4.108  0.3579 -0.3551 -0.1863
19393SOL    HW158757   0.282   8.660   4.019  1.1391 -0.9430  0.1671
19393SOL    HW258758   0.190   8.748   4.100  0.8445 -0.0210 -1.1287
19394SOL     OW58759   7.034   4.547   9.673  0.0426 -0.7413  0.5726
19394SOL    HW158760   7.028   4.624   9.729  0.5102 -0.3236  0.0575
19394SOL    HW258761   7.094   4.488   9.719 -0.1249 -0.6940  0.8498
19395SOL     OW58762   7.880   5.235   6.032  0.4268  0.2852  0.1107
19395SOL    HW158763   7.939   5.306   6.057  1.0590  0.1551 -0.9530
19395SOL    HW258764   7.829   5.271   5.960  1.6262 -0.7169 -1.2986
19396SOL     OW58765   9.764   6.569   7.790 -0.1256 -0.7805 -0.0480
19396SOL    HW158766   9.698   6.521   7.840 -1.4201 -0.5754 -1.4808
19396SOL    HW258767   9.744   6.549   7.698  2.1339 -1.1095 -0.5233
19397SOL     OW58768   6.716   0.041   2.969  0.4554 -0.0872  0.1150
19397SOL    HW158769   6.641   0.008   3.019  0.8278 -0.2896  0.5516
19397SOL    HW258770   6.746   0.117   3.019  0.3996  0.1363 -0.1867
19398SOL     OW58771   9.746   3.371   0.821  0.3445 -0.7609  1.1216
19398SOL    HW158772   9.694   3.313   0.877 -1.8199  1.0402  1.1348
19398SOL    HW258773   9.779   3.439   0.881 -1.1779  0.6356  0.4756
19399SOL     OW58774   3.593   8.933   4.230 -0.2730  0.0422  0.5945
19399SOL    HW158775   3.675   8.897   4.264 -0.7309 -0.6068  1.0614
19399SOL    HW258776   3.546   8.856   4.196 -0.8469  0.3488  0.6871
19400SOL     OW58777   3.843   3.791   6.534  0.0107 -0.0593  0.1711
19400SOL    HW158778   3.800   3.873   6.507 -0.0820 -0.5429 -1.1897
19400SOL    HW258779   3.773   3.740   6.574  0.0367  0.4491  0.8964
19401SOL     OW58780   3.424   2.590   7.782 -0.0907  0.0102  0.0314
19401SOL    HW158781   3.438   2.520   7.719  0.0496  1.0717 -1.1791
19401SOL    HW258782   3.464   2.560   7.862 -0.3275 -1.4192 -0.3627
19402SOL     OW58783   7.288   1.869   3.421 -0.1189  0.4964  0.0177
19402SOL    HW158784   7.275   1.883   3.515 -0.9926 -0.1494  0.0026
19402SOL    HW258785   7.292   1.774   3.412 -0.1647  0.5541 -0.6177
19403SOL     OW58786   6.010   3.448   2.648 -0.4266 -0.4298  0.1154
19403SOL    HW158787   6.082   3.388   2.672 -0.4389 -0.5813 -0.2226
19403SOL    HW258788   5.939   3.424   2.707 -0.8659 -1.6132 -0.8376
19404SOL     OW58789   0.673   4.849   1.511 -0.8465  0.1111  0.0263
19404SOL    HW158790   0.721   4.932   1.516 -0.9668  0.1598  0.3831
19404SOL    HW258791   0.586   4.869   1.547 -1.3016  0.1398 -1.0485
19405SOL     OW58792   5.430   9.290   4.685  0.1084  0.2334 -0.1704
19405SOL    HW158793   5.379   9.245   4.617 -0.2402  1.1297 -0.5202
19405SOL    HW258794   5.364   9.326   4.744  0.3979 -0.1064  0.3679
19406SOL     OW58795   7.699   2.724   2.739  0.3792  0.0593  0.1902
19406SOL    HW158796   7.682   2.805   2.787 -1.3447 -0.0496 -0.1610
19406SOL    HW258797   7.673   2.655   2.800 -1.7143 -0.0826 -0.7749
19407SOL     OW58798   4.202   0.113   7.415 -0.5975  0.1583  0.0666
19407SOL    HW158799   4.203   0.177   7.344 -0.2336 -0.3593 -0.4081
19407SOL    HW258800   4.235   0.161   7.491  3.6711 -0.3804 -1.1601
19408SOL     OW58801   0.444   5.472   3.855  0.0017  0.0216  0.1206
19408SOL    HW158802   0.436   5.477   3.950  0.0406  0.6306  0.0950
19408SOL    HW258803   0.354   5.482   3.823  0.2093  1.7239  0.0261
19409SOL     OW58804   5.820   7.764   2.306 -0.1660 -0.2065 -0.1233
19409SOL    HW158805   5.871   7.723   2.236  0.7434 -0.1348  0.4679
19409SOL    HW258806   5.883   7.821   2.350 -1.0681  0.7864 -0.0851
19410SOL     OW58807   1.104   7.412   0.589 -0.0262 -0.4873 -0.3907
19410SOL    HW158808   1.068   7.495   0.620  1.1649 -0.3124  0.6332
19410SOL    HW258809   1.168   7.436   0.522  0.1233 -0.5888 -0.2866
19411SOL     OW58810   4.746   0.476   6.462  0.0977  0.1901 -0.0792
19411SOL    HW158811   4.681   0.406   6.469  0.5048 -0.0472  1.8145
19411SOL    HW258812   4.827   0.431   6.436  0.0319  0.1776 -0.2684
19412SOL     OW58813   8.102   1.321   2.397 -0.0519 -0.2700 -0.0685
19412SOL    HW158814   8.033   1.255   2.386  0.5889 -0.6865 -1.9319
19412SOL    HW258815   8.176   1.272   2.432  0.4824 -0.6382 -1.6202
19413SOL     OW58816   5.321   6.180   2.852 -0.3164  0.1833 -0.0174
19413SOL    HW158817   5.340   6.097   2.896 -1.4101 -1.0292 -1.6903
19413SOL    HW258818   5.382   6.242   2.891  0.8936 -1.5176  0.9599
19414SOL     OW58819   2.575   5.909   3.616  0.3420 -0.6176  0.0863
19414SOL    HW158820   2.515   5.835   3.608 -0.4099  0.0610 -0.8350
19414SOL    HW258821   2.519   5.984   3.636  1.1316 -0.3360  1.4207
19415SOL     OW58822   5.025   0.908   6.956  0.2576 -0.0071 -0.4164
19415SOL    HW158823   5.060   0.997   6.953  0.9913 -0.2025  1.0669
19415SOL    HW258824   4.960   0.911   7.026  1.0663 -0.8697  0.4009
19416SOL     OW58825   3.600   2.851   7.993 -0.0001 -0.4516  0.4030
19416SOL    HW158826   3.569   2.870   7.904 -0.0547 -1.2043  0.2472
19416SOL    HW258827   3.523   2.864   8.049 -0.3985 -1.4665  0.1296
19417SOL     OW58828   8.051   9.556   0.847  0.6176  0.2795  0.4474
19417SOL    HW158829   8.104   9.555   0.767 -0.4228  0.8062 -0.2859
19417SOL    HW258830   7.999   9.475   0.842  1.2564 -0.1820  1.1047
19418SOL     OW58831   8.245   7.766   9.563 -0.3423 -0.0377 -0.0630
19418SOL    HW158832   8.242   7.861   9.549 -1.1787 -0.2343 -1.4093
19418SOL    HW258833   8.333   7.740   9.537 -1.0240 -0.0058 -2.6450
19419SOL     OW58834   8.382   0.819   3.492  0.0041 -0.6598 -0.2055
19419SOL    HW158835   8.396   0.751   3.426  0.7265 -0.4162 -0.3138
19419SOL    HW258836   8.336   0.889   3.446 -0.8475 -1.1197 -0.0631
19420SOL     OW58837   7.018   0.291   3.927 -0.9419  0.2931  0.5816
19420SOL    HW158838   6.971   0.281   3.844 -0.3227  0.5548  0.1977
19420SOL    HW258839   7.033   0.202   3.957  2.3434 -0.0214 -1.5753
19421SOL     OW58840   3.271   5.846   0.562  0.3557 -0.6992  0.2217
19421SOL    HW158841   3.278   5.923   0.618  0.7161  0.1344 -0.9526
19421SOL    HW258842   3.182   5.851   0.526  0.9629  0.1415 -1.2153
19422SOL     OW58843   6.206   4.376   3.720 -1.0140 -0.4043 -0.3105
19422SOL    HW158844   6.161   4.460   3.728 -0.6725 -0.2149 -0.3824
19422SOL    HW258845   6.206   4.340   3.809 -1.3105 -0.4057 -0.3107
19423SOL     OW58846   3.506   0.339   7.249  0.1833  0.2476 -0.4455
19423SOL    HW158847   3.437   0.349   7.184  0.0317 -0.3806 -0.3934
19423SOL    HW258848   3.549   0.256   7.225  0.3160  0.1641  0.0747
19424SOL     OW58849   8.908   1.433   6.006  0.2987  0.5028  0.2908
19424SOL    HW158850   8.974   1.499   5.984 -0.2918  0.7407 -0.8880
19424SOL    HW258851   8.829   1.484   6.024  0.0967  0.1653  0.3659
19425SOL     OW58852   9.512   2.022   4.629 -0.1689  0.6998  0.6522
19425SOL    HW158853   9.522   2.064   4.544  1.0508  0.5792  0.7247
19425SOL    HW258854   9.418   2.005   4.636 -0.3372  1.0759 -0.4863
19426SOL     OW58855   4.292   7.216   3.642 -0.2271  0.0176 -0.0826
19426SOL    HW158856   4.328   7.162   3.572  0.3191  0.6507 -0.2993
19426SOL    HW258857   4.263   7.153   3.709  0.1863 -0.5437 -0.4266
19427SOL     OW58858   4.340   6.582   0.233 -0.1399  0.0118 -0.2386
19427SOL    HW158859   4.368   6.515   0.296  3.1270  2.2430  0.9920
19427SOL    HW258860   4.421   6.607   0.188 -1.7736  1.0279 -2.8722
19428SOL     OW58861   7.627   0.298   8.883  0.0735  0.1997 -0.3775
19428SOL    HW158862   7.683   0.225   8.910 -0.4529 -0.1469 -0.2091
19428SOL    HW258863   7.687   0.372   8.876  0.7326 -0.3864 -1.1908
19429SOL     OW58864   6.301   6.394   7.863  0.1325 -0.7131  0.3982
19429SOL    HW158865   6.261   6.397   7.776  0.6605  0.9331  0.1888
19429SOL    HW258866   6.371   6.329   7.854  0.0612 -0.6922 -0.3496
19430SOL     OW58867   4.572   3.134   1.198  0.4467  0.0030 -0.3146
19430SOL    HW158868   4.609   3.212   1.240 -3.1474  2.8549 -1.8232
19430SOL    HW258869   4.540   3.080   1.270  1.0596  1.0217  0.7562
19431SOL     OW58870   9.436   1.467   0.083  0.9365 -0.0837 -0.1706
19431SOL    HW158871   9.432   1.473  -0.012  0.3542 -1.2001 -0.2342
19431SOL    HW258872   9.417   1.556   0.114  0.8388  0.2226 -1.0848
19432SOL     OW58873   8.546   2.206   9.644  0.3031 -0.3446 -0.4946
19432SOL    HW158874   8.587   2.131   9.602  2.3059  1.2424 -1.5708
19432SOL    HW258875   8.612   2.238   9.706 -0.0889  1.0901 -0.7768
19433SOL     OW58876   2.476   2.262   0.586 -0.3245 -0.2829 -0.0518
19433SOL    HW158877   2.562   2.279   0.624 -0.4834 -0.7582  0.5454
19433SOL    HW258878   2.451   2.177   0.622 -0.5773 -0.6545 -1.0728
19434SOL     OW58879   1.555   6.453   9.526 -0.3906  0.5637  0.1410
19434SOL    HW158880   1.566   6.525   9.588  0.1551  0.9559 -0.4018
19434SOL    HW258881   1.500   6.489   9.457 -0.4785  0.3237  0.0859
19435SOL     OW58882   5.773   0.070   3.731 -0.4127  0.3896  0.0579
19435SOL    HW158883   5.812  -0.009   3.694  1.2928  2.0249 -1.8782
19435SOL    HW258884   5.681   0.066   3.705 -0.5467 -1.2434  0.6175
19436SOL     OW58885   4.679   8.419   6.783  0.0879  0.3434 -0.2737
19436SOL    HW158886   4.684   8.514   6.773 -2.8012  0.5993 -0.1315
19436SOL    HW258887   4.676   8.385   6.694  0.1295  0.4723 -0.3242
19437SOL     OW58888   5.978   1.464   7.553 -0.7015 -0.4451  0.6296
19437SOL    HW158889   5.927   1.406   7.497  1.3083 -1.9408  0.2113
19437SOL    HW258890   5.934   1.460   7.638 -1.6319 -1.1426  0.1328
19438SOL     OW58891   7.519   3.330   0.962  0.0440 -0.6448 -0.1172
19438SOL    HW158892   7.599   3.295   1.003 -0.4288 -2.0010 -0.2951
19438SOL    HW258893   7.451   3.317   1.027  0.1291  1.5910  0.5020
19439SOL     OW58894   7.173   0.287   9.934 -0.2862  0.2807  0.3634
19439SOL    HW158895   7.223   0.237   9.997  0.3057  0.7026  0.2387
19439SOL    HW258896   7.227   0.365   9.917 -0.6230  0.3629 -0.3553
19440SOL     OW58897   6.551   8.202   5.291 -0.0937  0.1418 -0.3343
19440SOL    HW158898   6.518   8.289   5.315 -1.6623 -0.4752 -0.1355
19440SOL    HW258899   6.528   8.191   5.199  2.1109  0.7900 -1.0255
19441SOL     OW58900   4.728   8.056   3.156  0.2313  0.1920 -0.0999
19441SOL    HW158901   4.668   8.068   3.083  0.4067  2.0891  0.0295
19441SOL    HW258902   4.813   8.037   3.116  0.3473  1.3256 -0.4089
19442SOL     OW58903   8.193   6.796   0.412 -0.2358 -0.3859  0.1173
19442SOL    HW158904   8.246   6.719   0.434 -0.1742 -0.1835  0.7130
19442SOL    HW258905   8.247   6.871   0.439 -0.1263 -0.1122 -0.8273
19443SOL     OW58906   2.446   8.265   5.667  0.4436 -0.2345  0.2781
19443SOL    HW158907   2.537   8.271   5.639  0.1505 -0.8377 -0.8553
19443SOL    HW258908   2.411   8.353   5.656  1.0216  0.1142  1.2073
19444SOL     OW58909   3.492   6.325   1.998  0.1609  0.3222  0.3806
19444SOL    HW158910   3.549   6.377   2.054  2.3107 -0.8840 -0.5474
19444SOL    HW258911   3.548   6.299   1.925 -1.8488 -0.2377 -1.0662
19445SOL     OW58912   6.246   0.512   7.764 -0.7663  0.2212  0.2094
19445SOL    HW158913   6.290   0.595   7.785 -0.9525  0.3633  0.0416
19445SOL    HW258914   6.153   0.531   7.772 -0.8507  0.3448 -0.9471
19446SOL     OW58915   6.825   0.732   2.663 -0.3009 -0.5154  0.0834
19446SOL    HW158916   6.845   0.824   2.682  0.1598 -0.6117  0.0661
19446SOL    HW258917   6.767   0.736   2.587 -0.2166 -0.2411  0.0312
19447SOL     OW58918   7.289   2.462   1.896 -0.4837 -0.4182 -0.5748
19447SOL    HW158919   7.284   2.470   1.992 -1.4523 -1.1116 -0.5443
19447SOL    HW258920   7.213   2.511   1.864 -0.5700 -0.7857 -0.9437
19448SOL     OW58921   0.382   9.112   2.962 -0.0781  0.8355  0.3060
19448SOL    HW158922   0.350   9.201   2.948 -1.0514  0.4619  0.0743
19448SOL    HW258923   0.456   9.104   2.903 -0.0206  1.4743  0.2860
19449SOL     OW58924   9.526   0.866   7.669  0.6522 -0.0307 -0.6928
19449SOL    HW158925   9.452   0.805   7.658 -0.0536  0.7184 -0.1624
19449SOL    HW258926   9.603   0.813   7.646 -0.1743 -0.3298 -3.0611
19450SOL     OW58927   3.243   1.668   0.424 -0.1678 -0.1871  0.2805
19450SOL    HW158928   3.267   1.630   0.340 -1.4498 -0.8556  0.1885
19450SOL    HW258929   3.226   1.593   0.481  1.6980  0.2399  1.4812
19451SOL     OW58930   0.819   2.274   4.297 -0.1089  0.3586 -0.1063
19451SOL    HW158931   0.749   2.335   4.270  0.3701  0.5143 -1.0279
19451SOL    HW258932   0.854   2.313   4.377 -0.2361  0.9544 -0.3326
19452SOL     OW58933   4.470   5.664   4.990 -0.2589  0.6031  0.1079
19452SOL    HW158934   4.472   5.570   5.009  0.0353  0.1247 -2.0118
19452SOL    HW258935   4.423   5.670   4.907  0.9693  2.1651 -0.5273
19453SOL     OW58936   1.769   7.151   4.148  0.3842 -0.7783  1.1739
19453SOL    HW158937   1.853   7.184   4.181  0.1650  0.1162  0.8685
19453SOL    HW258938   1.709   7.163   4.221  0.2759 -0.3557  1.0214
19454SOL     OW58939   3.860   6.866   2.106 -0.0741 -0.1147 -0.0995
19454SOL    HW158940   3.911   6.793   2.069  1.3673  0.7766  0.0483
19454SOL    HW258941   3.796   6.887   2.038 -1.4550 -2.3745  0.3925
19455SOL     OW58942   0.762   0.699   6.751  0.6180  0.2037  0.7118
19455SOL    HW158943   0.728   0.789   6.758  2.0368  0.7689  0.7220
19455SOL    HW258944   0.778   0.687   6.658  0.1614 -0.1613  0.6751
19456SOL     OW58945   4.732   6.473   2.238 -0.6774  0.0002  0.1527
19456SOL    HW158946   4.775   6.391   2.261 -0.9039 -0.5924 -1.4364
19456SOL    HW258947   4.748   6.530   2.313  1.4115 -0.7427  0.3350
19457SOL     OW58948   9.413   8.953   6.525 -0.2410  0.5465 -0.5143
19457SOL    HW158949   9.501   8.918   6.518 -0.3909  0.3774 -1.7701
19457SOL    HW258950   9.415   9.009   6.603 -0.0771 -2.4547  1.8227
19458SOL     OW58951   7.792   6.576   0.261  0.7413  0.5431  0.5264
19458SOL    HW158952   7.730   6.648   0.271  0.8028  0.7106 -0.2863
19458SOL    HW258953   7.747   6.514   0.203  0.3631 -0.4550  1.8200
19459SOL     OW58954   3.426   4.523   5.542 -0.5192 -0.2506 -0.0173
19459SOL    HW158955   3.348   4.546   5.492 -0.4986 -1.3144 -0.5597
19459SOL    HW258956   3.395   4.516   5.632 -1.0295 -0.5730 -0.2169
19460SOL     OW58957   0.236   4.060   5.668  0.0439 -0.1690  0.5060
19460SOL    HW158958   0.279   4.066   5.582 -0.7312  0.3611  0.1407
19460SOL    HW258959   0.145   4.084   5.651  0.1624  1.2796  1.7014
19461SOL     OW58960   8.315   9.689   4.207 -0.2515  0.1915 -0.0573
19461SOL    HW158961   8.304   9.680   4.302  2.1817  0.5876  0.3227
19461SOL    HW258962   8.300   9.782   4.190  0.7411  0.4056  0.1889
19462SOL     OW58963   5.466   5.426   3.409 -0.1297  0.3254 -0.0043
19462SOL    HW158964   5.386   5.471   3.434 -1.0974 -1.7792  0.9327
19462SOL    HW258965   5.520   5.427   3.488 -0.5207 -0.8311  0.2995
19463SOL     OW58966   9.160   9.222   4.025  0.2326 -0.2579 -0.2270
19463SOL    HW158967   9.122   9.292   4.077  1.1045  1.3624 -1.6390
19463SOL    HW258968   9.165   9.147   4.084 -0.1653  1.0430  1.5342
19464SOL     OW58969   2.060   3.897   2.192 -0.2396  0.4486  0.2830
19464SOL    HW158970   2.149   3.872   2.167 -0.5934  0.2975 -0.8707
19464SOL    HW258971   2.007   3.819   2.175 -0.7859  0.9042 -0.1306
19465SOL     OW58972   8.308   4.792   0.105  0.0791  0.3070 -0.4983
19465SOL    HW158973   8.321   4.699   0.125 -1.2341  0.2582  0.2341
19465SOL    HW258974   8.396   4.829   0.109  0.7050 -0.9963 -1.3479
19466SOL     OW58975   5.184   7.377   3.472 -0.1005  0.0481 -0.1753
19466SOL    HW158976   5.243   7.426   3.415  0.5850  0.6497  0.9977
19466SOL    HW258977   5.239   7.353   3.547 -0.6562 -1.7681 -0.3068
19467SOL     OW58978   2.958   1.906   4.106 -0.7725  0.0434  0.3387
19467SOL    HW158979   2.906   1.889   4.028  0.0974 -0.1608 -0.2126
19467SOL    HW258980   2.895   1.934   4.172 -1.5530 -0.0704 -0.3514
19468SOL     OW58981   6.554   1.150   0.074  0.0973  0.4589  0.4435
19468SOL    HW158982   6.469   1.159   0.031  0.4146  1.1934 -0.0540
19468SOL    HW258983   6.554   1.219   0.141 -0.1084 -0.2164  1.1569
19469SOL     OW58984   5.237   2.509   7.650 -0.5783  0.0687  0.4840
19469SOL    HW158985   5.144   2.495   7.632 -0.0623 -2.8672 -0.3811
19469SOL    HW258986   5.281   2.489   7.567  0.8261  2.5623  0.5135
19470SOL     OW58987   1.306   4.838   1.092 -0.8542 -0.6654  0.4609
19470SOL    HW158988   1.306   4.845   1.188  0.4933 -0.6969  0.4861
19470SOL    HW258989   1.387   4.790   1.072 -1.6962 -1.6895 -0.6322
19471SOL     OW58990   0.059   6.521   4.360  0.3809  0.1936  0.2891
19471SOL    HW158991  -0.005   6.559   4.420  1.0933  0.7120  0.7275
19471SOL    HW258992   0.110   6.460   4.414  1.2729  0.9453  0.3170
19472SOL     OW58993   6.203   6.145   3.648 -0.5031 -0.0859  0.2160
19472SOL    HW158994   6.243   6.218   3.694 -0.3858 -0.7065  1.1332
19472SOL    HW258995   6.277   6.094   3.615 -0.5768 -0.0922  0.0573
19473SOL     OW58996   6.651   3.741   4.379 -0.3337  0.3163 -0.3012
19473SOL    HW158997   6.717   3.766   4.443  0.1995 -0.3527 -0.5861
19473SOL    HW258998   6.570   3.782   4.411  0.2650  1.3878 -0.1084
19474SOL     OW58999   5.691   7.763   6.372 -0.1126  0.0010 -0.0705
19474SOL    HW159000   5.659   7.846   6.407  0.2951 -0.2775  1.0064
19474SOL    HW259001   5.632   7.697   6.408  1.5768 -0.5224  1.9490
19475SOL     OW59002   9.464   6.684   9.404 -0.1259 -0.3654  0.5845
19475SOL    HW159003   9.526   6.628   9.356  0.1752  1.4729 -1.3469
19475SOL    HW259004   9.440   6.751   9.341 -1.2080  1.1353  2.5041
19476SOL     OW59005   0.822   7.694   9.057  0.0748  0.2627 -0.3391
19476SOL    HW159006   0.740   7.687   9.008  1.0233 -1.5016 -1.8364
19476SOL    HW259007   0.854   7.782   9.039 -0.4894  0.2529 -1.5057
19477SOL     OW59008   2.505   9.660   9.382  0.2027  0.5310 -0.1210
19477SOL    HW159009   2.494   9.750   9.410  0.8233  0.4852  0.2828
19477SOL    HW259010   2.441   9.649   9.311  1.3567  1.8290 -1.4155
19478SOL     OW59011   4.795   5.883   8.575 -0.2326 -0.3591  0.0658
19478SOL    HW159012   4.704   5.856   8.587 -0.5714  0.1743 -1.1668
19478SOL    HW259013   4.808   5.954   8.638 -1.2885  0.8871 -1.0683
19479SOL     OW59014   1.669   5.876   7.542 -0.3525 -0.0740  0.0007
19479SOL    HW159015   1.603   5.860   7.609 -0.1658  1.2036  0.5084
19479SOL    HW259016   1.738   5.813   7.561 -1.9160 -2.3340 -1.3119
19480SOL     OW59017   4.841   8.636   1.756 -0.3875  0.3951 -0.0436
19480SOL    HW159018   4.770   8.699   1.759  0.0961  0.9187  0.8146
19480SOL    HW259019   4.824   8.584   1.677 -1.7975  0.4006  0.2296
19481SOL     OW59020   6.190   0.984   2.780 -0.3759  0.0426  0.1326
19481SOL    HW159021   6.215   0.941   2.862  0.7719  0.3916 -0.0123
19481SOL    HW259022   6.146   0.917   2.730 -0.0060 -0.5246  0.5489
19482SOL     OW59023   8.118   9.055   1.111 -0.1445  0.4126  0.1871
19482SOL    HW159024   8.050   8.989   1.094  0.6039 -0.7271  1.4295
19482SOL    HW259025   8.150   9.079   1.025 -2.1301  1.0165 -0.4442
19483SOL     OW59026   1.610   3.245   1.212 -0.1291 -0.4871 -0.5675
19483SOL    HW159027   1.531   3.202   1.180 -1.5816 -1.3302  3.5695
19483SOL    HW259028   1.657   3.177   1.260  2.2549  0.4456 -1.4237
19484SOL     OW59029   6.003   9.358   9.184  0.1367  0.0132 -0.1925
19484SOL    HW159030   6.090   9.396   9.199  0.0305 -0.4287  1.8705
19484SOL    HW259031   6.008   9.270   9.221 -1.2870  0.1020  0.2837
19485SOL     OW59032   1.472   2.937   2.188 -0.2665  0.1345  0.1739
19485SOL    HW159033   1.483   2.846   2.158 -0.5770  0.5986 -1.4788
19485SOL    HW259034   1.555   2.979   2.167  0.3511 -0.0251  2.1065
19486SOL     OW59035   3.001   8.504   2.394 -0.0620  0.2403  0.0564
19486SOL    HW159036   2.930   8.441   2.379  0.7095 -1.2358  2.2010
19486SOL    HW259037   2.974   8.582   2.345 -3.3884 -0.0867  1.1146
19487SOL     OW59038   4.190   9.278   5.254 -0.2836 -0.5125  0.2714
19487SOL    HW159039   4.270   9.234   5.228 -1.5024 -2.3718 -0.5251
19487SOL    HW259040   4.197   9.365   5.214  0.7573 -1.0850 -0.8666
19488SOL     OW59041   7.651   4.228   3.208 -0.2839  0.2524 -0.1684
19488SOL    HW159042   7.685   4.145   3.243 -0.6315  1.1851  2.6564
19488SOL    HW259043   7.712   4.294   3.241 -0.4523  1.2232 -1.7108
19489SOL     OW59044   7.795   6.026   9.157 -0.4643  0.2652 -0.7443
19489SOL    HW159045   7.750   6.072   9.228 -0.0429 -1.0492  0.4296
19489SOL    HW259046   7.840   5.953   9.201 -0.6034 -0.8915 -2.4302
19490SOL     OW59047   4.359   1.055   1.174  0.1461  0.0661 -0.0100
19490SOL    HW159048   4.323   1.142   1.193 -0.8815 -0.0908 -1.0888
19490SOL    HW259049   4.431   1.045   1.236 -2.7384 -0.3415  3.6750
19491SOL     OW59050   1.572   7.477   7.346  0.8449  0.0108  0.1045
19491SOL    HW159051   1.544   7.398   7.298  1.7236  1.3003 -2.7549
19491SOL    HW259052   1.664   7.461   7.366  0.3039 -0.8357  2.2089
19492SOL     OW59053   4.582   7.666   1.359 -0.2344  0.2118  0.0211
19492SOL    HW159054   4.529   7.632   1.431 -1.2670 -1.1223 -1.2838
19492SOL    HW259055   4.673   7.651   1.386 -0.6212 -1.4441  0.5479
19493SOL     OW59056   9.840   1.886   9.115 -0.0745  0.3851 -0.1784
19493SOL    HW159057   9.917   1.913   9.165  0.2533 -0.4776 -0.1999
19493SOL    HW259058   9.873   1.874   9.026 -0.3687  0.5926 -0.3170
19494SOL     OW59059   6.429   8.027   1.454 -0.0087  0.1820  0.5790
19494SOL    HW159060   6.450   7.943   1.412  1.0366  0.4038  0.6514
19494SOL    HW259061   6.512   8.058   1.490 -0.5865  0.7459  1.4770
19495SOL     OW59062   7.069   5.219   7.604 -0.9526  0.1962 -0.0795
19495SOL    HW159063   7.021   5.144   7.570  0.9416 -0.9960 -0.3257
19495SOL    HW259064   7.009   5.293   7.596 -1.8289 -0.6804 -2.8275
19496SOL     OW59065   3.492   0.613   9.496  0.4477  0.0602 -0.2679
19496SOL    HW159066   3.420   0.605   9.559 -0.5065  1.8487 -1.0396
19496SOL    HW259067   3.571   0.603   9.548 -0.2781  2.1711  1.4145
19497SOL     OW59068   6.328   4.455   0.193  0.3145 -0.1063  0.4083
19497SOL    HW159069   6.325   4.375   0.141  0.2446  0.2143 -0.0926
19497SOL    HW259070   6.266   4.514   0.150 -0.0095  0.0430  1.0703
19498SOL     OW59071   9.040   5.717   1.945  0.0307  0.3450  0.0394
19498SOL    HW159072   8.992   5.758   1.873  0.9048 -0.7104 -1.2019
19498SOL    HW259073   8.984   5.646   1.975 -0.3021  0.7394  0.3642
19499SOL     OW59074   4.673   8.423   6.498 -0.2213  0.4900 -0.0244
19499SOL    HW159075   4.711   8.506   6.467 -0.9605  0.8494  0.0123
19499SOL    HW259076   4.714   8.356   6.443  2.3760  0.5644  1.6502
19500SOL     OW59077   2.636   0.231   2.088 -0.2505 -0.5459  0.2038
19500SOL    HW159078   2.699   0.167   2.122 -0.3398  0.2750  2.0229
19500SOL    HW259079   2.687   0.312   2.078 -0.5938 -0.3679 -0.1611
19501SOL     OW59080   4.620   8.821   5.977 -0.1178  0.2151  0.0020
19501SOL    HW159081   4.561   8.803   6.050  0.3364 -0.1718  0.2853
19501SOL    HW259082   4.606   8.749   5.916 -0.2444  0.3495 -0.1261
19502SOL     OW59083   7.359   5.735   1.626 -0.3099 -0.1765 -0.8717
19502SOL    HW159084   7.385   5.813   1.675  0.8730 -0.7157 -0.5980
19502SOL    HW259085   7.307   5.684   1.689  0.0949 -0.2577 -0.6023
19503SOL     OW59086   8.189   7.848   8.755 -0.1894 -0.1016  0.0331
19503SOL    HW159087   8.113   7.880   8.804  0.6010  3.8938 -0.9586
19503SOL    HW259088   8.167   7.863   8.664  1.0843 -0.7097 -0.3967
19504SOL     OW59089   4.676   7.344   8.996 -0.3646 -0.4568 -0.0135
19504SOL    HW159090   4.754   7.385   8.959 -2.3560  1.5506 -2.3300
19504SOL    HW259091   4.657   7.398   9.073  0.3638 -0.8227  0.4389
19505SOL     OW59092   6.477   3.189   3.920 -0.0020 -0.5816  0.1733
19505SOL    HW159093   6.497   3.256   3.855  0.7468 -1.7310 -0.8238
19505SOL    HW259094   6.561   3.168   3.961 -0.1191 -1.3477  0.0373
19506SOL     OW59095   8.119   6.980   2.907 -0.3550  0.5001  0.1372
19506SOL    HW159096   8.178   6.918   2.865  0.5435  1.6049 -0.2686
19506SOL    HW259097   8.040   6.979   2.853 -0.7737 -1.0721  0.7491
19507SOL     OW59098   3.674   3.605   4.554 -0.2927 -0.7365  0.4270
19507SOL    HW159099   3.743   3.540   4.566  2.7282  2.0394 -0.4601
19507SOL    HW259100   3.664   3.645   4.641 -2.1555 -2.2324  0.9748
19508SOL     OW59101   5.465   3.958   3.892  0.4562 -0.4214 -0.1215
19508SOL    HW159102   5.423   3.872   3.891  1.9255 -1.1832 -0.4733
19508SOL    HW259103   5.417   4.008   3.957 -1.7476 -0.8156 -1.3643
19509SOL     OW59104   8.080   2.730   1.756 -0.0402 -0.0530 -0.9952
19509SOL    HW159105   8.064   2.669   1.827 -0.1073 -2.1585 -2.7184
19509SOL    HW259106   8.037   2.811   1.783  1.4390 -0.1365  2.1210
19510SOL     OW59107   2.960   2.254   6.723 -0.2703 -0.3704  0.5447
19510SOL    HW159108   2.995   2.342   6.738 -0.3018 -0.2593 -0.0081
19510SOL    HW259109   2.885   2.248   6.782 -1.0236  0.4467 -0.2845
19511SOL     OW59110   3.443   8.010   9.511 -0.5199 -0.4434 -0.1179
19511SOL    HW159111   3.508   8.004   9.581 -0.3927 -0.3274 -0.2271
19511SOL    HW259112   3.362   8.033   9.557 -0.6112 -1.1437  0.0835
19512SOL     OW59113   5.587   5.255   1.390  0.0530 -0.7957 -0.1489
19512SOL    HW159114   5.574   5.303   1.308  0.0102  0.0577  0.3444
19512SOL    HW259115   5.525   5.294   1.451  0.0691 -1.4409  0.2850
19513SOL     OW59116   5.223   9.113   9.217  0.3776  0.1345 -0.0241
19513SOL    HW159117   5.272   9.083   9.141  0.0412 -1.3885  0.3416
19513SOL    HW259118   5.150   9.052   9.226 -0.1308  0.8447  0.9736
19514SOL     OW59119   5.662   4.983   4.546 -0.1314 -0.7488 -0.1666
19514SOL    HW159120   5.667   5.076   4.523 -0.6924 -0.5785  0.3931
19514SOL    HW259121   5.576   4.972   4.585  0.3175 -1.2998  0.6975
19515SOL     OW59122   0.928   2.799   9.931  0.0372  0.5639 -0.0143
19515SOL    HW159123   0.992   2.782   9.863  0.5696  3.2271 -0.2746
19515SOL    HW259124   0.980   2.821  10.009 -0.5567  0.6633  0.3629
19516SOL     OW59125   0.987   2.516   8.840  0.2536  0.4166  0.6104
19516SOL    HW159126   0.934   2.584   8.881 -0.0648  0.5030  0.0615
19516SOL    HW259127   0.972   2.526   8.746  0.2868 -0.3454  0.5147
19517SOL     OW59128   9.235   3.335   6.189  0.0901  0.0861 -0.2052
19517SOL    HW159129   9.307   3.361   6.132  0.8946 -1.3579  0.1110
19517SOL    HW259130   9.257   3.246   6.217 -0.9163  0.2810  1.3415
19518SOL     OW59131   9.394   5.423   3.842 -0.9751 -0.3608 -0.3427
19518SOL    HW159132   9.489   5.411   3.842 -1.0763 -1.4416 -1.8244
19518SOL    HW259133   9.359   5.338   3.870 -1.5199 -0.0611 -0.0929
19519SOL     OW59134   0.232   9.980   0.196  0.7647  0.1679 -0.2390
19519SOL    HW159135   0.285   9.936   0.263 -1.5391  0.7768  2.1402
19519SOL    HW259136   0.164   9.917   0.174 -1.4944  1.7258  1.8634
19520SOL     OW59137   4.323   2.696   4.180 -0.2139 -0.3695 -0.4046
19520SOL    HW159138   4.269   2.774   4.169 -1.1870 -0.8037  1.0422
19520SOL    HW259139   4.307   2.667   4.270  1.7173 -1.0752 -0.2429
19521SOL     OW59140   6.098   9.934   9.234  0.3581  0.5015 -0.1791
19521SOL    HW159141   6.155   9.999   9.277  1.5475 -0.2140 -0.6180
19521SOL    HW259142   6.011   9.951   9.270  1.1239  0.5842  1.7704
19522SOL     OW59143   9.532   5.391   1.375  0.4964 -0.0136  0.0865
19522SOL    HW159144   9.482   5.348   1.305  0.8121 -3.7798  1.8875
19522SOL    HW259145   9.470   5.396   1.448  1.1222  0.7077  0.5760
19523SOL     OW59146   6.988   1.252   0.123  0.0294  0.5126  0.3939
19523SOL    HW159147   7.083   1.244   0.113  0.0960 -1.2470  1.8483
19523SOL    HW259148   6.966   1.335   0.082  1.7777 -0.3983 -2.7362
19524SOL     OW59149   3.444   1.753   9.281  0.3117 -0.0615  0.4648
19524SOL    HW159150   3.504   1.688   9.317  1.1627 -0.3026 -1.2446
19524SOL    HW259151   3.493   1.835   9.286 -0.2012  0.2026  1.3080
19525SOL     OW59152   7.587   7.018   2.420 -0.2314  0.0888  0.0331
19525SOL    HW159153   7.581   6.968   2.339  0.8418 -1.3682  0.8214
19525SOL    HW259154   7.648   7.089   2.400 -0.3947  0.0568 -0.5929
19526SOL     OW59155   9.147   7.804   4.518  0.3713 -0.3771 -0.7583
19526SOL    HW159156   9.086   7.757   4.461  1.5394 -0.9282 -1.5977
19526SOL    HW259157   9.206   7.736   4.552  1.2429  0.2734 -0.9165
19527SOL     OW59158   8.840   0.867   2.105  0.0025 -0.3369  0.2070
19527SOL    HW159159   8.879   0.788   2.142  1.7738  0.5459  0.3282
19527SOL    HW259160   8.801   0.912   2.179 -1.5760 -1.3673  0.0419
19528SOL     OW59161   5.239   1.767   2.969 -0.4200  0.3404 -0.1692
19528SOL    HW159162   5.285   1.744   3.050  0.4237  1.9419 -0.1497
19528SOL    HW259163   5.240   1.687   2.917  1.3056 -0.0067  0.3477
19529SOL     OW59164   5.638   6.130   7.531  0.0692  0.1732  0.0920
19529SOL    HW159165   5.558   6.180   7.519  0.9079  1.4286 -0.4416
19529SOL    HW259166   5.646   6.078   7.451  0.9982  1.8464 -0.9614
19530SOL     OW59167   6.362   4.613   3.062  0.1478 -0.1111  0.0242
19530SOL    HW159168   6.314   4.529   3.059  2.9811 -1.8614  0.4069
19530SOL    HW259169   6.453   4.588   3.077  1.3670  2.9994 -1.3550
19531SOL     OW59170   3.720   0.533   4.348 -0.2685 -0.2616 -0.2930
19531SOL    HW159171   3.724   0.498   4.436  2.4322  2.0213  0.6489
19531SOL    HW259172   3.651   0.599   4.351  1.0013  1.0853  0.7326
19532SOL     OW59173   7.876   5.735   1.858  0.6143  0.2124  0.3352
19532SOL    HW159174   7.941   5.717   1.790 -0.7437  1.5522 -1.4316
19532SOL    HW259175   7.916   5.705   1.939  2.8098 -0.3408 -0.8848
19533SOL     OW59176   4.163   6.240   3.254  0.5375 -0.0346  0.4811
19533SOL    HW159177   4.168   6.306   3.322  2.5753  1.5549 -1.0806
19533SOL    HW259178   4.236   6.180   3.273  1.7408  0.9688 -0.7481
19534SOL     OW59179   7.266   0.833   1.517 -0.0574  0.2445 -0.0958
19534SOL    HW159180   7.245   0.810   1.427 -0.5853 -0.0377  0.0943
19534SOL    HW259181   7.335   0.772   1.542 -0.0122  0.2275 -0.2652
19535SOL     OW59182   2.515   0.908   3.351  0.4881  0.6830 -0.1154
19535SOL    HW159183   2.419   0.909   3.361  0.1747 -2.9416 -1.3118
19535SOL    HW259184   2.533   0.976   3.287 -0.9225  3.0837  1.8685
19536SOL     OW59185   0.292   3.449   8.573  0.0911  0.0080 -0.0209
19536SOL    HW159186   0.311   3.528   8.623 -1.0942  0.2795  0.0417
19536SOL    HW259187   0.218   3.473   8.518  1.0271 -0.4583 -1.5287
19537SOL     OW59188   6.504   8.109   4.531 -0.6113  0.5483 -0.0221
19537SOL    HW159189   6.570   8.144   4.591  0.5608 -1.6986  0.1201
19537SOL    HW259190   6.446   8.183   4.513  0.0564  1.7735  2.4165
19538SOL     OW59191   3.383   5.691   3.973  0.2929  0.0623  0.3381
19538SOL    HW159192   3.453   5.756   3.983 -0.7533  1.8260 -2.4187
19538SOL    HW259193   3.304   5.736   4.003 -0.3107 -0.2508 -0.7253
19539SOL     OW59194   9.669   2.768   6.582 -0.3519 -0.8717  0.1637
19539SOL    HW159195   9.592   2.753   6.528  0.9250 -1.7446 -1.5358
19539SOL    HW259196   9.730   2.815   6.524  0.1056  0.5628  1.7210
19540SOL     OW59197   4.027   2.000   3.867 -0.2599 -0.4453  0.0451
19540SOL    HW159198   4.020   1.999   3.962 -1.2852 -2.3217  0.0027
19540SOL    HW259199   4.120   1.985   3.849  0.0231  0.3828  0.7099
19541SOL     OW59200   1.615   8.955   0.979  0.2370  0.1773 -0.4947
19541SOL    HW159201   1.571   8.946   1.064  3.3815 -1.1981  1.1462
19541SOL    HW259202   1.571   8.893   0.922 -3.5184  2.7684 -0.7434
19542SOL     OW59203   6.009   7.922   6.381 -0.4120 -0.2814  0.1329
19542SOL    HW159204   6.051   7.899   6.463  0.8152  1.0650 -0.0772
19542SOL    HW259205   5.916   7.928   6.403 -0.2713 -1.3288  1.0779
19543SOL     OW59206   6.315   3.126   5.908 -0.6484 -0.0863  0.1361
19543SOL    HW159207   6.382   3.061   5.888 -0.5531  1.0647 -4.2095
19543SOL    HW259208   6.239   3.075   5.934  0.5642 -1.6724  0.7245
19544SOL     OW59209   9.529   4.897   8.190 -0.4212  0.2216 -0.3034
19544SOL    HW159210   9.493   4.886   8.278 -0.4565  2.3666  0.0080
19544SOL    HW259211   9.453   4.900   8.133 -0.5406  0.9709 -0.1177
19545SOL     OW59212   5.927   3.593   5.646 -0.0623  0.3394 -0.4751
19545SOL    HW159213   5.984   3.633   5.580  1.9412  0.4578  1.2499
19545SOL    HW259214   5.972   3.513   5.672 -1.7128 -0.6423 -0.4841
19546SOL     OW59215   4.067   1.002   1.951 -0.0929  0.1303 -0.4026
19546SOL    HW159216   3.979   1.004   1.988 -0.2104  0.8591 -0.7195
19546SOL    HW259217   4.096   0.912   1.966 -0.3341  0.2549  0.9860
19547SOL     OW59218   3.193   5.710   0.282 -0.7740  0.3657 -0.6209
19547SOL    HW159219   3.283   5.686   0.259 -0.1042  1.6388  0.5248
19547SOL    HW259220   3.181   5.796   0.243 -1.4668  0.2453 -0.6733
19548SOL     OW59221   4.821   7.577   4.387  0.2288 -0.2027  1.2385
19548SOL    HW159222   4.898   7.523   4.373  0.7271  0.5578  0.9710
19548SOL    HW259223   4.752   7.535   4.336  0.6650 -0.4647  0.8588
19549SOL     OW59224   4.363   9.710   3.794 -0.0326  0.6720 -0.1634
19549SOL    HW159225   4.346   9.770   3.721  1.0210  0.7127 -0.3912
19549SOL    HW259226   4.346   9.623   3.757  0.4830  0.6938 -0.4524
19550SOL     OW59227   4.228   0.515   0.316  0.1061  0.3763 -0.0952
19550SOL    HW159228   4.177   0.569   0.376  2.5639 -0.6406  3.2485
19550SOL    HW259229   4.315   0.553   0.317  0.5514 -0.4360 -2.1574
19551SOL     OW59230   7.533   8.970   8.517  0.4563  0.2279  0.2471
19551SOL    HW159231   7.480   9.015   8.582  1.8742  0.5913  1.2010
19551SOL    HW259232   7.582   9.039   8.473  1.7958 -0.2285  0.9426
19552SOL     OW59233   8.036   2.632   9.843  0.6776 -0.2744  0.1139
19552SOL    HW159234   7.974   2.559   9.845 -0.3519  0.5768  0.8217
19552SOL    HW259235   8.075   2.633   9.930 -0.7563  1.1596  0.7949
19553SOL     OW59236   7.953   6.476  -0.007 -0.2158  0.0618 -0.5408
19553SOL    HW159237   7.979   6.515   0.076 -0.0004 -0.9279 -0.1337
19553SOL    HW259238   7.935   6.385   0.014  0.2834 -0.3146 -1.6681
19554SOL     OW59239   3.628   8.142   4.014  0.1718  0.4262 -0.2881
19554SOL    HW159240   3.568   8.195   3.962  0.1540  0.2430 -0.4526
19554SOL    HW259241   3.705   8.131   3.958 -0.8250 -1.9200 -1.3277
19555SOL     OW59242   9.536   4.455   4.406  0.1281 -0.4629  0.2467
19555SOL    HW159243   9.559   4.473   4.315 -2.9882 -2.0251 -1.0066
19555SOL    HW259244   9.550   4.361   4.416  0.3169 -0.3329  1.3737
19556SOL     OW59245   8.623   7.806   5.001  0.6009  0.7635 -0.3406
19556SOL    HW159246   8.628   7.852   5.085 -0.9743  0.1247  0.1460
19556SOL    HW259247   8.580   7.723   5.022  0.3223  0.5232 -1.7600
19557SOL     OW59248   7.791   5.054   0.552 -0.0746 -0.1463 -0.4763
19557SOL    HW159249   7.819   4.973   0.510 -1.4563 -0.0775 -1.6134
19557SOL    HW259250   7.696   5.045   0.563  0.0287  0.4545  1.3519
19558SOL     OW59251   3.167   5.757   1.266 -0.1282 -0.3627 -0.4257
19558SOL    HW159252   3.233   5.706   1.218 -0.4431  0.1294 -1.4103
19558SOL    HW259253   3.120   5.804   1.198  0.3418  1.4869  0.4748
19559SOL     OW59254   3.321   8.222   4.318  0.4180 -0.3381 -0.5613
19559SOL    HW159255   3.282   8.282   4.382 -0.6035  1.2606 -2.5755
19559SOL    HW259256   3.294   8.135   4.348 -0.5230  0.3922  0.8458
19560SOL     OW59257   4.074   1.443   4.438 -0.2452 -0.5264 -0.0073
19560SOL    HW159258   4.073   1.348   4.429 -2.5745 -0.5489 -0.0194
19560SOL    HW259259   3.983   1.467   4.451  0.1993  1.7892 -0.7198
19561SOL     OW59260   2.238   6.359   8.562 -0.9536 -0.3710 -0.0128
19561SOL    HW159261   2.186   6.353   8.482 -0.8057 -0.6196 -0.0939
19561SOL    HW259262   2.316   6.408   8.536 -0.3403 -1.4651 -0.3337
19562SOL     OW59263   4.555   2.583   4.113 -0.3292  0.5597  0.5193
19562SOL    HW159264   4.598   2.560   4.195 -0.8032 -0.5485  0.4722
19562SOL    HW259265   4.474   2.625   4.139 -1.1286 -0.9836  0.6732
19563SOL     OW59266   5.579   9.587   7.057 -0.3553  0.7755 -0.4583
19563SOL    HW159267   5.615   9.609   6.971  0.1058 -1.5940 -0.9343
19563SOL    HW259268   5.621   9.504   7.080 -0.9772  1.0125  1.7687
19564SOL     OW59269   7.720   2.562   4.627  0.5340 -0.1833  0.5620
19564SOL    HW159270   7.760   2.614   4.695  0.6444 -0.6952  0.8959
19564SOL    HW259271   7.648   2.616   4.593  1.6374  0.8469 -0.2148
19565SOL     OW59272   7.320   1.677   4.347  0.3132  0.0181 -0.2752
19565SOL    HW159273   7.387   1.627   4.300  1.3395  0.5715  0.5799
19565SOL    HW259274   7.362   1.761   4.368 -0.6015  0.3301  0.3733
19566SOL     OW59275   0.018   4.201   4.836 -0.3017  0.0824  0.0314
19566SOL    HW159276   0.111   4.188   4.855 -0.1857  3.3322  2.5873
19566SOL    HW259277   0.017   4.258   4.759  0.1218  2.6458  1.7773
19567SOL     OW59278   0.680   0.154   1.654 -0.5471  0.3010  0.2167
19567SOL    HW159279   0.759   0.111   1.687 -0.5958  1.7040  2.4204
19567SOL    HW259280   0.656   0.104   1.576  1.5057 -1.2428  0.4790
19568SOL     OW59281   4.110   1.945   1.483  0.2266 -0.2088  0.1254
19568SOL    HW159282   4.205   1.953   1.474  0.2931 -1.6488 -0.6651
19568SOL    HW259283   4.092   1.969   1.574  1.1598  1.4484 -0.0708
19569SOL     OW59284   8.821   0.370   8.791  0.1199  0.4077 -0.2280
19569SOL    HW159285   8.858   0.298   8.842 -1.7259 -1.1664 -0.9857
19569SOL    HW259286   8.789   0.432   8.857  1.2685  0.3170  0.4375
19570SOL     OW59287   2.838   5.844   4.198 -0.0149  0.1956 -0.5045
19570SOL    HW159288   2.873   5.929   4.173 -1.8977  1.5014  0.9881
19570SOL    HW259289   2.754   5.838   4.153 -0.1369 -0.6482 -0.1847
19571SOL     OW59290   5.983   3.180   3.349 -0.2387  1.0218  0.6707
19571SOL    HW159291   5.911   3.122   3.375 -0.5172  0.4857 -1.1325
19571SOL    HW259292   6.051   3.120   3.316 -0.7261  1.6740 -1.6903
19572SOL     OW59293   7.780   4.895   5.309  0.5399 -0.1313  1.0238
19572SOL    HW159294   7.692   4.925   5.333  0.7438  0.0700  1.5150
19572SOL    HW259295   7.772   4.872   5.216  0.4608  1.7748  0.5168
19573SOL     OW59296   8.336   2.179   8.962 -0.1285  0.0281  0.7876
19573SOL    HW159297   8.409   2.136   8.918  0.2046  0.9269  0.4349
19573SOL    HW259298   8.285   2.107   9.001  0.3028 -0.6820  0.0632
19574SOL     OW59299   1.238   8.570   6.232  0.3413 -0.4060  0.0198
19574SOL    HW159300   1.306   8.510   6.265 -0.3499 -0.9080  0.5509
19574SOL    HW259301   1.217   8.536   6.145 -1.1787 -1.9288  0.9263
19575SOL     OW59302   1.097   4.654   2.901  0.1350 -0.4716  0.5392
19575SOL    HW159303   1.136   4.651   2.988 -0.2150 -1.4513  0.6787
19575SOL    HW259304   1.003   4.657   2.916  0.0211 -1.7597  0.2147
19576SOL     OW59305   6.168   0.011   7.210  0.0736 -0.1020  0.0064
19576SOL    HW159306   6.263   0.001   7.219  0.1359  1.0812  0.7440
19576SOL    HW259307   6.157   0.095   7.167 -0.6234 -0.7841 -1.2018
19577SOL     OW59308   9.130   5.925   3.382  0.1525  0.4544  0.4040
19577SOL    HW159309   9.175   5.985   3.323 -0.9861  1.1863  0.2494
19577SOL    HW259310   9.176   5.934   3.465  1.2325  0.0409 -0.1245
19578SOL     OW59311   1.736   2.489   6.160  0.6821  0.1193  0.4005
19578SOL    HW159312   1.710   2.404   6.125 -1.5258  0.3663  1.2563
19578SOL    HW259313   1.804   2.469   6.224  0.9175 -0.8812 -0.1458
19579SOL     OW59314   7.071   4.458   5.028 -0.4255  0.1647 -0.0373
19579SOL    HW159315   6.987   4.492   5.058 -0.3655 -0.1364  0.4828
19579SOL    HW259316   7.128   4.464   5.105 -0.6385 -1.8665  0.3279
19580SOL     OW59317   2.750   5.770   5.039 -0.3549  0.7732 -0.3282
19580SOL    HW159318   2.665   5.733   5.020  0.1868 -0.2533 -0.8203
19580SOL    HW259319   2.748   5.857   4.998 -0.5435  0.0611 -1.8635
19581SOL     OW59320   7.287   6.416   1.588  0.1427  0.0882 -0.0343
19581SOL    HW159321   7.329   6.419   1.674 -0.6863 -1.5566  0.4661
19581SOL    HW259322   7.225   6.489   1.589 -0.9075 -0.7676  1.3796
19582SOL     OW59323   7.549   2.743   7.638 -0.0531 -0.2424  0.2535
19582SOL    HW159324   7.531   2.746   7.732 -1.5827 -1.2088  0.0299
19582SOL    HW259325   7.632   2.696   7.631 -0.9223 -2.0199  1.0744
19583SOL     OW59326   6.039   2.354   5.059  0.2916 -0.0640 -0.1499
19583SOL    HW159327   6.044   2.260   5.044 -0.1387 -0.0224 -0.5617
19583SOL    HW259328   6.022   2.392   4.973  0.8786  0.4286 -0.0578
19584SOL     OW59329   6.512   4.459   0.592 -0.3837 -0.2761 -0.2851
19584SOL    HW159330   6.482   4.549   0.598  1.7379  0.5251 -0.9425
19584SOL    HW259331   6.585   4.453   0.654  1.1774 -0.7793 -2.0979
19585SOL     OW59332   0.486   3.506   5.190  0.2290  0.1452 -0.0231
19585SOL    HW159333   0.394   3.514   5.217  0.3825  1.6984  0.1087
19585SOL    HW259334   0.482   3.463   5.105 -0.6203  0.2091 -0.0255
19586SOL     OW59335   0.702   3.647   1.576  0.0359  0.1456 -0.1254
19586SOL    HW159336   0.716   3.684   1.489  1.1981 -0.3632 -0.1716
19586SOL    HW259337   0.759   3.570   1.578 -2.0879 -1.4987  0.0667
19587SOL     OW59338   4.525   4.793   0.350  0.2016 -0.6279  0.2203
19587SOL    HW159339   4.527   4.845   0.430  0.2593 -1.4896  0.7931
19587SOL    HW259340   4.521   4.702   0.381  1.4274 -1.0382 -0.7388
19588SOL     OW59341   2.727   0.643   1.455 -0.4115  0.2500  0.2069
19588SOL    HW159342   2.686   0.729   1.464 -0.8047  0.4062 -2.3903
19588SOL    HW259343   2.654   0.581   1.457 -0.1917  0.0118  1.3811
19589SOL     OW59344   1.051   5.515   9.028 -0.1065  0.4558  0.6566
19589SOL    HW159345   0.969   5.551   8.995 -0.5978  0.3234  1.7002
19589SOL    HW259346   1.039   5.420   9.024  0.6533  0.3846 -0.7649
19590SOL     OW59347   5.473   0.454   4.696  0.7797 -0.3822 -0.5711
19590SOL    HW159348   5.407   0.479   4.760  2.3823  0.2634  0.8958
19590SOL    HW259349   5.427   0.395   4.636 -1.6834  1.7312 -0.9347
19591SOL     OW59350   2.719   4.318   1.050  0.0866 -0.5494  0.1262
19591SOL    HW159351   2.653   4.360   1.105  1.7567  1.1707  0.9443
19591SOL    HW259352   2.726   4.376   0.974  2.3755  0.7541  1.2345
19592SOL     OW59353   9.365   2.915   7.644  0.0712  0.5705  0.1697
19592SOL    HW159354   9.271   2.907   7.631  0.3121 -0.3842 -1.2472
19592SOL    HW259355   9.388   2.841   7.701  0.2255 -0.3877 -1.1027
19593SOL     OW59356   2.947   1.334   5.757  0.1490 -0.2671 -0.0451
19593SOL    HW159357   3.016   1.389   5.794 -0.3521  0.1229  0.3321
19593SOL    HW259358   2.881   1.329   5.826 -0.1705 -0.6821 -0.3782
19594SOL     OW59359   5.061   5.226   0.267  0.2723 -0.1409 -0.0831
19594SOL    HW159360   5.134   5.165   0.258  1.8196  1.4944  0.7143
19594SOL    HW259361   5.045   5.257   0.178  0.3020 -0.7624 -0.3115
19595SOL     OW59362   9.499   1.294   4.418 -0.2346 -0.7955  0.4859
19595SOL    HW159363   9.590   1.264   4.424  0.3987  0.9009  0.2118
19595SOL    HW259364   9.507   1.389   4.406 -2.0105 -0.7995 -1.1153
19596SOL     OW59365   7.223   9.716   8.941 -0.1831  0.8057 -0.3873
19596SOL    HW159366   7.196   9.718   8.849 -0.2686  2.8740 -0.3551
19596SOL    HW259367   7.226   9.808   8.967 -0.5818  0.2510  1.8151
19597SOL     OW59368   8.631   0.331   5.700 -0.0325  0.7272  0.1691
19597SOL    HW159369   8.566   0.263   5.720 -0.2324  1.2163  1.2462
19597SOL    HW259370   8.687   0.291   5.633 -0.5907 -0.2255  0.2472
19598SOL     OW59371   0.212   2.706   9.015  0.2591  0.0819 -0.4030
19598SOL    HW159372   0.289   2.746   9.054 -1.9294  2.4778  1.9020
19598SOL    HW259373   0.174   2.653   9.085 -0.4756 -0.6453 -1.3121
19599SOL     OW59374   6.328   1.656   1.608  0.0041 -0.3688 -0.0661
19599SOL    HW159375   6.384   1.723   1.647  0.0099 -0.5843  0.3016
19599SOL    HW259376   6.239   1.684   1.628 -0.0665  0.5101 -1.5301
19600SOL     OW59377   7.902   8.250   2.760 -0.0805 -0.4144 -0.0648
19600SOL    HW159378   7.809   8.253   2.783  0.0615 -2.4941  1.0221
19600SOL    HW259379   7.942   8.197   2.829  1.5215 -1.4203 -1.6763
19601SOL     OW59380   5.643   3.641   3.645  0.0746 -0.2670 -0.2206
19601SOL    HW159381   5.551   3.619   3.637 -0.1369  0.6656 -0.4696
19601SOL    HW259382   5.645   3.737   3.646  1.0827 -0.2668 -0.7901
19602SOL     OW59383   2.577   1.960   3.686  0.3433  0.4646  0.0926
19602SOL    HW159384   2.652   1.906   3.710  1.3628  1.4236 -0.8089
19602SOL    HW259385   2.591   1.981   3.593 -0.9346  0.8339 -0.0384
19603SOL     OW59386   3.972   6.261   1.346 -0.2099  0.5578 -0.3205
19603SOL    HW159387   3.919   6.189   1.380 -0.8089  1.1494  0.0347
19603SOL    HW259388   4.047   6.218   1.305 -1.0170 -0.3084 -0.9457
19604SOL     OW59389   3.438   0.003   3.814  0.2208  0.6076  0.4682
19604SOL    HW159390   3.416  -0.029   3.902  0.3991  1.1481  0.7161
19604SOL    HW259391   3.472   0.092   3.829  0.6358  0.5476 -0.1090
19605SOL     OW59392   8.478   5.779   8.867 -0.4748 -0.3245 -0.4065
19605SOL    HW159393   8.411   5.727   8.824  0.3419  0.1698 -2.4139
19605SOL    HW259394   8.559   5.757   8.821  0.5381 -0.0276  1.1607
19606SOL     OW59395   7.222   1.924   9.843  0.3167  0.2453 -0.0897
19606SOL    HW159396   7.266   1.985   9.902 -2.1106  2.3319 -0.2768
19606SOL    HW259397   7.204   1.975   9.765 -2.5895 -0.3598  0.0771
19607SOL     OW59398   7.584   5.611   2.035 -0.3996  0.1112 -0.7214
19607SOL    HW159399   7.663   5.618   1.981 -0.3700  0.5456 -0.6238
19607SOL    HW259400   7.616   5.607   2.125 -0.4834  0.1631 -0.6886
19608SOL     OW59401   1.634   8.471   3.746  0.0718  0.2803 -0.3010
19608SOL    HW159402   1.642   8.403   3.680 -1.4702 -0.9805  0.7278
19608SOL    HW259403   1.627   8.424   3.829  0.2976  1.7445  0.5873
19609SOL     OW59404   5.928   4.369   7.194  0.2718  0.3482  0.6341
19609SOL    HW159405   5.950   4.300   7.257  0.0433 -1.3297 -1.0356
19609SOL    HW259406   5.920   4.448   7.247  1.5174 -0.7003  2.5008
19610SOL     OW59407   3.458   2.406   2.822  0.1682  0.5222 -0.7056
19610SOL    HW159408   3.510   2.418   2.743 -1.7725  2.7017 -1.7829
19610SOL    HW259409   3.490   2.474   2.882  0.5214 -0.0493 -0.2370
19611SOL     OW59410   9.843   6.925   4.621  0.7640 -0.2442 -0.2086
19611SOL    HW159411   9.763   6.967   4.591  0.6034 -0.6035 -0.2765
19611SOL    HW259412   9.817   6.875   4.698  0.3460 -2.5551 -1.7520
19612SOL     OW59413   5.798   4.126   4.028 -0.6024 -0.2245 -0.2853
19612SOL    HW159414   5.788   4.166   3.941  0.5946 -0.1457 -0.4020
19612SOL    HW259415   5.840   4.041   4.010  0.0308 -0.0268  0.2455
19613SOL     OW59416   7.424   2.551   7.500 -0.5162 -0.5512 -0.2295
19613SOL    HW159417   7.463   2.583   7.419  0.2452 -0.4134  0.1836
19613SOL    HW259418   7.444   2.619   7.565 -1.1507 -0.6422  0.0724
19614SOL     OW59419   7.482   0.511   4.779  0.9287  0.8362  0.0568
19614SOL    HW159420   7.460   0.589   4.831 -1.0468  0.7962 -0.6366
19614SOL    HW259421   7.511   0.447   4.844  1.7235  1.8460  0.7341
19615SOL     OW59422   7.966   0.950   2.198 -0.1666  0.1059 -0.1243
19615SOL    HW159423   7.893   0.964   2.138  0.2143 -0.4918 -0.7410
19615SOL    HW259424   7.949   1.010   2.270 -0.8224  0.5803 -0.6558
19616SOL     OW59425   8.929   1.512   3.765  0.0306  0.2279 -0.3068
19616SOL    HW159426   8.936   1.541   3.674  0.7472 -2.0492 -1.0687
19616SOL    HW259427   8.914   1.417   3.758 -1.2549  0.1985  1.9439
19617SOL     OW59428   8.248   6.920   2.304  0.1709  0.5548 -0.3016
19617SOL    HW159429   8.178   6.933   2.367  1.1104 -1.1031  1.1771
19617SOL    HW259430   8.323   6.892   2.356  0.9769 -1.0008 -2.1480
19618SOL     OW59431   5.758   8.605   7.131 -0.2371 -0.2852 -0.1005
19618SOL    HW159432   5.794   8.593   7.220  0.4131 -0.3060 -0.3602
19618SOL    HW259433   5.666   8.579   7.139 -0.4485  0.6549  0.7953
19619SOL     OW59434   8.834   3.630   7.229 -0.3918  0.7072  0.2567
19619SOL    HW159435   8.866   3.606   7.142 -0.3900  1.9756 -0.1121
19619SOL    HW259436   8.911   3.665   7.274 -0.3077 -0.2772  0.9176
19620SOL     OW59437   8.710   4.782   3.176 -0.4629 -0.0488 -0.0929
19620SOL    HW159438   8.657   4.849   3.219 -1.7550 -1.2138  0.2184
19620SOL    HW259439   8.684   4.786   3.084  0.4185  0.7186 -0.3265
19621SOL     OW59440   8.098   4.503   5.575  0.6337  0.1140  0.1627
19621SOL    HW159441   8.121   4.412   5.557 -0.5754 -0.3348  0.7774
19621SOL    HW259442   8.034   4.526   5.508  2.4021  1.1942 -1.2381
19622SOL     OW59443   2.508   3.262   3.143 -0.0568 -0.5187  0.1326
19622SOL    HW159444   2.468   3.346   3.167  1.5409  0.2190  0.2878
19622SOL    HW259445   2.434   3.201   3.141 -1.3380  0.9895 -0.5546
19623SOL     OW59446   5.688   5.492   8.478  0.4630  0.3924  0.4119
19623SOL    HW159447   5.638   5.413   8.458 -0.7233  1.0863  0.4970
19623SOL    HW259448   5.763   5.461   8.529 -0.2824 -0.6192  0.9370
19624SOL     OW59449   0.515   4.754   3.221 -0.2627 -0.2370  0.1455
19624SOL    HW159450   0.487   4.845   3.234  2.2920  0.9888 -1.8902
19624SOL    HW259451   0.471   4.726   3.142  0.5189  0.0128 -0.3943
19625SOL     OW59452   8.390   4.603   2.475 -0.3191  0.5518 -0.1570
19625SOL    HW159453   8.339   4.522   2.482  1.2902 -0.5074  0.1106
19625SOL    HW259454   8.353   4.648   2.399 -0.4921 -1.0523 -1.0872
19626SOL     OW59455   1.554   8.259   3.941  0.4509 -0.2362 -0.4188
19626SOL    HW159456   1.514   8.203   4.008  1.2535 -0.2707  0.0459
19626SOL    HW259457   1.570   8.342   3.985  1.6080 -0.4769 -0.3568
19627SOL     OW59458   3.877   7.934   0.893 -0.6420 -0.2189  0.1871
19627SOL    HW159459   3.950   7.892   0.848 -0.3623  0.6717 -0.2298
19627SOL    HW259460   3.809   7.942   0.825 -0.3244  0.8764 -0.0162
19628SOL     OW59461   0.382   4.481   7.257 -0.1055  0.1190 -0.7265
19628SOL    HW159462   0.438   4.512   7.187 -0.6646  1.2669 -0.6973
19628SOL    HW259463   0.298   4.464   7.215  0.4255 -2.3647 -0.9261
19629SOL     OW59464   6.799   1.936   8.897 -0.0538  0.0569 -0.3646
19629SOL    HW159465   6.884   1.943   8.854 -0.0208  0.1974 -0.2738
19629SOL    HW259466   6.736   1.949   8.826  0.0009  1.0789 -0.2378
19630SOL     OW59467   6.922   7.107   7.108 -0.1029  0.2860  0.0579
19630SOL    HW159468   7.008   7.087   7.144  0.8619 -1.8377 -2.9885
19630SOL    HW259469   6.940   7.161   7.031 -1.4055 -0.3764 -0.7594
19631SOL     OW59470   1.541   9.750   3.838  0.0422  0.1731  0.0499
19631SOL    HW159471   1.527   9.809   3.764 -2.0920 -0.1903  0.0996
19631SOL    HW259472   1.471   9.771   3.899  0.0034 -1.5248  0.6396
19632SOL     OW59473   5.208   2.484   4.439 -0.2663 -0.5740 -0.6699
19632SOL    HW159474   5.286   2.473   4.493 -0.0340  0.6596 -0.7230
19632SOL    HW259475   5.171   2.568   4.468  0.9908  1.1946 -3.7699
19633SOL     OW59476   8.682   6.975   0.431 -0.1319  0.0493  0.4459
19633SOL    HW159477   8.661   7.037   0.500 -0.5278  0.7084 -0.2574
19633SOL    HW259478   8.719   7.028   0.361 -1.5718 -0.3159 -0.6385
19634SOL     OW59479   7.514   5.634   6.904 -0.1553  0.4007 -0.2777
19634SOL    HW159480   7.548   5.569   6.842  2.7217  2.0250 -0.5805
19634SOL    HW259481   7.433   5.596   6.936 -0.8940 -1.3099 -3.7151
19635SOL     OW59482   8.625   8.795   4.272  0.4577  0.2782 -0.7019
19635SOL    HW159483   8.579   8.782   4.355  0.0454  2.8280 -0.4320
19635SOL    HW259484   8.558   8.784   4.205  0.8059 -1.8558 -0.7454
19636SOL     OW59485   2.234   2.818   8.067 -0.1297  0.1877  0.1896
19636SOL    HW159486   2.234   2.776   7.980  0.3832  0.2483  0.1532
19636SOL    HW259487   2.298   2.889   8.059 -0.1107  0.2192  0.6052
19637SOL     OW59488   4.697   7.655   1.704 -0.4546  0.0197  0.0266
19637SOL    HW159489   4.790   7.634   1.702 -0.0764  1.5414  0.3027
19637SOL    HW259490   4.692   7.737   1.754 -1.9605 -0.1248  0.1606
19638SOL     OW59491   8.620   9.970   8.906  0.5538 -0.8702 -0.2076
19638SOL    HW159492   8.561   9.908   8.863 -0.0110 -1.1458  0.9300
19638SOL    HW259493   8.700   9.920   8.923 -0.3129 -1.7061  1.7680
19639SOL     OW59494   0.053   8.887   6.956  0.0642 -0.1309  0.4421
19639SOL    HW159495   0.125   8.871   6.895  0.5311  0.2682  0.8753
19639SOL    HW259496   0.027   8.801   6.987 -0.2405 -0.3430 -0.3898
19640SOL     OW59497   5.029   4.233   7.887 -0.5114  0.1616  0.0468
19640SOL    HW159498   4.934   4.236   7.883 -0.5476  1.7645  1.2681
19640SOL    HW259499   5.051   4.263   7.975  1.1354  0.1759 -0.3301
19641SOL     OW59500   6.517   2.913   7.368 -0.4560 -0.2977 -0.7151
19641SOL    HW159501   6.442   2.901   7.309  0.0397  0.7856 -1.6029
19641SOL    HW259502   6.550   3.000   7.346  0.5355 -0.4126  0.2812
19642SOL     OW59503   5.872   9.820   0.078  0.3448 -0.1701  0.3237
19642SOL    HW159504   5.825   9.786   0.001  1.7627 -0.6837 -0.3498
19642SOL    HW259505   5.897   9.909   0.052 -0.0956  0.0459  0.6223
19643SOL     OW59506   1.818   3.910   7.599  0.1635 -0.2498 -0.2330
19643SOL    HW159507   1.768   3.854   7.657 -0.7026 -1.3764 -1.9645
19643SOL    HW259508   1.905   3.868   7.595 -0.1008 -0.7807 -0.5558
19644SOL     OW59509   5.685   9.099   6.129 -0.4418  0.9880  0.2076
19644SOL    HW159510   5.708   9.067   6.042  1.4240 -0.9845  1.3396
19644SOL    HW259511   5.596   9.065   6.144 -0.3272  0.3551 -0.4796
19645SOL     OW59512   4.795   7.302   4.838 -0.1875  0.0795 -0.1881
19645SOL    HW159513   4.832   7.340   4.918 -0.2922 -0.6731  0.2341
19645SOL    HW259514   4.736   7.234   4.870  1.4774 -1.8031 -0.9236
19646SOL     OW59515   6.006   7.643   5.957 -0.5244 -0.0669  0.0368
19646SOL    HW159516   5.931   7.656   6.014  0.0859  0.9605  0.6448
19646SOL    HW259517   6.017   7.726   5.912  1.0344  0.2994  0.9711
19647SOL     OW59518   4.175   5.655   6.607 -0.1231  0.5982  0.7853
19647SOL    HW159519   4.174   5.560   6.623  0.9293  0.7121  1.6196
19647SOL    HW259520   4.248   5.687   6.659 -0.0341  1.7837 -0.0398
19648SOL     OW59521   0.658   0.750   6.271  0.0621  0.3018 -0.3911
19648SOL    HW159522   0.642   0.655   6.275  0.5859  0.2583  0.9333
19648SOL    HW259523   0.577   0.786   6.235 -0.4903 -0.5631 -0.0423
19649SOL     OW59524   7.440   2.141   2.209 -0.8676  0.1666  0.1999
19649SOL    HW159525   7.436   2.121   2.115  0.4172 -0.0469  0.1718
19649SOL    HW259526   7.452   2.236   2.212 -0.1883  0.0874  0.1176
19650SOL     OW59527   0.745   4.747   5.120 -0.4099  0.1370  0.0928
19650SOL    HW159528   0.775   4.806   5.189 -0.2995 -0.1788  0.3181
19650SOL    HW259529   0.661   4.713   5.152  0.3054 -1.1001  0.7321
19651SOL     OW59530   2.916   3.266   5.955  0.3245  1.0402 -0.0093
19651SOL    HW159531   2.933   3.205   5.883  0.1812  1.5239 -0.4639
19651SOL    HW259532   2.941   3.218   6.034 -2.2143 -0.6003 -0.0896
19652SOL     OW59533   5.153   6.798   1.092  0.7026 -0.1811 -0.6925
19652SOL    HW159534   5.107   6.715   1.085 -0.3930  0.3997 -0.6180
19652SOL    HW259535   5.083   6.864   1.089  1.5760  0.7436 -1.0914
19653SOL     OW59536   2.079   3.949   2.538  0.0249 -0.3689 -0.1342
19653SOL    HW159537   2.063   4.025   2.594 -0.8111 -1.0034  0.5166
19653SOL    HW259538   1.996   3.901   2.538  1.3891 -3.0063  2.1267
19654SOL     OW59539   0.479   4.590   5.484 -0.3035  0.6340  0.0704
19654SOL    HW159540   0.538   4.650   5.529 -1.4796  1.1940  0.9069
19654SOL    HW259541   0.482   4.510   5.538 -2.2318  1.5320  1.6179
19655SOL     OW59542   2.277   7.185   5.230  0.4992  0.1922 -0.3061
19655SOL    HW159543   2.234   7.177   5.315  0.3078  0.0780 -0.4131
19655SOL    HW259544   2.249   7.271   5.198  0.1481  0.0119 -0.4870
19656SOL     OW59545   7.591   1.253   7.033  0.2309 -0.7254 -0.0179
19656SOL    HW159546   7.611   1.346   7.037  0.1001 -0.7097  0.2456
19656SOL    HW259547   7.666   1.210   7.074  0.9792 -0.8329 -1.4036
19657SOL     OW59548   4.677   6.427   7.778 -0.0940 -0.3352 -0.0576
19657SOL    HW159549   4.646   6.386   7.697 -0.2291 -1.3108  0.4735
19657SOL    HW259550   4.659   6.362   7.846  2.6499 -0.7693  0.3555
19658SOL     OW59551   8.368   8.514   8.249 -0.3404 -0.0532  0.0588
19658SOL    HW159552   8.326   8.543   8.330 -1.1595 -0.1766 -0.3102
19658SOL    HW259553   8.461   8.533   8.262 -0.4895  0.1278  0.9399
19659SOL     OW59554   0.470   1.987   4.628 -0.7635 -0.4043 -0.5548
19659SOL    HW159555   0.423   2.012   4.707 -0.8783  0.3396 -0.8523
19659SOL    HW259556   0.460   2.062   4.569 -1.8303 -1.4733 -1.7997
19660SOL     OW59557   1.667   8.720   2.639  0.1092 -0.6675  0.3056
19660SOL    HW159558   1.741   8.700   2.697  1.3289  1.1983 -0.5202
19660SOL    HW259559   1.665   8.647   2.577  2.0388 -0.2364 -0.3614
19661SOL     OW59560   1.952   2.104   9.438 -0.0703  0.3765  0.0483
19661SOL    HW159561   1.856   2.110   9.441 -0.3570 -2.1379 -1.2783
19661SOL    HW259562   1.971   2.056   9.357  2.0539 -2.1919  1.8739
19662SOL     OW59563   0.676   3.317   2.145 -0.5371  0.3197 -0.1956
19662SOL    HW159564   0.705   3.242   2.197 -0.1718  1.3552  1.1464
19662SOL    HW259565   0.736   3.388   2.170 -0.5261  0.9330 -1.8412
19663SOL     OW59566   1.703   7.195   5.883 -0.7928  0.7769  0.1598
19663SOL    HW159567   1.666   7.283   5.895  0.1863  1.1908  0.1785
19663SOL    HW259568   1.791   7.201   5.919  0.1858  0.4713 -2.0294
19664SOL     OW59569   3.499   2.433   3.651  0.3542  0.0360  0.0244
19664SOL    HW159570   3.427   2.375   3.628  0.0362  0.6688 -0.6118
19664SOL    HW259571   3.470   2.477   3.731  0.5292 -0.5496  0.4178
19665SOL     OW59572   6.557   4.266   0.192 -0.4634 -0.0759 -0.1456
19665SOL    HW159573   6.488   4.282   0.127  0.5973  0.7067 -1.1157
19665SOL    HW259574   6.623   4.333   0.173 -0.6564  0.9980  2.5379
19666SOL     OW59575   8.860   2.111   0.733  0.1699 -0.7750  0.2166
19666SOL    HW159576   8.785   2.167   0.751  0.7461  1.0770 -2.6040
19666SOL    HW259577   8.823   2.032   0.693 -0.3865 -0.8649  0.8917
19667SOL     OW59578   9.222   3.852   1.647 -0.3069 -0.0147 -0.3920
19667SOL    HW159579   9.314   3.877   1.643 -0.0781 -0.9858 -1.3312
19667SOL    HW259580   9.177   3.917   1.593 -0.3091  0.9655  0.7437
19668SOL     OW59581   6.589   6.326   1.691 -0.0003  0.0015  0.5160
19668SOL    HW159582   6.650   6.252   1.683 -1.9270 -1.6091  0.0280
19668SOL    HW259583   6.574   6.354   1.601 -0.2559  0.1673  0.6089
19669SOL     OW59584   2.782   7.257   3.132  0.6067 -0.1702 -0.0619
19669SOL    HW159585   2.766   7.164   3.115  0.4573  0.0912 -1.4914
19669SOL    HW259586   2.801   7.294   3.045  1.2201  1.0259  0.5625
19670SOL     OW59587   7.816   5.841   2.365 -0.0762  0.2469 -0.5541
19670SOL    HW159588   7.787   5.914   2.309 -3.1089 -0.6419 -0.3200
19670SOL    HW259589   7.868   5.786   2.307  2.7559  2.7195 -0.6118
19671SOL     OW59590   4.057   7.188   3.083  0.4025  0.3311 -0.2857
19671SOL    HW159591   4.134   7.156   3.131  0.0439 -0.2641 -0.0941
19671SOL    HW259592   4.045   7.124   3.013 -0.1669  0.1858 -0.0581
19672SOL     OW59593   6.851   1.065   6.284  0.4104  0.5122 -0.3690
19672SOL    HW159594   6.764   1.060   6.323  0.8539  0.4838  0.6451
19672SOL    HW259595   6.835   1.082   6.191 -0.6739  0.3725 -0.2180
19673SOL     OW59596   2.477   1.242   2.496 -0.2403 -0.0095  0.0784
19673SOL    HW159597   2.570   1.243   2.477 -0.3288 -0.0605 -0.3577
19673SOL    HW259598   2.448   1.155   2.468 -0.2022 -0.4260  1.2640
19674SOL     OW59599   8.883   2.737   9.402  0.4648 -0.1701 -0.5952
19674SOL    HW159600   8.841   2.658   9.437 -1.4629  0.0808 -2.1529
19674SOL    HW259601   8.911   2.785   9.480 -3.6271  0.3785  0.8089
19675SOL     OW59602   8.353   1.524   5.872 -0.9958 -0.7776  0.4994
19675SOL    HW159603   8.377   1.609   5.833 -2.5811 -0.5973 -0.1678
19675SOL    HW259604   8.352   1.541   5.966 -0.3602 -0.3160  0.4317
19676SOL     OW59605   4.010   6.459   6.731 -0.2631  0.6664  0.0883
19676SOL    HW159606   3.963   6.512   6.667 -1.2213  0.0550  0.2625
19676SOL    HW259607   3.941   6.424   6.788  0.3822 -0.3753  0.2565
19677SOL     OW59608   1.169   2.175   5.340 -0.4504 -0.7017 -0.3437
19677SOL    HW159609   1.133   2.198   5.425 -1.9750 -0.4480 -1.0288
19677SOL    HW259610   1.223   2.250   5.316 -1.6749  0.1576 -0.4997
19678SOL     OW59611   4.778   4.195   9.200  0.0181 -0.1238 -0.1745
19678SOL    HW159612   4.807   4.184   9.109 -0.1166 -0.7756 -0.1411
19678SOL    HW259613   4.858   4.185   9.252 -0.1032 -1.0090 -0.1437
19679SOL     OW59614   2.112   6.758   3.148 -0.5284 -0.5127  0.0860
19679SOL    HW159615   2.154   6.841   3.127 -0.2571 -0.9017 -0.9696
19679SOL    HW259616   2.038   6.751   3.087  0.1967 -1.6142 -0.7004
19680SOL     OW59617   6.324   3.266   5.665  0.4775 -0.2385 -0.0330
19680SOL    HW159618   6.345   3.224   5.748  0.8815 -2.7694 -1.3192
19680SOL    HW259619   6.329   3.195   5.600  0.2139  1.6333 -2.2265
19681SOL     OW59620   8.644   6.006   6.261  0.1293  0.9248  0.2067
19681SOL    HW159621   8.608   5.945   6.196  1.0794  0.1369  0.3880
19681SOL    HW259622   8.648   6.090   6.217  1.2808  0.2876 -0.9775
19682SOL     OW59623   3.651   7.029   8.694 -0.4604 -0.1103  0.2800
19682SOL    HW159624   3.698   6.949   8.717 -0.6941  0.1628  1.7671
19682SOL    HW259625   3.640   7.023   8.599  2.4886 -0.2344 -0.1462
19683SOL     OW59626   2.872   8.465   0.377  0.1796 -0.1625 -0.5429
19683SOL    HW159627   2.789   8.428   0.406  0.1406 -0.4384 -0.9870
19683SOL    HW259628   2.901   8.520   0.449 -0.9189  0.7963 -0.8127
19684SOL     OW59629   1.777   3.961   9.216  0.9928  0.5361  0.2872
19684SOL    HW159630   1.754   3.870   9.235  0.3126  0.3893 -1.1146
19684SOL    HW259631   1.846   3.956   9.150 -1.4377  0.9310 -2.5377
19685SOL     OW59632   1.585   7.729   0.803 -0.4574  0.4276  0.0057
19685SOL    HW159633   1.678   7.742   0.825 -0.1794  1.2141 -1.4881
19685SOL    HW259634   1.572   7.635   0.808  0.0881  0.3996  1.4566
19686SOL     OW59635   5.816   2.042   6.097  0.2365 -0.2671  0.2617
19686SOL    HW159636   5.835   2.024   6.189 -1.0662 -1.2676  0.3562
19686SOL    HW259637   5.851   1.966   6.050  0.6689  0.1194 -0.0509
19687SOL     OW59638   5.620   2.600   1.401 -0.1316 -0.1110 -0.0901
19687SOL    HW159639   5.688   2.563   1.345  1.2717  3.1679 -0.8210
19687SOL    HW259640   5.549   2.536   1.399  0.4808 -0.9440 -4.3171
19688SOL     OW59641   2.904   9.544   5.848  0.0283  0.1784 -0.3606
19688SOL    HW159642   2.916   9.639   5.849  1.4147  0.0628  2.0809
19688SOL    HW259643   2.844   9.527   5.920 -2.0577 -0.6860 -2.1905
19689SOL     OW59644   6.562   1.304   6.214  0.5481  0.3703  0.1202
19689SOL    HW159645   6.614   1.261   6.282 -0.5075 -1.2000 -0.0237
19689SOL    HW259646   6.623   1.314   6.140  0.7778 -1.1255  0.0758
19690SOL     OW59647   8.869   3.955   7.404  0.6498  0.3484  0.0398
19690SOL    HW159648   8.877   3.927   7.495  2.1537  0.5538 -0.0161
19690SOL    HW259649   8.924   3.893   7.355 -0.1029  0.2688 -0.7377
19691SOL     OW59650   6.855   4.934   0.082 -0.1983 -0.4900  0.0786
19691SOL    HW159651   6.845   4.935   0.178  0.0032 -1.4452  0.1213
19691SOL    HW259652   6.935   4.884   0.067 -1.0815 -1.7693 -0.6328
19692SOL     OW59653   8.156   0.793   2.743  0.3735  0.1186  0.0101
19692SOL    HW159654   8.136   0.784   2.837 -0.5992 -2.0286 -0.3502
19692SOL    HW259655   8.240   0.748   2.733  1.1151  1.4495  0.0233
19693SOL     OW59656   4.652   6.524   9.377  0.6608  0.4543 -0.5497
19693SOL    HW159657   4.732   6.568   9.407  1.3905 -1.4551  0.4915
19693SOL    HW259658   4.583   6.560   9.433  1.3098  0.0232  0.5721
19694SOL     OW59659   1.505   3.867   7.748  0.5232  0.0890  0.2997
19694SOL    HW159660   1.570   3.801   7.775  1.1528  0.3916 -0.4393
19694SOL    HW259661   1.503   3.929   7.821  1.1261  0.1210  0.2957
19695SOL     OW59662   3.677   8.873   0.119  0.3107 -0.2848  0.0472
19695SOL    HW159663   3.733   8.940   0.079  1.9182 -0.9985  1.0349
19695SOL    HW259664   3.593   8.918   0.131  0.1826  0.3932 -2.7197
19696SOL     OW59665   0.022   1.744   2.109 -0.1933  0.4020 -0.1554
19696SOL    HW159666   0.074   1.822   2.089 -1.0220  0.9585 -0.1631
19696SOL    HW259667  -0.030   1.769   2.186  2.3976 -1.4306  2.4444
19697SOL     OW59668   7.831   6.228   2.217  0.3223 -0.2052  0.0174
19697SOL    HW159669   7.812   6.298   2.155 -0.4857  0.1953  0.6935
19697SOL    HW259670   7.926   6.228   2.225  0.4641 -0.4574 -1.4250
19698SOL     OW59671   3.328   0.564   9.722 -0.1962  0.5640  0.0732
19698SOL    HW159672   3.247   0.522   9.692  0.3866  0.8806 -2.0792
19698SOL    HW259673   3.328   0.549   9.817 -2.4896  0.0895  0.0732
19699SOL     OW59674   2.723   0.802   7.080 -0.2173 -0.0477 -0.2189
19699SOL    HW159675   2.752   0.786   6.990 -0.8027  0.0253 -0.4267
19699SOL    HW259676   2.803   0.801   7.132  0.5203  2.6553 -1.1135
19700SOL     OW59677   7.914   4.058   2.074 -0.3352 -0.1656 -0.2761
19700SOL    HW159678   7.947   4.126   2.132 -1.0208 -0.2560  0.2294
19700SOL    HW259679   7.992   4.026   2.029  0.2485 -0.2529  0.7590
19701SOL     OW59680   7.233   1.565   3.651  0.1169 -0.1179 -0.3580
19701SOL    HW159681   7.285   1.606   3.720 -1.1531  1.0080 -0.0094
19701SOL    HW259682   7.162   1.628   3.635 -1.6137 -1.9252 -0.1991
19702SOL     OW59683   3.835   2.853   6.144 -0.2527  0.4465 -0.3208
19702SOL    HW159684   3.825   2.846   6.239 -1.3030 -0.3705 -0.4701
19702SOL    HW259685   3.904   2.790   6.122 -1.3265 -0.7744 -0.2942
19703SOL     OW59686   7.263   2.082   7.876  0.2794 -0.3017 -0.1729
19703SOL    HW159687   7.175   2.045   7.882  0.7270 -1.1799  1.5554
19703SOL    HW259688   7.248   2.176   7.867 -0.8362 -0.5903 -1.7335
19704SOL     OW59689   4.440   7.839   6.962 -0.3331  0.1464 -0.5114
19704SOL    HW159690   4.470   7.842   6.871  1.2552  0.3846 -0.0091
19704SOL    HW259691   4.416   7.929   6.983  1.1280  0.4736 -0.1393
19705SOL     OW59692   6.802   9.740   9.315  0.1631  0.3378 -0.1879
19705SOL    HW159693   6.712   9.714   9.331  0.3235 -0.1357 -0.0387
19705SOL    HW259694   6.818   9.716   9.224  0.2133  0.1917 -0.1415
19706SOL     OW59695   1.513   3.982   3.239 -0.5033 -0.1185  0.2921
19706SOL    HW159696   1.461   4.054   3.276 -0.8127 -0.6487  0.9058
19706SOL    HW259697   1.460   3.904   3.254  1.0316 -0.8897  2.2064
19707SOL     OW59698   6.815   6.129   5.267  0.5538 -0.4258  0.2239
19707SOL    HW159699   6.781   6.100   5.182 -2.5881 -1.9231  1.7991
19707SOL    HW259700   6.822   6.224   5.259  1.7155 -0.6455 -2.1011
19708SOL     OW59701   5.599   3.388   1.256 -0.0226  0.0733 -0.0286
19708SOL    HW159702   5.643   3.310   1.221 -0.2184  0.0667 -0.2677
19708SOL    HW259703   5.506   3.370   1.244 -0.0443  0.7992 -1.0981
19709SOL     OW59704   5.105   8.191   8.199  0.3226  0.2828 -0.3190
19709SOL    HW159705   5.167   8.221   8.266  0.5979 -1.9863  0.5397
19709SOL    HW259706   5.053   8.124   8.244 -0.7863  0.0886 -1.8537
19710SOL     OW59707   0.952   2.626   0.693 -0.1259 -0.1453  0.2822
19710SOL    HW159708   0.869   2.671   0.680  0.8711  1.4070 -1.2245
19710SOL    HW259709   0.975   2.645   0.784 -0.9492  0.2584  0.4198
19711SOL     OW59710   7.044   0.846   0.480  0.4467 -0.0096 -0.0325
19711SOL    HW159711   7.095   0.766   0.468 -1.3162 -0.8555 -2.6424
19711SOL    HW259712   7.110   0.916   0.487  1.9822 -1.4890  1.1112
19712SOL     OW59713   0.705   1.612   7.366  0.6984  0.0513  0.4185
19712SOL    HW159714   0.715   1.622   7.271  0.2633  2.2541  0.5475
19712SOL    HW259715   0.660   1.528   7.376  0.1436  0.0750 -1.3714
19713SOL     OW59716   8.849   4.617   4.562  0.5035 -0.2106 -0.2753
19713SOL    HW159717   8.823   4.613   4.654 -0.2703  3.6357 -0.1945
19713SOL    HW259718   8.768   4.635   4.514  1.4491  1.9109 -1.1908
19714SOL     OW59719   6.048   5.566   2.517  0.6192 -0.1879  0.4174
19714SOL    HW159720   6.098   5.492   2.484 -0.4609 -0.7673  0.0186
19714SOL    HW259721   6.107   5.641   2.508  2.2580 -1.1890  2.1623
19715SOL     OW59722   2.551   1.559   3.704 -0.3301  0.0517  0.5978
19715SOL    HW159723   2.507   1.474   3.703  1.8312 -1.1393  0.8738
19715SOL    HW259724   2.571   1.577   3.612 -0.0832 -0.1279  0.6163
19716SOL     OW59725   7.963   2.298   2.621 -0.4320  0.1155 -0.5711
19716SOL    HW159726   7.978   2.295   2.526  0.9836  2.3736 -0.5070
19716SOL    HW259727   7.907   2.375   2.634  1.2278  1.2275  0.5186
19717SOL     OW59728   9.182   6.826   3.031 -0.1240 -0.1192 -0.2367
19717SOL    HW159729   9.190   6.915   3.067  2.5986 -0.5587  0.5082
19717SOL    HW259730   9.149   6.774   3.104 -2.1670  0.3027 -0.8086
19718SOL     OW59731   5.664   3.405   0.487 -0.1835 -0.4823  0.0495
19718SOL    HW159732   5.606   3.479   0.469 -0.7675 -1.0713 -0.5586
19718SOL    HW259733   5.752   3.443   0.487 -0.6068  0.6377  2.1206
19719SOL     OW59734   8.535   8.036   3.181  0.4073 -0.5975  0.0740
19719SOL    HW159735   8.509   8.022   3.090 -0.2650 -0.4279  0.2320
19719SOL    HW259736   8.602   8.105   3.177  0.9294 -1.1212 -0.3514
19720SOL     OW59737   0.268   1.029   8.084 -0.1824 -0.3254 -0.4330
19720SOL    HW159738   0.275   1.093   8.155 -0.7360 -0.1177 -0.5608
19720SOL    HW259739   0.315   0.952   8.116  2.4612  0.8914 -1.1688
19721SOL     OW59740   1.978   8.452   8.980 -0.5496  0.0947 -0.1883
19721SOL    HW159741   1.903   8.511   8.993 -1.6029 -1.1360 -0.5621
19721SOL    HW259742   1.990   8.448   8.885  0.6773  1.0825 -0.1094
19722SOL     OW59743   7.390   6.554   3.479 -0.7760  0.1256 -0.0403
19722SOL    HW159744   7.455   6.494   3.515  0.0999  0.4887 -0.9664
19722SOL    HW259745   7.306   6.520   3.510 -0.1841 -0.6186  0.7935
19723SOL     OW59746   9.261   6.632   9.663 -0.2352 -0.2615 -0.3854
19723SOL    HW159747   9.321   6.624   9.589  1.5050 -1.8835  1.0965
19723SOL    HW259748   9.316   6.662   9.735 -1.3281 -1.2255  0.9017
19724SOL     OW59749   1.839   4.266   3.087  0.4633  0.2593 -0.6991
19724SOL    HW159750   1.925   4.259   3.045  0.5522 -1.2328 -0.3229
19724SOL    HW259751   1.818   4.177   3.113 -0.9039  0.7152 -0.1675
19725SOL     OW59752   4.080   4.469   7.105  0.0962  0.4395 -0.3352
19725SOL    HW159753   4.051   4.387   7.065  0.1589  0.3781 -0.2547
19725SOL    HW259754   4.011   4.492   7.168 -0.9173  1.4934 -1.7705
19726SOL     OW59755   0.729   0.644   0.554  0.0188  0.2271  0.0377
19726SOL    HW159756   0.755   0.640   0.462  1.4762  0.6157  0.4116
19726SOL    HW259757   0.719   0.737   0.572  0.3900  0.1882  0.4453
19727SOL     OW59758   8.761   6.827   3.364 -0.3881  0.6294 -0.5079
19727SOL    HW159759   8.773   6.763   3.435 -0.6504  2.0057  0.8398
19727SOL    HW259760   8.789   6.781   3.285 -0.6240 -1.1567  0.4011
19728SOL     OW59761   7.236   2.137   6.398  0.6668 -0.4000 -0.1835
19728SOL    HW159762   7.250   2.086   6.318 -1.0456  1.2367 -1.6643
19728SOL    HW259763   7.177   2.084   6.451 -0.2214 -0.4991 -1.2124
19729SOL     OW59764   1.251   0.081   2.144  0.4546 -0.4895 -0.0160
19729SOL    HW159765   1.233   0.129   2.225 -1.6830  1.3905 -1.4689
19729SOL    HW259766   1.230  -0.010   2.164 -1.5522  0.1708  1.1602
19730SOL     OW59767   9.400   7.121   6.801 -0.0078 -0.0664 -0.1283
19730SOL    HW159768   9.363   7.035   6.822 -0.3841  0.0919 -0.1323
19730SOL    HW259769   9.338   7.158   6.738  0.9340 -0.4009 -1.2882
19731SOL     OW59770   2.075   3.956   7.343  0.0572 -0.5201 -0.8968
19731SOL    HW159771   2.068   3.871   7.386  1.2013  0.5272  1.5022
19731SOL    HW259772   2.169   3.974   7.338 -0.1853  1.0236 -0.4584
19732SOL     OW59773   4.874   7.573   1.360  0.4915  0.0234  0.4453
19732SOL    HW159774   4.926   7.527   1.294  0.8749 -0.4893  1.0906
19732SOL    HW259775   4.841   7.503   1.416 -0.8228  0.3526  0.1050
19733SOL     OW59776   9.260   2.720   3.883  0.0347 -0.1176 -0.5459
19733SOL    HW159777   9.191   2.738   3.818 -0.8163  2.0777  0.8735
19733SOL    HW259778   9.232   2.766   3.961  2.4895 -0.3002  0.5220
19734SOL     OW59779   9.984   8.467   5.529  0.0691 -0.7137 -0.5940
19734SOL    HW159780   9.915   8.529   5.504 -2.2346 -2.6919  0.3763
19734SOL    HW259781   9.988   8.473   5.624  1.4719 -0.4600 -0.6510
19735SOL     OW59782   9.756   4.007   5.929 -0.2236 -0.1582 -0.5629
19735SOL    HW159783   9.822   3.952   5.887 -0.0902 -2.1541  1.9642
19735SOL    HW259784   9.675   3.957   5.921 -0.7661  0.7338 -0.8106
19736SOL     OW59785   2.889   8.911   5.411 -0.2406 -0.2819 -0.5666
19736SOL    HW159786   2.882   8.966   5.333  2.1372  0.9685 -0.0108
19736SOL    HW259787   2.975   8.934   5.448 -0.6218 -1.9852  1.5436
19737SOL     OW59788   3.953   1.811   7.921 -0.3431  0.3803 -0.6682
19737SOL    HW159789   3.914   1.871   7.984 -0.9417 -1.8371  1.2369
19737SOL    HW259790   4.043   1.841   7.911 -0.2913  0.9399  1.1184
19738SOL     OW59791   7.548   7.879   1.242  0.5973 -0.1080  0.4215
19738SOL    HW159792   7.555   7.960   1.292 -0.1522  0.1075  0.1931
19738SOL    HW259793   7.600   7.894   1.163  1.3244 -0.2472  0.8622
19739SOL     OW59794   9.304   0.450   4.429  0.3779 -0.6102 -0.3782
19739SOL    HW159795   9.355   0.531   4.422  1.1969 -0.7059  2.8724
19739SOL    HW259796   9.213   0.479   4.432  0.4296 -0.1224 -2.2446
19740SOL     OW59797   9.385   2.844   8.015 -1.0388  0.1446  0.1221
19740SOL    HW159798   9.450   2.823   8.082 -0.5284 -0.7486 -0.6352
19740SOL    HW259799   9.352   2.930   8.040 -0.6669 -0.0556  1.3661
19741SOL     OW59800   1.837   1.054   7.826 -0.3719  0.0509 -0.7758
19741SOL    HW159801   1.874   0.996   7.893  0.2779 -1.3077 -2.2560
19741SOL    HW259802   1.822   1.137   7.872  0.9607 -0.5300  0.8089
19742SOL     OW59803   8.689   6.887   2.570 -0.6798 -0.4275 -0.6451
19742SOL    HW159804   8.737   6.956   2.522 -1.9135  0.3960 -0.7420
19742SOL    HW259805   8.757   6.838   2.615  0.2509  0.8616 -0.5855
19743SOL     OW59806   4.989   5.797   6.654  0.1593  0.0653  0.4209
19743SOL    HW159807   4.918   5.854   6.624 -1.2389 -1.7072  0.1979
19743SOL    HW259808   5.044   5.853   6.709 -1.0048  1.6668  0.0008
19744SOL     OW59809   5.616   5.720   2.778 -0.3943 -0.2588  0.5378
19744SOL    HW159810   5.682   5.697   2.712  0.6510  2.1254  0.6383
19744SOL    HW259811   5.641   5.669   2.855 -0.0518 -1.1096 -0.1150
19745SOL     OW59812   0.830   2.583   8.605 -0.5106 -0.2691  0.2053
19745SOL    HW159813   0.905   2.538   8.565 -0.7501 -1.2581  0.8369
19745SOL    HW259814   0.755   2.529   8.582 -1.1836  1.1385 -1.1073
19746SOL     OW59815   0.230   5.299   0.073 -0.4445 -0.0476 -0.6722
19746SOL    HW159816   0.303   5.293   0.136 -1.4985 -0.0805  0.5798
19746SOL    HW259817   0.249   5.230   0.009  0.9742  0.3836 -0.7482
19747SOL     OW59818   0.980   0.165   2.488  0.1679  0.2694 -0.9827
19747SOL    HW159819   0.908   0.223   2.512  0.2945  0.0423 -0.0344
19747SOL    HW259820   0.944   0.077   2.495  0.6214  0.1353 -0.1506
19748SOL     OW59821   7.351   4.853   2.424  0.6997  0.3619 -0.1997
19748SOL    HW159822   7.396   4.802   2.491  0.4613  1.3476  0.7325
19748SOL    HW259823   7.330   4.789   2.355  0.4910 -0.7768  0.8877
19749SOL     OW59824   2.164   8.459   1.796 -0.3971  0.1000  0.5225
19749SOL    HW159825   2.074   8.428   1.785 -0.3102 -0.0785  0.2867
19749SOL    HW259826   2.193   8.420   1.878  0.0663 -1.3441 -0.2908
19750SOL     OW59827   2.193   7.325   3.852 -0.2991 -0.3907 -0.6368
19750SOL    HW159828   2.220   7.417   3.856  0.0188 -0.5050 -0.0574
19750SOL    HW259829   2.275   7.276   3.847 -0.4304 -0.6954  0.1727
19751SOL     OW59830   1.498   2.155   1.721  0.2902 -0.1371 -0.4185
19751SOL    HW159831   1.578   2.113   1.688  1.5136  2.6313 -1.1969
19751SOL    HW259832   1.504   2.146   1.816  1.5665  0.0546 -0.4620
19752SOL     OW59833   0.128   6.257   1.421 -0.1199 -0.4012  0.0760
19752SOL    HW159834   0.158   6.299   1.340  1.4867 -2.4285 -0.4841
19752SOL    HW259835   0.042   6.294   1.438 -0.6355 -0.1232 -2.7476
19753SOL     OW59836   6.696   4.069   9.628 -0.0430  0.5206 -0.4351
19753SOL    HW159837   6.694   4.057   9.533 -0.0301  1.5676 -0.5790
19753SOL    HW259838   6.704   3.980   9.663 -1.8641 -0.0775 -1.3551
19754SOL     OW59839   5.157   2.899   7.412  0.6348 -0.1277  0.0597
19754SOL    HW159840   5.250   2.912   7.429  0.5690 -1.3446  1.5665
19754SOL    HW259841   5.126   2.845   7.485 -0.7070 -1.8368 -1.6428
19755SOL     OW59842   0.762   4.213   9.000 -0.6358 -0.2735  0.4691
19755SOL    HW159843   0.855   4.230   8.986 -0.7535  0.4993  0.5456
19755SOL    HW259844   0.735   4.281   9.062 -1.0711 -0.9978  1.0912
19756SOL     OW59845   5.602   3.064   8.153 -0.2183 -0.2645  0.2332
19756SOL    HW159846   5.636   3.080   8.241 -2.5226 -2.6534  1.7243
19756SOL    HW259847   5.571   3.150   8.124  1.6018  0.7968  1.2295
19757SOL     OW59848   6.186   8.383   7.998 -0.4561 -0.0535 -0.0846
19757SOL    HW159849   6.108   8.430   7.969 -0.2309  0.1526 -0.3596
19757SOL    HW259850   6.162   8.290   7.991 -0.6675  0.0082 -0.1821
19758SOL     OW59851   5.166   0.036   1.528  0.0673  0.3716  0.8494
19758SOL    HW159852   5.229  -0.036   1.529  0.9564  1.0305 -1.2991
19758SOL    HW259853   5.142   0.049   1.620  2.3392 -0.5338  1.6364
19759SOL     OW59854   0.324   4.732   6.427  0.2424  0.1439  0.3956
19759SOL    HW159855   0.379   4.806   6.452  0.1473  0.0798  0.8080
19759SOL    HW259856   0.338   4.667   6.496 -0.6370  0.2803  0.7123
19760SOL     OW59857   2.139   7.433   6.329 -0.1332  0.0217  0.2319
19760SOL    HW159858   2.089   7.381   6.392  0.8233 -0.6403  0.4635
19760SOL    HW259859   2.231   7.419   6.353  0.2538 -0.1996 -1.2581
19761SOL     OW59860   0.743   5.034   0.921 -0.3107 -0.5036  0.1738
19761SOL    HW159861   0.675   5.080   0.971 -1.3011 -0.8184 -0.8489
19761SOL    HW259862   0.790   5.102   0.875 -1.9926 -0.4708 -1.6078
19762SOL     OW59863   3.049   3.769   3.229  0.2941 -0.6828  0.3993
19762SOL    HW159864   2.958   3.774   3.257  0.5542 -0.4316  1.2352
19762SOL    HW259865   3.099   3.770   3.311  0.9786 -2.7007  0.0600
19763SOL     OW59866   9.765   3.004   6.771 -0.1414 -0.4147  0.3040
19763SOL    HW159867   9.858   3.007   6.747 -0.1102  2.5602  0.5355
19763SOL    HW259868   9.732   2.927   6.724  1.9718 -0.3146 -1.5256
19764SOL     OW59869   6.895   8.578   2.949 -0.4603 -0.3468  0.6491
19764SOL    HW159870   6.970   8.594   3.006 -1.0708 -1.2673  1.7455
19764SOL    HW259871   6.819   8.609   2.999 -0.8498  0.4713 -0.4004
19765SOL     OW59872   4.302   8.374   1.730  0.5746  0.4943  0.3097
19765SOL    HW159873   4.298   8.401   1.822 -0.0609  1.0157  0.1389
19765SOL    HW259874   4.268   8.449   1.681 -2.0932 -0.8736 -0.1248
19766SOL     OW59875   5.398   5.306   0.334 -0.1518  0.0250  0.0829
19766SOL    HW159876   5.394   5.357   0.415  0.5882 -0.4713  0.4450
19766SOL    HW259877   5.347   5.356   0.271 -2.5321 -0.6019  1.4060
19767SOL     OW59878   7.190   7.474   0.761  0.2368  1.1455 -0.3846
19767SOL    HW159879   7.174   7.426   0.679 -0.1081 -1.1025  0.9084
19767SOL    HW259880   7.242   7.414   0.814  0.0333  2.3400  1.2378
19768SOL     OW59881   4.765   2.530   9.583 -0.5029 -0.0933  0.0795
19768SOL    HW159882   4.785   2.593   9.652 -0.6268  0.7039 -0.5958
19768SOL    HW259883   4.716   2.580   9.518  0.4404 -0.5661 -1.0389
19769SOL     OW59884   9.540   5.560   5.587  0.0643 -0.0167 -0.3078
19769SOL    HW159885   9.456   5.515   5.593 -0.2969  0.4974 -1.3869
19769SOL    HW259886   9.518   5.653   5.583  0.6857  0.1265 -0.5093
19770SOL     OW59887   5.669   7.010   2.175 -0.2688 -0.4420  0.7055
19770SOL    HW159888   5.619   7.008   2.256 -1.6706  0.8355 -0.0729
19770SOL    HW259889   5.622   6.949   2.117 -0.8689  0.6434  0.0219
19771SOL     OW59890   4.745   6.275   0.203 -0.9205  0.2110 -0.0944
19771SOL    HW159891   4.787   6.250   0.285 -1.2845 -1.9731 -0.5294
19771SOL    HW259892   4.811   6.329   0.159  1.3684 -2.6615 -0.5344
19772SOL     OW59893   7.237   6.513   9.454 -0.3441  0.5121 -0.4542
19772SOL    HW159894   7.243   6.594   9.403  1.5358 -0.4206 -1.8189
19772SOL    HW259895   7.295   6.528   9.529 -1.9427  1.3170  0.6743
19773SOL     OW59896   9.684   1.605   6.027  0.7041 -0.8442 -0.0281
19773SOL    HW159897   9.727   1.535   6.076  0.8791 -1.2015 -0.6814
19773SOL    HW259898   9.650   1.664   6.094  1.2883 -1.1137  0.5139
19774SOL     OW59899   8.840   7.330   5.305  1.1642  0.2031  0.0385
19774SOL    HW159900   8.871   7.306   5.393 -0.0154 -2.8976 -0.2606
19774SOL    HW259901   8.917   7.317   5.249  1.3983  0.2591  0.3379
19775SOL     OW59902   4.643   3.575   0.662 -0.1184 -0.0673  0.4094
19775SOL    HW159903   4.704   3.633   0.617 -2.0137  2.5433  0.9502
19775SOL    HW259904   4.663   3.586   0.754 -0.4738 -0.2690  0.5134
19776SOL     OW59905   6.073   9.917   3.243 -0.3058 -0.3883  0.0157
19776SOL    HW159906   6.102   9.944   3.331 -0.7581 -0.4675  0.1916
19776SOL    HW259907   6.137   9.956   3.184  1.5904 -2.4839  0.5123
19777SOL     OW59908   5.712   2.530   3.542  0.2675  0.0665  0.1587
19777SOL    HW159909   5.783   2.586   3.573  0.5356  0.2091 -0.6709
19777SOL    HW259910   5.751   2.443   3.538  0.2689  0.0697  0.1046
19778SOL     OW59911   2.145   3.637   3.410 -0.0432 -0.0076 -0.3205
19778SOL    HW159912   2.193   3.559   3.438  1.7807  1.3992  0.6980
19778SOL    HW259913   2.212   3.701   3.391 -1.5071  1.8175  0.3627
19779SOL     OW59914   9.745   8.825   3.202  0.4859  0.4664  0.5441
19779SOL    HW159915   9.694   8.904   3.223 -0.8656 -0.4151  0.7243
19779SOL    HW259916   9.685   8.772   3.150  2.1977  0.5940 -1.7175
19780SOL     OW59917   0.487   9.035   7.994  0.3744  0.4893  0.0370
19780SOL    HW159918   0.538   9.094   8.049 -0.7574  0.2192  1.4317
19780SOL    HW259919   0.551   8.992   7.937  1.3227  2.4107 -0.4319
19781SOL     OW59920   9.412   9.974   6.479  0.0794 -0.0524 -0.2129
19781SOL    HW159921   9.320   9.978   6.505  0.3706  0.0589  0.8131
19781SOL    HW259922   9.422   9.886   6.442 -0.1755 -0.4751  0.6999
19782SOL     OW59923   5.085   6.473   4.462 -0.6609 -0.0001 -0.0825
19782SOL    HW159924   5.163   6.475   4.518  0.1291  0.0719 -1.1368
19782SOL    HW259925   5.026   6.411   4.505  0.3603 -0.7647  0.2716
19783SOL     OW59926   2.221   9.710   5.173 -0.3184  0.3794  0.1425
19783SOL    HW159927   2.200   9.790   5.221  0.8133  1.0473 -0.4433
19783SOL    HW259928   2.242   9.740   5.084  1.3354 -0.4199  0.2445
19784SOL     OW59929   2.984   4.698   2.879  0.4396 -0.0299 -0.1342
19784SOL    HW159930   3.007   4.678   2.970 -1.0756 -0.8167  0.0930
19784SOL    HW259931   3.019   4.787   2.866  2.1231 -0.5129  0.6710
19785SOL     OW59932   6.870   1.011   3.795  0.3716  0.0232  0.4956
19785SOL    HW159933   6.822   1.048   3.869  1.4195 -1.2296  1.8470
19785SOL    HW259934   6.948   1.066   3.788 -0.6085  1.3317 -0.9608
19786SOL     OW59935   7.532   9.097   9.735 -0.5257  0.1148 -0.2212
19786SOL    HW159936   7.615   9.118   9.693  0.6156 -0.5349  1.6093
19786SOL    HW259937   7.517   9.005   9.713 -0.0160 -0.1760  0.6164
19787SOL     OW59938   6.404   1.127   5.245  0.2366  0.7547 -0.0090
19787SOL    HW159939   6.433   1.193   5.309  2.5651  0.0002 -0.1753
19787SOL    HW259940   6.424   1.043   5.286 -2.6066  0.0690  0.1539
19788SOL     OW59941   5.934   5.380   5.846  0.6064 -0.2600  0.4254
19788SOL    HW159942   5.918   5.364   5.753 -0.7204  0.6516  0.4505
19788SOL    HW259943   6.029   5.381   5.855  0.7566 -0.2298 -0.9559
19789SOL     OW59944   2.201   0.525   9.871  0.2784  0.2024 -0.0850
19789SOL    HW159945   2.284   0.560   9.840 -0.1434  0.9935 -0.3474
19789SOL    HW259946   2.202   0.541   9.966  0.4575  0.1335 -0.0751
19790SOL     OW59947   0.340   8.874   7.057 -0.2933  0.0579 -0.3165
19790SOL    HW159948   0.347   8.822   7.137 -1.5875 -1.2109 -0.9594
19790SOL    HW259949   0.267   8.833   7.009 -1.5086  2.6179 -0.7940
19791SOL     OW59950   8.172   6.560   8.178 -0.4434 -0.3336 -0.8967
19791SOL    HW159951   8.261   6.557   8.215 -0.1027 -1.1546 -1.7599
19791SOL    HW259952   8.155   6.653   8.167  0.8015 -0.1894 -1.8602
19792SOL     OW59953   1.653   8.143   9.828 -0.2181 -0.0336  0.6920
19792SOL    HW159954   1.723   8.170   9.768  0.3153 -0.2629  1.1994
19792SOL    HW259955   1.692   8.074   9.881 -1.1191 -0.7978  0.3827
19793SOL     OW59956   0.507   0.743   4.417 -0.2107 -0.0999  0.2332
19793SOL    HW159957   0.524   0.835   4.441 -0.0115 -0.1258  0.1967
19793SOL    HW259958   0.570   0.693   4.470  0.5904 -0.1246 -0.7164
19794SOL     OW59959   1.845   4.929   7.217  0.0680 -0.6304 -0.0526
19794SOL    HW159960   1.873   4.861   7.156  1.2224 -0.4295  0.2322
19794SOL    HW259961   1.859   4.892   7.304  1.4574  0.2331  0.1138
19795SOL     OW59962   5.997   5.896   1.997 -0.1123  0.1938 -0.2660
19795SOL    HW159963   6.002   5.826   1.931 -0.7557 -0.8679  0.7688
19795SOL    HW259964   5.974   5.850   2.078  0.3883  1.5042  0.6413
19796SOL     OW59965   7.301   4.883   4.371 -0.7038 -0.4040  0.4062
19796SOL    HW159966   7.391   4.862   4.345 -0.9282  1.2287 -1.9885
19796SOL    HW259967   7.254   4.799   4.364 -0.0483 -0.6680 -1.7227
19797SOL     OW59968   1.420   4.383   0.049  0.0042  0.4491  0.3527
19797SOL    HW159969   1.456   4.345  -0.031  0.1600  0.3314  0.4807
19797SOL    HW259970   1.349   4.325   0.074 -0.0208  0.4659  0.3218
19798SOL     OW59971   4.147   2.055   5.573 -0.0531 -0.6297  0.2232
19798SOL    HW159972   4.198   2.081   5.650 -0.9026 -0.0233  0.5988
19798SOL    HW259973   4.064   2.100   5.583 -0.0659 -0.2691 -1.2255
19799SOL     OW59974   6.023   1.716   4.138  0.2362 -0.5767  0.1663
19799SOL    HW159975   6.044   1.690   4.228  0.6546  0.6126  0.4315
19799SOL    HW259976   6.103   1.756   4.106 -0.9655  2.3571  0.5461
19800SOL     OW59977   3.790   2.851   5.245  0.0678 -0.3625  0.5641
19800SOL    HW159978   3.815   2.920   5.307 -1.1416 -0.4147  1.1391
19800SOL    HW259979   3.725   2.892   5.188 -0.0592 -0.7926  0.3974
19801SOL     OW59980   7.733   7.211   2.243  0.2884 -0.1292  0.7881
19801SOL    HW159981   7.730   7.257   2.327  0.0814  0.0205  0.6981
19801SOL    HW259982   7.664   7.251   2.191  2.0744  1.6233 -0.3951
19802SOL     OW59983   4.091   6.690   2.008 -0.1183  0.6632  0.0305
19802SOL    HW159984   4.121   6.769   2.052 -1.7421  1.4295 -0.2011
19802SOL    HW259985   4.171   6.652   1.971  0.5847  2.6958 -0.6798
19803SOL     OW59986   7.490   6.466   0.630 -0.0343  0.0054 -0.0019
19803SOL    HW159987   7.445   6.415   0.563  1.8636 -2.1885  0.2714
19803SOL    HW259988   7.573   6.492   0.589  0.8329 -0.7486  1.2029
19804SOL     OW59989   3.599   5.477   8.184  0.3496 -0.3474  0.1717
19804SOL    HW159990   3.600   5.412   8.254 -0.7357  0.0157  0.5505
19804SOL    HW259991   3.617   5.560   8.228  0.2142 -0.1878 -0.0710
19805SOL     OW59992   6.240   1.108   9.466  0.2662  0.2122  0.8802
19805SOL    HW159993   6.206   1.154   9.543  2.2655  2.1468  0.7184
19805SOL    HW259994   6.300   1.043   9.502 -1.6409 -1.5645  1.0488
19806SOL     OW59995   4.066   2.131   6.140  0.2603  0.5324  0.5082
19806SOL    HW159996   3.973   2.125   6.164  0.5040  0.5501  1.4971
19806SOL    HW259997   4.079   2.223   6.119 -0.1889  0.3353 -0.7215
19807SOL     OW59998   7.173   6.020   4.882 -0.0920 -0.2042  0.0903
19807SOL    HW159999   7.201   6.040   4.971  0.2536 -0.1529 -0.0294
19807SOL    HW260000   7.102   6.082   4.865  2.1815  2.3290 -0.9694
19808SOL     OW60001   7.147   3.689   7.059 -0.3889  0.6296 -0.2899
19808SOL    HW160002   7.138   3.695   7.154 -0.5241  2.1326 -0.3822
19808SOL    HW260003   7.101   3.608   7.035  0.6113 -0.3637  1.0301
19809SOL     OW60004   5.248   7.470   5.214  0.3934 -0.3050  0.2235
19809SOL    HW160005   5.218   7.384   5.185  2.3912 -1.1627  0.5490
19809SOL    HW260006   5.339   7.474   5.185  0.1006  2.0802 -0.5743
19810SOL     OW60007   3.943   6.404   0.148 -0.1648 -0.3397 -0.2469
19810SOL    HW160008   3.968   6.496   0.140 -2.6952  0.3932 -0.3790
19810SOL    HW260009   3.926   6.375   0.059  1.5675 -1.2945 -0.3218
19811SOL     OW60010   5.460   6.352   2.659  0.7981  0.0476 -0.2410
19811SOL    HW160011   5.414   6.269   2.669  2.5293 -0.9833 -0.5017
19811SOL    HW260012   5.412   6.412   2.717 -0.7903 -0.9718 -0.4358
19812SOL     OW60013   0.680   6.309   2.184 -0.5593  0.3657 -0.3126
19812SOL    HW160014   0.703   6.393   2.143  0.2604  0.1064 -0.4005
19812SOL    HW260015   0.761   6.259   2.182 -1.0145 -0.3824 -0.1302
19813SOL     OW60016   6.933   2.384   7.395 -0.1758 -0.0829  0.2825
19813SOL    HW160017   6.899   2.468   7.362  0.3794 -0.0402 -0.2095
19813SOL    HW260018   6.990   2.409   7.468 -0.7811 -0.1149  0.7743
19814SOL     OW60019   9.083   1.997   2.719 -0.0778 -0.1950 -0.4587
19814SOL    HW160020   9.003   2.049   2.721  0.3325  0.4607  2.0264
19814SOL    HW260021   9.057   1.916   2.674 -1.0816  1.4599 -3.1100
19815SOL     OW60022   0.535   1.393   7.021 -0.2465 -0.2954  0.0046
19815SOL    HW160023   0.598   1.454   7.061 -0.5809  0.6848 -0.9027
19815SOL    HW260024   0.472   1.450   6.978 -0.3284 -1.3033 -1.2515
19816SOL     OW60025   3.470   7.086   9.321 -0.5424  0.2065 -0.2901
19816SOL    HW160026   3.523   7.149   9.272 -0.8612 -0.5413 -1.6501
19816SOL    HW260027   3.533   7.021   9.352 -0.3835  0.4879 -0.0232
19817SOL     OW60028   3.712   4.787   4.370  0.0145  0.2151  0.4018
19817SOL    HW160029   3.779   4.723   4.345  0.2631  0.5885  0.1037
19817SOL    HW260030   3.636   4.765   4.315  0.2016  0.3663  0.0822
19818SOL     OW60031   4.695   8.321   1.353  0.1342  0.1881  0.3866
19818SOL    HW160032   4.631   8.263   1.395  0.2506 -0.8225 -0.7805
19818SOL    HW260033   4.652   8.350   1.273  1.8785 -2.3489 -1.6369
19819SOL     OW60034   2.993   0.798   2.049 -0.3747  0.4816  0.2902
19819SOL    HW160035   2.898   0.797   2.049 -0.5318  3.2741  2.4567
19819SOL    HW260036   3.016   0.888   2.029  1.7850  0.1117  0.8549
19820SOL     OW60037   2.609   5.842   1.985  0.5071 -0.0666  0.0356
19820SOL    HW160038   2.665   5.916   2.006  1.2307 -0.2360 -1.2265
19820SOL    HW260039   2.665   5.765   2.000 -0.3539 -0.4201  1.7209
19821SOL     OW60040   0.485   4.217   4.094 -0.2733  0.2403 -0.3319
19821SOL    HW160041   0.540   4.162   4.150  1.0192 -0.3442 -2.0649
19821SOL    HW260042   0.540   4.235   4.017 -1.5441  1.9702 -0.9003
19822SOL     OW60043   2.228   5.381   7.309  0.2216 -0.3789  0.1806
19822SOL    HW160044   2.209   5.468   7.345  0.4061 -0.6409  0.9324
19822SOL    HW260045   2.227   5.393   7.214 -0.3509  0.3164  0.2681
19823SOL     OW60046   2.986   2.883   5.074  0.3088  0.4589  0.2251
19823SOL    HW160047   2.987   2.971   5.113 -2.4036  0.5843  0.1494
19823SOL    HW260048   3.004   2.824   5.148  1.1316  0.9952  0.4684
19824SOL     OW60049   9.020   6.791   6.178  0.0319  0.0149 -0.1264
19824SOL    HW160050   9.022   6.818   6.270  1.8743  1.0900 -0.4507
19824SOL    HW260051   8.942   6.834   6.143 -1.4208 -1.4161  1.1804
19825SOL     OW60052   1.983   8.171   1.826 -0.2138 -0.2582  0.1273
19825SOL    HW160053   1.979   8.151   1.919  0.5547  0.0879  0.2398
19825SOL    HW260054   1.972   8.087   1.783  0.5073 -0.5812  0.5544
19826SOL     OW60055   2.251   7.908   7.104 -0.2026  0.2818 -0.1871
19826SOL    HW160056   2.194   7.844   7.061  1.6834 -1.3939 -0.3097
19826SOL    HW260057   2.222   7.907   7.195 -0.5310 -0.3728 -0.2851
19827SOL     OW60058   2.170   6.557   8.270 -0.1283  0.1124 -0.3280
19827SOL    HW160059   2.153   6.463   8.262  0.3527 -0.3262  2.5815
19827SOL    HW260060   2.103   6.598   8.216 -2.4172 -1.8553  0.8103
19828SOL     OW60061   3.008   6.154   0.672 -0.1352  0.1273 -0.2778
19828SOL    HW160062   2.958   6.230   0.701  0.3790 -0.8549  3.7422
19828SOL    HW260063   2.943   6.083   0.668 -0.0240  0.0456 -0.7030
19829SOL     OW60064   9.200   4.636   7.731  0.3285 -0.3476 -0.4818
19829SOL    HW160065   9.252   4.713   7.753  1.6675 -1.3542  0.0246
19829SOL    HW260066   9.194   4.587   7.813 -0.1393 -1.0019 -0.8921
19830SOL     OW60067   2.469   6.180   5.729 -0.1714  0.4061  0.3492
19830SOL    HW160068   2.560   6.176   5.756  0.5449  0.1668 -1.8682
19830SOL    HW260069   2.447   6.090   5.704 -0.8196  0.5716  0.2968
19831SOL     OW60070   4.049   0.842   4.463 -0.6245  0.2312 -0.5073
19831SOL    HW160071   4.046   0.746   4.468 -1.2842  0.3019  1.0535
19831SOL    HW260072   4.105   0.860   4.388  1.0699 -1.3813  0.2925
19832SOL     OW60073   0.631   6.021   6.235 -0.0711 -0.0388 -0.3520
19832SOL    HW160074   0.673   5.995   6.153 -0.9862  1.3092 -1.2883
19832SOL    HW260075   0.703   6.043   6.294  0.5828 -0.3224 -1.0363
19833SOL     OW60076   5.364   2.898   0.773 -0.0288  0.0196  0.0737
19833SOL    HW160077   5.327   2.812   0.752 -1.2458  0.6038 -0.3324
19833SOL    HW260078   5.451   2.880   0.807 -0.4910 -1.4101  0.5568
19834SOL     OW60079   8.933   9.850   2.241  0.1629  0.2205 -0.1858
19834SOL    HW160080   8.896   9.766   2.268 -1.0732  0.2515 -1.6424
19834SOL    HW260081   8.867   9.914   2.265 -0.8856  0.2746 -2.8582
19835SOL     OW60082   6.161   3.650   5.454  0.5439  0.0793 -0.3149
19835SOL    HW160083   6.235   3.671   5.397  0.6957 -0.1920 -0.2191
19835SOL    HW260084   6.165   3.555   5.464 -0.0141  0.0239 -0.5787
19836SOL     OW60085   2.516   2.446   4.562  0.0324  0.6262 -0.2636
19836SOL    HW160086   2.506   2.412   4.650  0.5179  1.0242 -0.0515
19836SOL    HW260087   2.537   2.538   4.574  0.8229  0.5210 -0.7726
19837SOL     OW60088   7.837   9.180   7.209 -0.1650  0.0382 -0.7189
19837SOL    HW160089   7.820   9.274   7.208 -3.5840 -0.4235 -0.7647
19837SOL    HW260090   7.783   9.145   7.138  2.9492 -1.8018 -2.3613
19838SOL     OW60091   0.799   7.218   0.769  0.5112  0.0471 -0.4108
19838SOL    HW160092   0.810   7.241   0.676  1.2001 -0.1320 -0.3791
19838SOL    HW260093   0.882   7.179   0.794 -0.8448 -3.3182 -0.7021
19839SOL     OW60094   4.262   2.814   2.853  0.0412  0.1445  0.4426
19839SOL    HW160095   4.238   2.845   2.940  1.4732  1.4795  0.4036
19839SOL    HW260096   4.223   2.727   2.847  0.1194 -0.0804  2.5130
19840SOL     OW60097   3.509   8.154   1.479  0.2217  0.1596  0.7733
19840SOL    HW160098   3.500   8.060   1.495 -1.0835 -0.1017 -1.0489
19840SOL    HW260099   3.462   8.196   1.551 -2.1198 -0.7672 -0.0938
19841SOL     OW60100   0.220   9.555   8.725  0.5214  0.0310 -0.1601
19841SOL    HW160101   0.307   9.567   8.762 -0.6739 -0.6687  3.2507
19841SOL    HW260102   0.184   9.643   8.719  1.4066  0.3216 -1.5672
19842SOL     OW60103   2.199   6.515   0.623 -0.2087 -0.9799  0.4340
19842SOL    HW160104   2.261   6.500   0.552 -0.0517  0.2994  0.2759
19842SOL    HW260105   2.254   6.533   0.699 -0.3733 -2.4595  0.9279
19843SOL     OW60106   8.556   6.701   5.392  0.1922 -0.0213  0.0038
19843SOL    HW160107   8.646   6.716   5.422  0.7905 -0.6016 -1.4074
19843SOL    HW260108   8.557   6.612   5.357 -0.8275  0.1071 -0.4009
19844SOL     OW60109   0.895   7.642   1.469  0.1459  0.2144 -0.5832
19844SOL    HW160110   0.972   7.698   1.460  0.0154  0.1563 -2.8242
19844SOL    HW260111   0.930   7.558   1.500  0.7750  0.6284 -0.1503
19845SOL     OW60112   1.003   2.655   7.393  0.3747 -0.0001 -0.0453
19845SOL    HW160113   1.057   2.713   7.341  1.1678 -0.6752  0.0062
19845SOL    HW260114   1.024   2.567   7.362  0.5351 -0.3833  1.0970
19846SOL     OW60115   6.575   5.426   3.484  0.1832 -0.0597 -0.4657
19846SOL    HW160116   6.609   5.345   3.522  0.0899  0.0903 -0.0627
19846SOL    HW260117   6.558   5.404   3.392 -0.7515 -0.7676 -0.1244
19847SOL     OW60118   9.671   8.086   1.033 -0.3084  0.5260  0.1394
19847SOL    HW160119   9.683   8.054   1.122 -0.5859  1.0863  0.3829
19847SOL    HW260120   9.672   8.182   1.041  1.2707  0.6161 -0.6712
19848SOL     OW60121   0.325   7.988   0.718  0.2543  0.1490  0.1345
19848SOL    HW160122   0.342   8.029   0.633  1.1205 -0.0544  0.2030
19848SOL    HW260123   0.332   7.894   0.701 -2.5073 -0.0975 -0.1973
19849SOL     OW60124   2.587   0.906   1.220  0.4268  0.0978 -0.0543
19849SOL    HW160125   2.493   0.889   1.211  0.3131  0.5952  0.1615
19849SOL    HW260126   2.607   0.881   1.310 -0.2377  3.1926  1.1086
19850SOL     OW60127   1.935   5.784   3.574  0.1947 -0.0303  0.2836
19850SOL    HW160128   1.858   5.796   3.630 -1.2259 -0.5804 -1.4496
19850SOL    HW260129   1.939   5.690   3.557  0.0314  0.2076 -1.2271
19851SOL     OW60130   5.325   9.493   7.044  0.7305 -0.0334 -0.3739
19851SOL    HW160131   5.332   9.420   7.105  0.9283  0.0506 -0.2917
19851SOL    HW260132   5.413   9.531   7.042  0.9432 -0.5512 -1.3668
19852SOL     OW60133   7.910   6.872   4.026  0.2065 -0.6063 -0.0716
19852SOL    HW160134   7.939   6.872   4.118  1.3261 -1.6199 -0.3884
19852SOL    HW260135   7.819   6.900   4.029  0.4235  0.0459  1.2785
19853SOL     OW60136   0.719   5.359   9.628 -0.3332  0.3983  0.4663
19853SOL    HW160137   0.762   5.310   9.558  0.0385 -0.6457  1.4012
19853SOL    HW260138   0.760   5.327   9.709 -2.4357 -0.2329  1.3515
19854SOL     OW60139   5.222   7.943   2.360 -0.2406 -0.2497  0.0519
19854SOL    HW160140   5.210   7.849   2.372 -0.0142 -0.1431  1.3582
19854SOL    HW260141   5.138   7.975   2.327 -0.3389 -0.8940 -0.3271
19855SOL     OW60142   5.466   4.110   3.269  0.1915  0.1022 -0.4510
19855SOL    HW160143   5.409   4.180   3.303  1.4150  1.5191 -1.1737
19855SOL    HW260144   5.513   4.152   3.196  0.4699 -1.6985 -1.3455
19856SOL     OW60145   9.194   9.786   7.332 -0.7310 -0.3479  0.1260
19856SOL    HW160146   9.172   9.826   7.247 -2.0344 -1.4112 -0.0802
19856SOL    HW260147   9.287   9.767   7.326 -0.9580 -1.2205 -1.4709
19857SOL     OW60148   6.122   7.337   1.323  0.7274 -0.1225  0.3077
19857SOL    HW160149   6.193   7.326   1.386  0.6300 -1.1533  0.2551
19857SOL    HW260150   6.158   7.396   1.256  1.7244 -1.0286  0.0179
19858SOL     OW60151   7.778   0.295   3.063  0.0045  0.4047 -0.0608
19858SOL    HW160152   7.749   0.354   3.133  1.1256 -0.0598  0.8300
19858SOL    HW260153   7.737   0.330   2.984 -0.6934  1.3863  0.7019
19859SOL     OW60154   3.852   6.672   5.477  0.1415  0.1678  0.0706
19859SOL    HW160155   3.832   6.638   5.564  0.2331  0.7135  0.3130
19859SOL    HW260156   3.789   6.629   5.419  0.8605 -1.1155  0.2112
19860SOL     OW60157   8.422   8.174   7.110 -0.1454  0.0801 -0.5346
19860SOL    HW160158   8.442   8.105   7.174 -3.2429 -1.0865 -0.6553
19860SOL    HW260159   8.448   8.136   7.026 -0.9451 -0.5726 -0.4965
19861SOL     OW60160   7.619   6.761   5.594 -0.2238 -0.2619 -0.2871
19861SOL    HW160161   7.536   6.760   5.641 -0.2446  0.9952 -0.2595
19861SOL    HW260162   7.685   6.740   5.660 -0.4691 -0.8288 -0.2167
19862SOL     OW60163   7.895   1.677   4.336  0.2015 -0.1579 -0.0013
19862SOL    HW160164   7.857   1.721   4.260 -1.9562 -0.6384  0.7222
19862SOL    HW260165   7.912   1.747   4.399 -2.9577 -0.1705  1.0382
19863SOL     OW60166   6.620   5.194   2.506  0.3007  0.2761 -0.0358
19863SOL    HW160167   6.538   5.145   2.517 -0.1717  0.7655 -1.2685
19863SOL    HW260168   6.593   5.277   2.467  1.3071  0.7799  0.3187
19864SOL     OW60169   8.274   1.380   9.301 -0.3356  0.8113 -0.0356
19864SOL    HW160170   8.199   1.364   9.244  1.0507  0.2304 -1.8115
19864SOL    HW260171   8.350   1.368   9.244  1.1183  1.3749  1.6852
19865SOL     OW60172   0.300   8.082   7.607  0.0846  0.3399 -0.4250
19865SOL    HW160173   0.252   8.152   7.652 -1.7059 -1.4906  0.6792
19865SOL    HW260174   0.367   8.055   7.671 -1.2341 -0.9805  0.4605
19866SOL     OW60175   1.473   2.815   0.451 -0.6456 -0.6030  0.2858
19866SOL    HW160176   1.465   2.816   0.356 -0.9169 -0.9356  0.3057
19866SOL    HW260177   1.415   2.885   0.481  0.1068  0.1033  0.1643
19867SOL     OW60178   4.851   4.876   6.368  0.2987  0.4473  0.2676
19867SOL    HW160179   4.797   4.944   6.408  0.4471 -0.5828  2.4314
19867SOL    HW260180   4.795   4.798   6.369  0.4129  0.3131 -1.3949
19868SOL     OW60181   4.140   4.905   3.824 -0.6276 -0.3584 -0.0427
19868SOL    HW160182   4.203   4.860   3.768 -0.6884 -2.0732  1.1979
19868SOL    HW260183   4.063   4.916   3.768  0.3248  0.6843 -1.1964
19869SOL     OW60184   0.997   7.298   6.683 -0.0028  0.0490 -0.4819
19869SOL    HW160185   1.003   7.368   6.618 -0.4532 -1.2261 -1.9719
19869SOL    HW260186   0.980   7.219   6.631  0.8343 -1.2337  1.0920
19870SOL     OW60187   7.797   0.311   6.652 -0.1091 -0.1835 -0.4364
19870SOL    HW160188   7.727   0.367   6.616 -0.6637  0.3565  1.3687
19870SOL    HW260189   7.872   0.327   6.595 -1.7325 -1.6882 -3.1788
19871SOL     OW60190   7.553   6.450   2.781  0.1206 -0.1945 -0.1618
19871SOL    HW160191   7.481   6.392   2.757 -0.1027  0.1115 -0.2517
19871SOL    HW260192   7.518   6.538   2.765  0.5625 -0.0471 -0.3422
19872SOL     OW60193   2.246   3.125   6.535 -0.2753 -0.3555 -0.6062
19872SOL    HW160194   2.178   3.186   6.565 -0.9296 -1.4988  0.3135
19872SOL    HW260195   2.206   3.039   6.541  0.8267 -0.9504 -1.3359
19873SOL     OW60196   9.590   7.104   2.394 -0.0612 -0.7240 -0.0851
19873SOL    HW160197   9.569   7.173   2.457  0.1217  0.2152 -1.0058
19873SOL    HW260198   9.646   7.148   2.329  1.0506 -2.0494 -0.0650
19874SOL     OW60199   2.886   3.407   3.603  0.0641 -0.1337  0.0507
19874SOL    HW160200   2.898   3.328   3.657 -1.8143  0.1197  0.9240
19874SOL    HW260201   2.849   3.472   3.664  0.0955  0.9254 -1.0262
19875SOL     OW60202   4.999   8.601   7.868 -0.3938 -0.2125  0.6884
19875SOL    HW160203   4.992   8.694   7.889  0.6446 -0.2964  1.4807
19875SOL    HW260204   5.060   8.566   7.932  1.5529 -0.8561 -1.3749
19876SOL     OW60205   2.326   2.303   9.917  0.8561 -0.5456 -0.0836
19876SOL    HW160206   2.374   2.327   9.996  2.1872 -1.2235 -0.6489
19876SOL    HW260207   2.372   2.348   9.846  0.6473 -1.1874 -0.6415
19877SOL     OW60208   0.761   9.030   8.762 -0.0682  0.3371 -0.2680
19877SOL    HW160209   0.668   9.044   8.740 -0.8421 -3.6985 -0.4608
19877SOL    HW260210   0.762   9.017   8.857  0.3687  0.7229 -0.2169
19878SOL     OW60211   4.163   4.033   0.452 -0.0325 -0.3540 -0.4015
19878SOL    HW160212   4.237   4.061   0.506  0.1457  0.2419 -0.9406
19878SOL    HW260213   4.152   4.104   0.388  0.8032 -1.7537 -2.2041
19879SOL     OW60214   2.250   0.270   1.931  0.2660  0.3843  0.3928
19879SOL    HW160215   2.201   0.288   1.851  2.7576  1.2240 -1.0467
19879SOL    HW260216   2.275   0.356   1.965  0.8303 -0.0105  1.0233
19880SOL     OW60217   0.974   6.556   2.336  0.2237 -0.4547 -0.2179
19880SOL    HW160218   0.882   6.557   2.309  0.1803  1.7438 -0.2004
19880SOL    HW260219   0.972   6.559   2.431  0.3472 -2.1803 -0.1419
19881SOL     OW60220   8.408   3.596   6.640 -0.9949  0.7793 -0.2445
19881SOL    HW160221   8.437   3.555   6.722 -1.8976  0.6451  0.0243
19881SOL    HW260222   8.486   3.638   6.605 -0.0630 -0.9876 -0.4305
19882SOL     OW60223   5.935   8.254   8.142  0.4031  0.4061 -0.5211
19882SOL    HW160224   5.916   8.348   8.146  0.4381  0.3614  1.6353
19882SOL    HW260225   5.851   8.212   8.162  0.5894 -0.0078 -0.6135
19883SOL     OW60226   2.245   7.381   5.815 -0.2117 -0.0874 -0.0209
19883SOL    HW160227   2.282   7.314   5.757  0.3819  0.8647 -0.7789
19883SOL    HW260228   2.320   7.436   5.838 -0.7247  0.4189  0.4345
19884SOL     OW60229   4.107   1.116   7.363 -0.3015 -0.7057  0.0518
19884SOL    HW160230   4.096   1.037   7.414  0.8156 -0.6542  0.3960
19884SOL    HW260231   4.018   1.140   7.335 -0.5848 -2.3936 -0.5672
19885SOL     OW60232   0.438   7.668   7.491  0.2378 -0.6180 -0.0966
19885SOL    HW160233   0.496   7.677   7.415  0.5051 -0.4781  0.1254
19885SOL    HW260234   0.366   7.729   7.473  2.4837  2.9692  1.8362
19886SOL     OW60235   7.108   8.967   3.139 -0.0383 -0.0909 -0.0929
19886SOL    HW160236   7.110   9.027   3.213  0.7403  0.1154 -0.2756
19886SOL    HW260237   7.091   9.023   3.063 -1.4449 -0.3735 -0.0147
19887SOL     OW60238   9.447   1.428   0.537 -0.3679 -0.3336 -0.1226
19887SOL    HW160239   9.371   1.440   0.594 -0.1951 -0.6468  0.1754
19887SOL    HW260240   9.509   1.495   0.567 -0.0276 -0.9147  0.4850
19888SOL     OW60241   8.116   8.508   4.863  0.2907 -0.3153  0.1029
19888SOL    HW160242   8.111   8.503   4.959 -2.3902  0.2098  0.0613
19888SOL    HW260243   8.028   8.484   4.833  0.8052  0.4333 -2.1977
19889SOL     OW60244   3.471   6.609   0.445 -0.3392 -0.4843  0.6256
19889SOL    HW160245   3.520   6.546   0.497 -0.8327 -0.9970  0.4774
19889SOL    HW260246   3.536   6.675   0.420  0.8603 -2.3522 -1.5653
19890SOL     OW60247   3.959   3.583   2.568 -0.0118  0.2442  0.0931
19890SOL    HW160248   4.052   3.601   2.586  0.0878  0.7897 -0.9004
19890SOL    HW260249   3.912   3.640   2.630  0.3255  1.5447 -0.7976
19891SOL     OW60250   0.158   2.110   4.563  0.7634  0.6655  0.1198
19891SOL    HW160251   0.208   2.156   4.630  1.0082 -1.3989  1.4564
19891SOL    HW260252   0.085   2.168   4.544  1.9922  2.3766  0.3859
19892SOL     OW60253   1.012   5.910   8.493  1.1766 -0.1374  0.1346
19892SOL    HW160254   1.005   5.975   8.423  1.1642 -0.5102 -0.2189
19892SOL    HW260255   0.922   5.879   8.506  1.0826  0.3819  0.7583
19893SOL     OW60256   3.609   4.284   0.259 -0.1252 -0.3286  0.5455
19893SOL    HW160257   3.630   4.253   0.170 -0.3213  6.5156 -2.5905
19893SOL    HW260258   3.694   4.304   0.297  0.1343 -5.0884  3.2570
19894SOL     OW60259   0.578   9.494   1.116 -0.5599 -0.7726  0.3126
19894SOL    HW160260   0.541   9.435   1.050 -0.7503  0.6295 -0.8851
19894SOL    HW260261   0.666   9.514   1.083  0.4864 -2.3108  1.9951
19895SOL     OW60262   1.558   7.293   6.184  0.2037 -0.0611  0.1738
19895SOL    HW160263   1.534   7.253   6.267  3.6259 -0.7037  0.9995
19895SOL    HW260264   1.558   7.221   6.121 -1.1907  0.2037 -0.1720
19896SOL     OW60265   3.161   8.481   8.726  0.0798  0.1697  0.3310
19896SOL    HW160266   3.169   8.424   8.649  1.5395  0.0579  0.5379
19896SOL    HW260267   3.087   8.538   8.706  0.1582 -0.1541 -0.9830
19897SOL     OW60268   3.793   7.700   2.181  0.7963  0.2870  0.0467
19897SOL    HW160269   3.761   7.618   2.143 -1.4704  1.6849 -1.3104
19897SOL    HW260270   3.858   7.731   2.119  1.7244 -0.4585  0.6060
19898SOL     OW60271   2.015   1.028   7.595  0.2673  0.3779  0.2815
19898SOL    HW160272   1.968   1.027   7.678 -0.0808  2.2679  0.1453
19898SOL    HW260273   2.093   1.081   7.613 -0.4339  1.8640 -0.8787
19899SOL     OW60274   1.850   4.557   4.984 -0.1060  0.3670  0.3193
19899SOL    HW160275   1.818   4.469   4.963  2.2231 -0.3878 -0.4377
19899SOL    HW260276   1.890   4.548   5.070  1.7550  0.1283 -0.5002
19900SOL     OW60277   2.447   5.942   2.458 -0.5186  0.4142 -0.2427
19900SOL    HW160278   2.524   5.997   2.448  0.2007 -0.7548 -1.4142
19900SOL    HW260279   2.481   5.853   2.461 -1.8923 -0.2838 -2.6859
19901SOL     OW60280   8.171   0.405   0.248  0.6923  0.6726  0.3927
19901SOL    HW160281   8.112   0.331   0.265  0.2114  0.8476 -0.4549
19901SOL    HW260282   8.141   0.473   0.309 -0.8554  1.2062 -0.8736
19902SOL     OW60283   9.181   3.304   1.395 -0.4365  0.1007  0.4362
19902SOL    HW160284   9.191   3.300   1.490 -0.5192  0.8328  0.4786
19902SOL    HW260285   9.213   3.219   1.365  0.1351  0.0812  1.0669
19903SOL     OW60286   3.572   8.468   5.643 -0.0619  0.3683 -0.2238
19903SOL    HW160287   3.584   8.484   5.737  3.8570 -2.5541  0.0522
19903SOL    HW260288   3.634   8.527   5.601 -1.5165  1.3720 -1.0654
19904SOL     OW60289   7.447   2.224   9.802 -0.5626  0.1453 -0.2483
19904SOL    HW160290   7.422   2.208   9.893  0.9724  1.0028  0.3538
19904SOL    HW260291   7.434   2.139   9.759 -0.7978 -0.4180  0.8895
19905SOL     OW60292   9.472   4.052   2.817 -0.6622  0.2729 -0.0369
19905SOL    HW160293   9.420   4.020   2.744 -1.5545  0.2596  0.5869
19905SOL    HW260294   9.432   4.014   2.895 -0.2081  0.8931  0.5235
19906SOL     OW60295   3.237   1.838   1.420  0.6323 -0.2289 -0.0852
19906SOL    HW160296   3.260   1.756   1.463  1.3448  0.3109  0.5768
19906SOL    HW260297   3.204   1.811   1.334 -0.6789 -1.3185  0.7075
19907SOL     OW60298   1.625   5.822   2.164 -0.1937 -0.0390  0.1174
19907SOL    HW160299   1.601   5.730   2.178  1.5147 -0.6231 -0.5097
19907SOL    HW260300   1.561   5.872   2.215 -1.3668 -1.5569  0.1930
19908SOL     OW60301   2.594   2.119   8.178  1.0803  0.2649  0.2576
19908SOL    HW160302   2.665   2.068   8.138 -0.0428 -2.0369  1.0463
19908SOL    HW260303   2.622   2.130   8.269  0.5189 -0.5652  0.5457
19909SOL     OW60304   0.507   4.192   1.675 -0.4028 -0.4181  0.0222
19909SOL    HW160305   0.540   4.107   1.645  0.0588 -0.1560 -0.2253
19909SOL    HW260306   0.412   4.186   1.667 -0.3967 -1.0478  0.3708
19910SOL     OW60307   8.012   0.466   1.577  0.5527 -0.2225  0.0008
19910SOL    HW160308   8.056   0.494   1.657 -0.2293  0.8957  0.0639
19910SOL    HW260309   7.921   0.491   1.590  0.2435 -0.8617 -0.8673
19911SOL     OW60310   9.740   3.881   4.463 -0.0608 -0.1439  0.1255
19911SOL    HW160311   9.742   3.976   4.458 -0.2709 -0.0467  1.3916
19911SOL    HW260312   9.679   3.862   4.534  1.3611 -1.1479  1.1504
19912SOL     OW60313   8.599   9.216   2.613  0.1193  0.4312 -0.1084
19912SOL    HW160314   8.542   9.270   2.668 -1.9169 -1.1913 -0.5265
19912SOL    HW260315   8.640   9.155   2.673  0.1732  0.5542 -0.0192
19913SOL     OW60316   7.358   4.037   2.556 -0.1153  0.4068  0.0547
19913SOL    HW160317   7.296   3.999   2.493 -0.2174 -0.2102  0.5179
19913SOL    HW260318   7.308   4.105   2.600 -0.3666  0.1392  0.1885
19914SOL     OW60319   6.402   0.285   8.302  0.0656  0.3003 -0.8894
19914SOL    HW160320   6.487   0.250   8.276  1.9452  2.7588  1.3350
19914SOL    HW260321   6.401   0.374   8.267 -1.1334  0.6769  0.0176
19915SOL     OW60322   7.414   6.620   3.189 -0.8277  0.4145  0.1839
19915SOL    HW160323   7.435   6.596   3.280 -1.1697 -1.0984 -0.1000
19915SOL    HW260324   7.321   6.641   3.192 -0.6080  1.4003  0.3651
19916SOL     OW60325   6.570   1.600   4.650 -0.0530  0.0694  0.2716
19916SOL    HW160326   6.531   1.684   4.627 -0.3534 -0.3856 -0.9488
19916SOL    HW260327   6.513   1.534   4.609  1.3370 -0.6416 -0.6163
19917SOL     OW60328   8.256   8.019   9.591  0.3106 -0.1272  1.0829
19917SOL    HW160329   8.224   8.080   9.658  0.1989  0.6982  0.3039
19917SOL    HW260330   8.340   8.056   9.564 -1.7228  2.4056 -2.6533
19918SOL     OW60331   8.725   3.105   4.268  0.0626 -0.1987  0.0625
19918SOL    HW160332   8.719   3.013   4.293 -0.8069 -0.9278 -2.5292
19918SOL    HW260333   8.764   3.104   4.181  0.1141  1.9148  0.0077
19919SOL     OW60334   6.589   6.347   8.337 -0.2995  0.1220  0.2892
19919SOL    HW160335   6.605   6.329   8.244  0.0581  0.1861  0.3373
19919SOL    HW260336   6.639   6.280   8.383  0.0740  0.5127  0.4477
19920SOL     OW60337   1.680   2.963   8.126 -0.1182  0.0500  0.2950
19920SOL    HW160338   1.659   2.873   8.102 -1.4945 -0.0334  1.6150
19920SOL    HW260339   1.648   3.016   8.053 -1.5014 -0.3879  0.5553
19921SOL     OW60340   9.113   1.916   7.256 -0.2376 -0.6807  0.2449
19921SOL    HW160341   9.156   1.968   7.188 -1.0787  0.3179  0.4509
19921SOL    HW260342   9.152   1.947   7.337  0.5193 -1.6304  0.2525
19922SOL     OW60343   4.935   6.752   4.582 -0.1438  0.3023  0.4462
19922SOL    HW160344   5.027   6.742   4.560 -0.6929  1.2459 -2.7801
19922SOL    HW260345   4.935   6.804   4.662  2.1221  1.0303  0.0494
19923SOL     OW60346   9.573   5.439   3.507 -0.5367  0.0222 -0.2412
19923SOL    HW160347   9.518   5.399   3.440 -0.5733  0.9921 -0.8162
19923SOL    HW260348   9.656   5.392   3.502 -1.2430 -1.3494  0.5250
19924SOL     OW60349   1.732   5.354   7.976 -0.3666  0.2667 -0.5047
19924SOL    HW160350   1.680   5.361   7.896 -1.1420  1.1414  0.0474
19924SOL    HW260351   1.701   5.426   8.031 -0.3229 -0.7124  0.8624
19925SOL     OW60352   5.550   5.535   1.878 -1.1423  0.1040 -0.3158
19925SOL    HW160353   5.486   5.475   1.838 -1.5050  0.3624 -0.1303
19925SOL    HW260354   5.543   5.615   1.826 -1.0813  0.1869 -0.1945
19926SOL     OW60355   8.508   4.215   1.717  0.0996  0.2526 -0.1164
19926SOL    HW160356   8.554   4.144   1.762 -0.2698 -0.3535 -0.6786
19926SOL    HW260357   8.436   4.239   1.776 -1.3777 -1.6441 -1.0413
19927SOL     OW60358   9.926   5.143   8.979  0.7352 -0.6786 -0.1595
19927SOL    HW160359   9.935   5.221   9.033  1.3086  0.1013 -1.3381
19927SOL    HW260360  10.005   5.142   8.925 -0.7412 -0.2625 -2.4570
19928SOL     OW60361   0.964   8.155   3.041  0.0756 -0.0020  0.3851
19928SOL    HW160362   1.053   8.155   3.006  0.1715 -0.4912  0.6323
19928SOL    HW260363   0.974   8.177   3.134  0.0573 -1.3141  0.7092
19929SOL     OW60364   3.598   6.402   5.901  0.0528  0.0430  0.4537
19929SOL    HW160365   3.616   6.336   5.968 -1.5540  0.1360  1.0154
19929SOL    HW260366   3.510   6.381   5.869  0.4630  0.4894 -1.0757
19930SOL     OW60367   8.583   5.102   6.475  0.0307 -0.2146 -0.3159
19930SOL    HW160368   8.611   5.012   6.494 -0.3875 -0.1612  0.6594
19930SOL    HW260369   8.656   5.157   6.501 -0.5198 -0.1469  1.1853
19931SOL     OW60370   0.821   7.535   2.643 -0.1826 -0.1591 -0.4328
19931SOL    HW160371   0.858   7.621   2.622 -0.9327  0.2693 -0.0377
19931SOL    HW260372   0.729   7.541   2.617 -0.4824 -0.5077  0.5015
19932SOL     OW60373   7.293   7.582   8.946  0.2319  0.0469  0.3260
19932SOL    HW160374   7.340   7.500   8.958  1.0588  0.4935  0.2269
19932SOL    HW260375   7.358   7.650   8.966 -0.1279  0.6971 -0.6393
19933SOL     OW60376   6.579   7.846   8.010 -0.1225 -0.4913 -0.0637
19933SOL    HW160377   6.526   7.915   8.051  1.2035 -0.4468  1.6690
19933SOL    HW260378   6.659   7.889   7.983 -0.1802 -0.9352 -0.9987
19934SOL     OW60379   7.383   6.898   1.859 -0.1582  0.1696  0.6906
19934SOL    HW160380   7.328   6.856   1.794  1.1766 -0.5575 -0.0054
19934SOL    HW260381   7.459   6.929   1.811  1.1339 -0.8798  1.9533
19935SOL     OW60382   3.301   3.034   1.113 -0.5842 -0.4996 -0.2769
19935SOL    HW160383   3.264   3.020   1.026 -1.6302  0.3799  0.0015
19935SOL    HW260384   3.324   2.946   1.144  0.4270 -0.7518 -1.6892
19936SOL     OW60385   3.343   2.172   7.467 -0.2117  0.4801 -0.1238
19936SOL    HW160386   3.312   2.082   7.471  0.4264  0.2528 -0.2669
19936SOL    HW260387   3.389   2.178   7.384 -0.2152  0.9306 -0.0969
19937SOL     OW60388   1.820   1.844   8.414  0.4229 -0.2236  0.3355
19937SOL    HW160389   1.831   1.923   8.362 -2.0765  0.5717  0.8930
19937SOL    HW260390   1.836   1.772   8.353  1.4222  0.6670 -0.4972
19938SOL     OW60391   7.323   4.628   3.617  0.4587  0.0344 -0.1695
19938SOL    HW160392   7.269   4.678   3.677 -0.8226 -2.8111  1.2619
19938SOL    HW260393   7.413   4.645   3.645 -0.0484 -0.0593  1.6483
19939SOL     OW60394   7.637   3.606   2.055  0.2445  0.7107 -0.4114
19939SOL    HW160395   7.722   3.648   2.066  0.0898  1.0097 -0.3252
19939SOL    HW260396   7.590   3.624   2.137  0.8485 -1.2659  0.4218
19940SOL     OW60397   6.851   5.788   4.943 -0.2975 -0.0991  0.6926
19940SOL    HW160398   6.848   5.873   4.987 -0.6403 -0.9521  2.4035
19940SOL    HW260399   6.759   5.760   4.941 -0.3266  0.0357 -0.8768
19941SOL     OW60400   0.762   2.583   6.119  0.3037  0.5422  0.1864
19941SOL    HW160401   0.708   2.563   6.195 -2.6520  2.3858 -1.2688
19941SOL    HW260402   0.834   2.636   6.155 -0.6333  0.7823  1.8000
19942SOL     OW60403   1.101   8.294   7.001  0.3522  0.2547  0.1644
19942SOL    HW160404   1.145   8.316   7.083  2.0594 -0.3718 -0.5329
19942SOL    HW260405   1.160   8.232   6.958 -1.3143 -0.7450 -0.7756
19943SOL     OW60406   6.238   9.099   9.142  0.2956  0.2682 -0.4510
19943SOL    HW160407   6.237   9.191   9.168  1.0274  0.7148 -1.9453
19943SOL    HW260408   6.320   9.064   9.177 -0.4899 -0.1435  1.0812
19944SOL     OW60409   4.093   8.150   3.363 -0.2827 -0.0349 -0.4420
19944SOL    HW160410   4.092   8.067   3.410  1.7469 -1.3327 -2.4530
19944SOL    HW260411   4.000   8.170   3.348 -0.8387 -1.8862  0.2031
19945SOL     OW60412   0.390   9.344   6.854  0.4263  0.2188  0.0695
19945SOL    HW160413   0.310   9.295   6.872  0.5262  0.1397  0.3018
19945SOL    HW260414   0.459   9.278   6.850  0.6569  0.3814  0.9732
19946SOL     OW60415   9.297   3.138   1.047  0.2339  0.2550 -0.0026
19946SOL    HW160416   9.226   3.192   1.010  0.5634  0.7775  0.1299
19946SOL    HW260417   9.272   3.049   1.023  0.7119  0.6036 -2.0090
19947SOL     OW60418   8.892   4.960   6.676  0.2065  0.3370 -0.2972
19947SOL    HW160419   8.831   4.922   6.611  0.2274  2.1477 -1.4569
19947SOL    HW260420   8.835   4.999   6.742  0.1581 -0.0684 -0.0968
19948SOL     OW60421   2.319   5.460   4.786 -0.0840  0.1493 -0.0509
19948SOL    HW160422   2.287   5.543   4.750 -2.5630 -1.4816 -1.9904
19948SOL    HW260423   2.240   5.409   4.802  1.3721 -2.1249  0.3233
19949SOL     OW60424   5.634   2.532   0.982 -0.2939  0.0024  0.1635
19949SOL    HW160425   5.560   2.515   1.041  0.0064 -0.5261  0.3952
19949SOL    HW260426   5.670   2.615   1.012 -0.2290 -0.1943  0.6405
19950SOL     OW60427   4.844   1.568   6.453  0.2126  0.9262 -0.4252
19950SOL    HW160428   4.758   1.606   6.439  0.5279  1.3689 -1.2074
19950SOL    HW260429   4.890   1.580   6.371  0.8555  0.2292 -0.1877
19951SOL     OW60430   7.171   5.776   1.399  0.3450  0.5204  0.1082
19951SOL    HW160431   7.127   5.691   1.399 -1.1255  1.2072  1.8207
19951SOL    HW260432   7.225   5.775   1.478  0.1527  1.2470  0.2559
19952SOL     OW60433   7.211   2.654   0.593  0.4891  0.8445  0.2861
19952SOL    HW160434   7.183   2.744   0.606 -0.0113  0.9167 -1.0835
19952SOL    HW260435   7.230   2.621   0.681 -1.5842  1.5570  1.0530
19953SOL     OW60436   4.236   5.940   9.417 -0.4366 -0.3082 -0.2075
19953SOL    HW160437   4.161   5.950   9.475 -2.2173 -1.0191 -2.2333
19953SOL    HW260438   4.271   5.853   9.437 -0.9360 -0.4883 -0.1172
19954SOL     OW60439   3.822   6.737   9.921 -0.1041  0.3805  0.3051
19954SOL    HW160440   3.856   6.697   9.841 -0.8989 -0.2204  0.2524
19954SOL    HW260441   3.886   6.714   9.989  1.2711  1.9846 -0.3601
19955SOL     OW60442   6.663   9.344   8.181  0.1370  0.6159 -0.3216
19955SOL    HW160443   6.639   9.274   8.120  2.0851  1.0499 -1.6987
19955SOL    HW260444   6.671   9.301   8.266 -1.2095 -0.3090 -0.6377
19956SOL     OW60445   9.785   9.669   2.741 -0.5586 -0.3610 -0.3703
19956SOL    HW160446   9.778   9.760   2.714 -0.3370 -0.3993 -0.5590
19956SOL    HW260447   9.782   9.619   2.659 -2.1356 -0.6156 -0.1907
19957SOL     OW60448   2.866   7.435   5.987  0.4508  0.1667  0.2834
19957SOL    HW160449   2.867   7.518   6.034 -0.9888  0.4683 -0.1438
19957SOL    HW260450   2.857   7.369   6.055  1.0385  0.4010  0.5929
19958SOL     OW60451   9.676   1.057   2.845 -0.0329  0.0047  0.5305
19958SOL    HW160452   9.665   0.988   2.780  0.4244  0.1271  0.3178
19958SOL    HW260453   9.637   1.135   2.804  2.3877  0.6853 -0.6432
19959SOL     OW60454   5.861   8.572   0.794  0.0681 -0.0877 -0.0747
19959SOL    HW160455   5.919   8.563   0.870  1.3296  2.3331 -0.6213
19959SOL    HW260456   5.848   8.667   0.786 -2.4482 -0.4486 -1.1611
19960SOL     OW60457   9.447   9.275   8.541  0.6280  0.2848  0.4553
19960SOL    HW160458   9.455   9.252   8.634  0.5947 -0.6801  0.2288
19960SOL    HW260459   9.397   9.203   8.503  2.5029 -0.4704 -0.7249
19961SOL     OW60460   2.070   6.137   4.284 -0.0741 -0.5494  0.0179
19961SOL    HW160461   2.040   6.047   4.276 -0.1956 -0.4390 -0.8508
19961SOL    HW260462   1.999   6.182   4.329  0.7880 -1.2785  2.2167
19962SOL     OW60463   1.742   0.588   8.093  0.3375 -0.5946  0.3058
19962SOL    HW160464   1.706   0.544   8.171 -1.7012  1.1630  0.4723
19962SOL    HW260465   1.695   0.548   8.020  1.7438 -1.7552  0.0077
19963SOL     OW60466   8.834   6.675   6.475  0.3712  0.1386 -0.3865
19963SOL    HW160467   8.929   6.665   6.469  0.3177 -0.0733 -1.0682
19963SOL    HW260468   8.802   6.590   6.504  0.3760  0.1331 -0.3971
19964SOL     OW60469   0.011   4.663   3.843  0.4695 -0.4939  0.0983
19964SOL    HW160470  -0.010   4.748   3.802 -0.2763 -0.4508  0.5615
19964SOL    HW260471   0.091   4.634   3.797  1.2786  0.8884  0.5669
19965SOL     OW60472   6.361   7.303   2.790 -0.0001 -0.3804  0.5957
19965SOL    HW160473   6.344   7.321   2.698  3.5538  0.3253 -0.0944
19965SOL    HW260474   6.304   7.230   2.812 -1.2333 -0.3212 -2.0283
19966SOL     OW60475   8.703   8.769   6.283  0.2139  0.5610  0.3741
19966SOL    HW160476   8.704   8.864   6.294  0.7052  0.8014 -1.4265
19966SOL    HW260477   8.727   8.735   6.369 -1.2735  1.9971  1.4168
19967SOL     OW60478   2.484   0.359   5.021 -0.3389 -0.3206 -0.6451
19967SOL    HW160479   2.487   0.332   4.929  0.0549 -0.4602 -0.5901
19967SOL    HW260480   2.461   0.452   5.017  2.4492  0.4498 -1.0419
19968SOL     OW60481   7.965   8.423   1.871 -0.2235 -0.0459 -0.5886
19968SOL    HW160482   8.028   8.363   1.831 -0.9678 -0.3537 -1.3225
19968SOL    HW260483   8.020   8.489   1.915  0.6240 -1.5413  0.7194
19969SOL     OW60484   0.950   1.271   4.261  0.2992 -0.0760  0.0814
19969SOL    HW160485   0.860   1.269   4.293  0.4845  0.0601  0.6235
19969SOL    HW260486   0.958   1.193   4.207 -0.3379  0.2691 -0.5101
19970SOL     OW60487   0.670   6.620   0.718 -0.1044 -0.6539 -0.4842
19970SOL    HW160488   0.696   6.635   0.627  0.6674  0.8630 -0.0257
19970SOL    HW260489   0.752   6.614   0.767 -0.4075 -3.5400 -0.1202
19971SOL     OW60490   3.424   5.285   6.693  0.3860 -0.2855  0.0062
19971SOL    HW160491   3.409   5.215   6.630  2.2220  0.4930 -1.3830
19971SOL    HW260492   3.467   5.242   6.767 -1.4163 -1.1324  0.6323
19972SOL     OW60493   7.375   5.411   0.573 -0.1162  0.6547  0.3892
19972SOL    HW160494   7.391   5.503   0.551  0.9330  0.7721  1.5495
19972SOL    HW260495   7.366   5.410   0.668  2.8385 -0.7996  0.7689
19973SOL     OW60496   2.957   2.373   2.146 -0.0691  0.2275  0.6753
19973SOL    HW160497   2.978   2.294   2.096 -1.0230 -0.3486  1.1324
19973SOL    HW260498   2.873   2.352   2.188 -0.1222  1.3299  1.1492
19974SOL     OW60499   5.686   3.545   5.322 -0.4431  0.7569 -0.0747
19974SOL    HW160500   5.768   3.518   5.280 -1.5623  0.3448 -2.1062
19974SOL    HW260501   5.702   3.635   5.349  0.5879  0.7860 -0.7195
19975SOL     OW60502   3.155   8.853   9.523 -0.1874  0.5416 -0.2437
19975SOL    HW160503   3.070   8.896   9.518 -1.2298 -1.0978  1.8754
19975SOL    HW260504   3.201   8.900   9.593 -0.1418  0.1653 -0.0184
19976SOL     OW60505   5.189   7.087   7.781  0.5208  0.6373 -0.6810
19976SOL    HW160506   5.248   7.120   7.848  1.6235 -1.0778 -0.7553
19976SOL    HW260507   5.154   7.005   7.817 -2.5184  1.9655 -0.2836
19977SOL     OW60508   5.717   2.384   2.226 -0.2340 -0.3872  0.3830
19977SOL    HW160509   5.767   2.343   2.156 -2.6189 -2.8252 -0.0719
19977SOL    HW260510   5.723   2.322   2.299 -0.4994  0.5201  1.1949
19978SOL     OW60511   4.856   2.861   6.821  0.1693  0.4686 -0.2365
19978SOL    HW160512   4.799   2.934   6.795  0.7666  0.6619 -1.0628
19978SOL    HW260513   4.937   2.903   6.849  0.4637  0.1281 -0.5747
19979SOL     OW60514   6.742   6.538   0.569  0.0593 -0.0505  0.6960
19979SOL    HW160515   6.792   6.588   0.633  2.3284  2.1974 -2.5276
19979SOL    HW260516   6.806   6.480   0.528 -0.2729  1.3640 -2.0846
19980SOL     OW60517   8.140   5.932   6.819  0.0010  0.2942  0.1116
19980SOL    HW160518   8.147   6.005   6.880  1.6717  0.5803 -0.3545
19980SOL    HW260519   8.165   5.855   6.871 -0.4508  0.2470  0.2627
19981SOL     OW60520   3.826   1.514   4.494  0.5896  0.2113  0.2722
19981SOL    HW160521   3.786   1.578   4.553  0.4814  0.7202 -0.3486
19981SOL    HW260522   3.754   1.483   4.439  0.5380 -0.8285  0.9028
19982SOL     OW60523   2.236   0.746   7.936 -0.2602  0.7018  0.1773
19982SOL    HW160524   2.331   0.742   7.940 -0.1871  1.6336 -0.4492
19982SOL    HW260525   2.214   0.837   7.957 -1.0618  0.3243  1.0825
19983SOL     OW60526   7.678   8.224   1.636 -0.0040  0.4145 -0.3997
19983SOL    HW160527   7.759   8.173   1.634  0.1505  0.6907 -1.0712
19983SOL    HW260528   7.703   8.308   1.674  0.1828  0.7847 -1.3400
19984SOL     OW60529   3.144   7.969   5.381 -0.0328  0.1542  0.3750
19984SOL    HW160530   3.159   8.059   5.409  1.7236 -0.3001  1.0575
19984SOL    HW260531   3.155   7.972   5.286  1.1192  0.5033  0.4952
19985SOL     OW60532   3.489   3.009   0.834 -0.3432 -0.0016  0.1400
19985SOL    HW160533   3.538   3.067   0.892  0.2945  0.9776 -1.2935
19985SOL    HW260534   3.397   3.032   0.849 -0.0773  2.2140 -1.1010
19986SOL     OW60535   5.454   1.976   5.487 -0.4376 -0.0780  0.4979
19986SOL    HW160536   5.501   1.896   5.515 -0.8135 -0.3440  0.3701
19986SOL    HW260537   5.407   2.004   5.565  0.3821  0.5217  0.7971
19987SOL     OW60538   0.452   7.941   6.009  0.5757 -0.2634  0.3923
19987SOL    HW160539   0.518   7.874   6.027 -0.3808 -1.4276 -0.3089
19987SOL    HW260540   0.417   7.919   5.923  0.1479  1.0815  0.1933
19988SOL     OW60541   8.328   7.481   0.251  0.1765 -0.1564 -0.0908
19988SOL    HW160542   8.316   7.394   0.212  2.1824  0.4856 -2.3850
19988SOL    HW260543   8.366   7.463   0.337 -0.0829 -1.5616 -0.2375
19989SOL     OW60544   6.406   9.861   5.721 -0.0843 -0.1405  0.7252
19989SOL    HW160545   6.352   9.824   5.791 -0.0165  0.7125  1.2495
19989SOL    HW260546   6.496   9.852   5.752  0.2779 -3.1107 -0.8877
19990SOL     OW60547   1.591   1.600   8.442  0.5049 -0.2130  0.5003
19990SOL    HW160548   1.678   1.572   8.472  0.9371  1.3794  0.8575
19990SOL    HW260549   1.591   1.581   8.348  1.2438 -0.2543  0.5017
19991SOL     OW60550   5.586   6.867   8.919  0.1761 -0.6349  0.2401
19991SOL    HW160551   5.603   6.789   8.866 -0.5244  0.6062 -1.9350
19991SOL    HW260552   5.666   6.919   8.910  0.4481 -0.8301  1.2927
19992SOL     OW60553   6.320   7.659   8.538 -0.0154  0.1585  0.1807
19992SOL    HW160554   6.411   7.688   8.535  0.3171 -0.7637  0.7258
19992SOL    HW260555   6.275   7.713   8.473  1.0715  0.1112 -0.6405
19993SOL     OW60556   5.680   4.452   0.820  0.6865  0.1475  0.5914
19993SOL    HW160557   5.603   4.504   0.796  0.5973  0.1951  0.9834
19993SOL    HW260558   5.732   4.510   0.875  1.6899  0.6055 -0.7651
19994SOL     OW60559   7.277   6.076   6.296  0.0950 -0.7084  0.1708
19994SOL    HW160560   7.262   6.168   6.274 -0.1421  0.3348  3.9173
19994SOL    HW260561   7.365   6.057   6.265  0.8535  1.4037  0.8619
19995SOL     OW60562   3.234   1.939   0.475 -0.2793  0.5890 -0.2879
19995SOL    HW160563   3.247   1.851   0.439  0.2403  0.3867  0.3773
19995SOL    HW260564   3.284   1.995   0.416  0.4768  0.2709  0.0278
19996SOL     OW60565   7.947   8.265   4.810 -0.4107 -0.0161 -0.3481
19996SOL    HW160566   8.012   8.212   4.763 -1.1870 -0.8089 -0.5506
19996SOL    HW260567   7.938   8.222   4.895 -0.6895  0.0759 -0.3308
19997SOL     OW60568   5.965   8.003   7.802  0.3366 -0.7303  0.4677
19997SOL    HW160569   5.977   7.909   7.801  0.5188 -0.7335 -1.6085
19997SOL    HW260570   5.875   8.016   7.772  0.8563 -0.2496 -1.0138
19998SOL     OW60571   2.753   2.830   7.271 -0.4498  0.2234 -0.3301
19998SOL    HW160572   2.658   2.844   7.275 -0.8308 -1.4497 -2.0214
19998SOL    HW260573   2.791   2.916   7.289 -2.2947  1.0572 -0.2027
19999SOL     OW60574   7.727   7.061   3.111  0.0014 -0.3621  0.0664
19999SOL    HW160575   7.692   6.982   3.153 -0.1548 -1.0630 -1.3301
19999SOL    HW260576   7.735   7.038   3.019 -1.2752  1.6715 -0.6254
20000SOL     OW60577   9.804   3.933   4.037  0.0684 -0.7422  0.5878
20000SOL    HW160578   9.820   3.864   4.101  0.6033 -1.0220  0.1614
20000SOL    HW260579   9.784   3.886   3.956  3.7274 -0.5367 -0.6110
20001SOL     OW60580   8.715   8.551   9.521  0.0340  0.6176  0.0256
20001SOL    HW160581   8.621   8.544   9.539  0.3689  0.5130  1.8140
20001SOL    HW260582   8.753   8.472   9.558  0.6210 -0.5054 -2.6870
20002SOL     OW60583   9.746   1.184   9.393 -0.0852  0.1609 -0.4183
20002SOL    HW160584   9.829   1.170   9.348  0.1394  0.4436 -0.0950
20002SOL    HW260585   9.708   1.260   9.349  0.7483  1.2769  0.7088
20003SOL     OW60586   0.093   0.650   3.392  0.5978  0.1451 -0.3132
20003SOL    HW160587   0.072   0.661   3.300 -0.3234 -0.4435 -0.1780
20003SOL    HW260588   0.105   0.556   3.403 -1.1666 -0.0173  0.5446
20004SOL     OW60589   4.410   5.867   3.638 -0.5513  0.1248  0.1316
20004SOL    HW160590   4.373   5.862   3.726  0.8201  0.5274  0.7542
20004SOL    HW260591   4.498   5.829   3.646 -0.5849 -0.3005 -1.1790
20005SOL     OW60592   8.856   0.882   8.727 -0.2557  0.1423 -0.1525
20005SOL    HW160593   8.885   0.921   8.645 -2.0328 -0.3610 -1.0678
20005SOL    HW260594   8.907   0.801   8.734  2.1253  1.6079  0.8518
20006SOL     OW60595   4.370   5.212   0.938 -0.7213 -0.2858 -0.2081
20006SOL    HW160596   4.462   5.186   0.938 -0.5599 -0.0676  2.9761
20006SOL    HW260597   4.325   5.139   0.896  0.6627 -1.4947  0.3246
20007SOL     OW60598   4.395   5.190   6.346 -0.2760 -0.2816  0.1479
20007SOL    HW160599   4.387   5.118   6.409 -3.5103  1.5988  2.2153
20007SOL    HW260600   4.324   5.174   6.283 -0.3363  0.5322  0.0013
20008SOL     OW60601   5.952   8.907   1.569 -0.3030 -0.1132  0.2070
20008SOL    HW160602   5.932   8.883   1.659  0.0070 -0.7634  0.1041
20008SOL    HW260603   6.036   8.867   1.551  0.0308  0.7031 -0.1115
20009SOL     OW60604   7.925   0.862   5.737 -0.0830 -0.0242  0.1615
20009SOL    HW160605   7.993   0.888   5.675 -1.1705  0.9630 -0.6528
20009SOL    HW260606   7.960   0.783   5.779  1.0802 -0.1784 -1.0273
20010SOL     OW60607   4.189   2.665   6.555 -0.4363 -0.1460  0.4281
20010SOL    HW160608   4.278   2.653   6.587 -1.0784 -3.0164  1.3736
20010SOL    HW260609   4.135   2.668   6.633 -1.5765 -2.8850 -0.1684
20011SOL     OW60610   1.188   9.455   0.750  0.0211  0.4352  0.2865
20011SOL    HW160611   1.173   9.493   0.836  0.1182  1.8704 -0.2887
20011SOL    HW260612   1.173   9.362   0.761 -0.0164  0.6022  1.8373
20012SOL     OW60613   8.570   9.307   9.626  0.0325  0.4685  0.3879
20012SOL    HW160614   8.479   9.279   9.616  1.0213 -4.3099  1.9983
20012SOL    HW260615   8.564   9.400   9.647 -4.5377  0.2698  1.0391
20013SOL     OW60616   4.070   3.468   3.360 -0.0163 -0.5439 -0.0380
20013SOL    HW160617   4.006   3.484   3.430 -0.2179  0.5479 -0.4588
20013SOL    HW260618   4.039   3.387   3.318 -0.7794 -0.3603  0.1480
20014SOL     OW60619   8.035   2.084   0.046 -0.0786 -0.0233  0.2887
20014SOL    HW160620   8.087   2.008   0.019 -1.4198 -1.4144  1.4585
20014SOL    HW260621   7.980   2.104  -0.030 -0.3577 -0.8028  0.2801
20015SOL     OW60622   1.084   2.639   0.968 -0.1394  0.3554 -0.1087
20015SOL    HW160623   1.085   2.709   1.033 -2.7858  0.2969  0.0921
20015SOL    HW260624   1.008   2.585   0.992  0.5273 -1.3207 -1.5659
20016SOL     OW60625   1.018   8.970   6.367 -0.1377  0.1158 -0.1408
20016SOL    HW160626   1.083   9.016   6.421 -0.2866  1.1544 -0.8072
20016SOL    HW260627   1.070   8.926   6.300 -0.0718  0.4780 -0.3325
20017SOL     OW60628   1.077   5.582   2.003 -0.3610 -0.0652  0.2356
20017SOL    HW160629   1.168   5.595   2.028  0.4855 -2.6219 -1.1071
20017SOL    HW260630   1.036   5.539   2.079 -0.4634  1.0607  0.8281
20018SOL     OW60631   5.089   0.827   6.066  0.0756 -0.2424  0.1394
20018SOL    HW160632   5.042   0.893   6.015 -1.5377 -0.7831  0.8733
20018SOL    HW260633   5.132   0.772   6.000 -0.1271  0.3926 -0.5369
20019SOL     OW60634   3.364   2.852   6.067 -0.2931 -0.2507 -0.0038
20019SOL    HW160635   3.327   2.877   6.152  0.0243  0.5180 -0.0810
20019SOL    HW260636   3.443   2.906   6.059 -0.1449 -0.5629 -0.6389
20020SOL     OW60637   9.545   1.566   4.409  0.5834 -0.4871  0.0168
20020SOL    HW160638   9.610   1.626   4.446  0.3402 -0.3343  0.2007
20020SOL    HW260639   9.583   1.538   4.326  1.2140 -0.9556  0.4491
20021SOL     OW60640   0.567   1.290   0.849 -0.1347  0.7121 -0.2507
20021SOL    HW160641   0.661   1.299   0.865 -0.2791  0.2595  0.9840
20021SOL    HW260642   0.561   1.223   0.780  0.5065  2.4912 -2.1340
20022SOL     OW60643   5.648   1.087   2.041 -0.4361 -0.6105  0.3406
20022SOL    HW160644   5.618   1.165   1.995 -0.5176  0.5632  2.3175
20022SOL    HW260645   5.736   1.109   2.071 -1.3468 -0.3250  2.9734
20023SOL     OW60646   6.185   0.648   6.559 -0.3013 -0.2655 -0.2730
20023SOL    HW160647   6.109   0.685   6.514 -1.5652 -2.4463 -0.0253
20023SOL    HW260648   6.213   0.575   6.504  1.1258 -0.0074  0.0654
20024SOL     OW60649   7.739   1.241   7.595  0.0310  0.0540  0.1001
20024SOL    HW160650   7.671   1.186   7.558  0.7607 -0.6429 -0.2413
20024SOL    HW260651   7.779   1.285   7.520  0.0336  0.3717  0.2843
20025SOL     OW60652   4.678   4.944   5.966  0.0534  0.0402 -0.2647
20025SOL    HW160653   4.750   4.971   6.022 -0.2571  2.0769 -0.7994
20025SOL    HW260654   4.607   5.006   5.985 -2.5724 -3.2468  2.0527
20026SOL     OW60655   6.953   2.213   6.077 -0.2827  0.5303  0.0777
20026SOL    HW160656   7.004   2.285   6.040 -0.4516  0.6942  0.1662
20026SOL    HW260657   6.922   2.245   6.162  0.7201 -0.1033  0.7063
20027SOL     OW60658   1.437   0.045   2.957 -0.5051 -0.3147  0.3994
20027SOL    HW160659   1.479   0.066   3.041  0.1563 -0.0043 -0.0013
20027SOL    HW260660   1.374  -0.024   2.978 -1.1648  0.5576  1.3570
20028SOL     OW60661   8.230   7.228   2.923 -0.2137 -0.8607 -0.4717
20028SOL    HW160662   8.198   7.139   2.911  1.0782 -1.2057 -1.5454
20028SOL    HW260663   8.325   7.218   2.937 -0.3631  0.1849  1.6854
20029SOL     OW60664   6.755   7.227   7.298 -0.2816 -0.7370  0.0745
20029SOL    HW160665   6.674   7.178   7.311 -0.1884 -0.8978  0.0622
20029SOL    HW260666   6.809   7.169   7.243  0.0777 -0.9011  0.5828
20030SOL     OW60667   4.410   9.057   3.368  0.2919 -0.3736  0.3244
20030SOL    HW160668   4.391   9.125   3.302  1.2386 -0.1255  0.3014
20030SOL    HW260669   4.324   9.033   3.402 -0.2253 -0.4747 -0.9729
20031SOL     OW60670   7.542   4.321   0.756  0.1172  0.5643  0.1149
20031SOL    HW160671   7.458   4.310   0.711 -0.3555  1.0621  0.8620
20031SOL    HW260672   7.566   4.232   0.783 -0.5636  0.5144  0.5921
20032SOL     OW60673   9.574   8.864   3.948  0.3995 -0.2968  0.1029
20032SOL    HW160674   9.497   8.840   3.895 -0.6597 -0.8128  1.8038
20032SOL    HW260675   9.643   8.805   3.919 -0.4203 -1.1753 -0.0950
20033SOL     OW60676   1.632   1.716   9.833 -0.3850  0.6458 -0.5285
20033SOL    HW160677   1.643   1.671   9.749  0.5727 -0.6832  0.2647
20033SOL    HW260678   1.671   1.656   9.897  1.2543  2.7336  0.5540
20034SOL     OW60679   0.268   8.856   8.375  0.2469 -0.1990 -0.0868
20034SOL    HW160680   0.264   8.946   8.342  0.4569 -0.3804 -0.6231
20034SOL    HW260681   0.286   8.866   8.469  2.1371  0.3096 -0.4532
20035SOL     OW60682   6.936   1.631   7.728  0.4550 -0.4644 -0.8149
20035SOL    HW160683   6.891   1.571   7.788 -0.2429  1.0235  0.1889
20035SOL    HW260684   7.029   1.615   7.743  0.3800 -3.1677 -2.4963
20036SOL     OW60685   2.257   6.469   7.751  0.5589  0.1943  0.0696
20036SOL    HW160686   2.221   6.447   7.665  1.2324 -0.8439  0.0445
20036SOL    HW260687   2.221   6.403   7.810  2.0567 -0.6111  0.1250
20037SOL     OW60688   7.414   5.086   0.934  0.4563 -0.6067  0.1055
20037SOL    HW160689   7.463   5.017   0.979 -0.1564 -1.0715  0.0780
20037SOL    HW260690   7.477   5.157   0.924  1.0609 -1.1070  0.2617
20038SOL     OW60691   5.092   0.846   3.226 -0.4611  0.2402 -0.0418
20038SOL    HW160692   5.088   0.783   3.153  0.5617 -0.6098  0.6062
20038SOL    HW260693   5.103   0.931   3.184 -0.2922 -0.1909 -0.8919
20039SOL     OW60694   0.714   2.392   7.743 -0.5383  0.0364 -0.2035
20039SOL    HW160695   0.650   2.422   7.679 -2.0649  0.9365  1.6344
20039SOL    HW260696   0.680   2.307   7.772  0.8365 -0.9953 -1.4249
20040SOL     OW60697   6.140   9.197   3.443 -0.1879 -0.2307 -0.3396
20040SOL    HW160698   6.183   9.245   3.373 -1.0604 -0.2173 -0.8904
20040SOL    HW260699   6.059   9.246   3.459  0.2910  0.1278  1.1247
20041SOL     OW60700   5.001   1.567   5.313 -0.3995  0.4947 -0.0308
20041SOL    HW160701   5.053   1.635   5.357 -1.6812  0.2151  2.0440
20041SOL    HW260702   4.995   1.596   5.222  0.1612  2.4990  0.5243
20042SOL     OW60703   5.187   1.887   8.869 -0.2647  0.0677  0.0414
20042SOL    HW160704   5.153   1.900   8.781 -1.1280  0.8003  0.4704
20042SOL    HW260705   5.209   1.794   8.872 -1.3513 -0.2302 -0.5669
20043SOL     OW60706   3.848   6.673   1.354  0.2270 -0.1407 -0.0336
20043SOL    HW160707   3.887   6.672   1.267 -0.5435  0.3127 -0.4063
20043SOL    HW260708   3.845   6.766   1.378 -1.8604  0.0117 -0.6329
20044SOL     OW60709   2.476   7.480   3.017 -0.4951  0.5390  0.0365
20044SOL    HW160710   2.400   7.461   2.961  0.6149  0.9191 -1.6998
20044SOL    HW260711   2.549   7.437   2.973  0.2436 -0.2259  1.9366
20045SOL     OW60712   1.634   2.380   3.110 -0.6572 -0.7107  0.4893
20045SOL    HW160713   1.611   2.454   3.166 -0.7319  0.2910 -0.8351
20045SOL    HW260714   1.654   2.309   3.171  0.0461  0.5789  1.7937
20046SOL     OW60715   1.373   8.360   8.706 -0.0314 -0.0775  0.1958
20046SOL    HW160716   1.352   8.441   8.659  0.9273 -0.4851 -0.9893
20046SOL    HW260717   1.456   8.379   8.751 -1.3165  0.5698  2.4605
20047SOL     OW60718   4.271   7.313   7.251 -0.5682 -0.4925 -0.4121
20047SOL    HW160719   4.314   7.308   7.337 -0.6559  2.5725 -0.0765
20047SOL    HW260720   4.179   7.294   7.269 -0.9564  2.0379  0.6221
20048SOL     OW60721   4.451   7.434   6.100 -0.0705 -0.0673  0.0486
20048SOL    HW160722   4.424   7.522   6.076 -1.1507 -0.0840  1.1224
20048SOL    HW260723   4.519   7.412   6.036 -0.1993  1.2999 -0.6031
20049SOL     OW60724   0.198   1.510   0.153 -0.1186 -0.6139 -0.4469
20049SOL    HW160725   0.118   1.523   0.102 -0.2327  0.5701  0.0035
20049SOL    HW260726   0.269   1.522   0.090 -0.2718 -1.7902 -0.8756
20050SOL     OW60727   1.981   0.625   2.026 -0.1958 -0.4885  0.6001
20050SOL    HW160728   1.967   0.651   2.117  0.0570  0.8124  0.2918
20050SOL    HW260729   1.895   0.633   1.984 -0.5536 -2.1494  0.9447
20051SOL     OW60730   0.610   6.250   8.461 -0.5513  0.5211 -0.2028
20051SOL    HW160731   0.609   6.330   8.409  1.3083  0.6763 -0.0639
20051SOL    HW260732   0.625   6.180   8.397  0.2158  0.5464 -0.0515
20052SOL     OW60733   8.588   7.086   4.233  0.1383  0.0171 -0.7219
20052SOL    HW160734   8.572   6.998   4.199 -2.5901  0.8319 -1.7890
20052SOL    HW260735   8.513   7.104   4.289  2.0607  0.6603  1.8348
20053SOL     OW60736   6.418   7.285   3.083  0.0128 -0.4103  0.4250
20053SOL    HW160737   6.427   7.286   2.988  0.9372 -1.2270  0.4879
20053SOL    HW260738   6.492   7.232   3.114 -0.2883 -0.1840  1.5950
20054SOL     OW60739   2.200   2.660   7.849 -0.3218 -0.1070  0.1719
20054SOL    HW160740   2.179   2.660   7.755 -0.5523 -1.1329  0.2038
20054SOL    HW260741   2.273   2.599   7.857 -2.2118 -2.4297  0.9949
20055SOL     OW60742   9.422   3.575   6.406  0.1182 -0.0043 -0.3761
20055SOL    HW160743   9.440   3.663   6.439 -0.7478  0.3845 -0.9264
20055SOL    HW260744   9.330   3.560   6.426 -0.0371 -0.3417 -1.3036
20056SOL     OW60745   2.635   5.498   8.412 -0.0231 -0.0359  0.2730
20056SOL    HW160746   2.720   5.456   8.397 -0.8004 -1.2021 -1.1318
20056SOL    HW260747   2.598   5.451   8.487 -0.0474 -0.5433 -0.0506
20057SOL     OW60748   9.512   9.713   0.310  0.0458 -0.5949 -0.1071
20057SOL    HW160749   9.570   9.670   0.374 -0.7484  0.2360  1.2063
20057SOL    HW260750   9.424   9.699   0.344 -0.4637 -0.8143 -1.4601
20058SOL     OW60751   0.658   1.602   2.118 -0.0888 -0.3045 -0.1989
20058SOL    HW160752   0.603   1.677   2.140  0.3489  0.2426 -0.9344
20058SOL    HW260753   0.647   1.591   2.024  0.7878 -0.3983 -0.3000
20059SOL     OW60754   4.161   7.004   9.801  0.1369  0.2623 -0.2537
20059SOL    HW160755   4.213   7.057   9.861  2.0447 -0.2424 -1.3630
20059SOL    HW260756   4.182   7.039   9.714 -0.3613 -0.8083 -0.8226
20060SOL     OW60757   6.314   8.350   4.552 -0.2631  0.5234 -0.6521
20060SOL    HW160758   6.241   8.411   4.554  1.1979  2.3038  0.2045
20060SOL    HW260759   6.358   8.361   4.636  0.8155 -0.7469 -1.0174
20061SOL     OW60760   4.662   2.558   8.616 -0.5180  0.3805 -0.6913
20061SOL    HW160761   4.595   2.611   8.659 -0.5932  0.0452 -0.3881
20061SOL    HW260762   4.623   2.471   8.609 -0.0701  0.1498 -0.3899
20062SOL     OW60763   6.061   1.866   1.588 -0.3460  0.2417 -0.5044
20062SOL    HW160764   6.029   1.829   1.506  0.0368 -0.8068 -0.1940
20062SOL    HW260765   5.984   1.909   1.627 -0.6716  0.2134 -1.1101
20063SOL     OW60766   9.121   0.226   8.726  0.4493  0.2415  0.8725
20063SOL    HW160767   9.049   0.178   8.767 -1.2274  1.5037 -0.4147
20063SOL    HW260768   9.198   0.202   8.777 -0.6745 -1.9741  1.7000
20064SOL     OW60769   1.185   4.887   6.864 -0.1518 -0.1222 -0.0810
20064SOL    HW160770   1.246   4.819   6.892 -0.1338  0.0087  0.2065
20064SOL    HW260771   1.214   4.912   6.777  0.9628  0.8021  0.5219
20065SOL     OW60772   2.994   8.867   0.260  0.0961 -0.0121 -0.0491
20065SOL    HW160773   3.007   8.777   0.230 -0.3650 -0.6661  1.5769
20065SOL    HW260774   3.052   8.920   0.206  1.8698 -1.5353  0.2951
20066SOL     OW60775   1.417   2.319   2.553 -0.4193  0.0188  0.2136
20066SOL    HW160776   1.344   2.378   2.534 -0.7752 -0.5252 -0.1532
20066SOL    HW260777   1.415   2.256   2.481 -0.0155 -0.4051  0.5725
20067SOL     OW60778   0.732   0.733   0.053  0.1894 -0.2507 -0.1829
20067SOL    HW160779   0.763   0.669  -0.012  0.9254  0.1970 -0.2853
20067SOL    HW260780   0.745   0.818   0.011  0.1084  0.0154  0.3249
20068SOL     OW60781   6.084   2.346   0.520 -0.2749  0.4600 -0.1647
20068SOL    HW160782   6.021   2.369   0.452 -0.1949 -2.5823 -1.4009
20068SOL    HW260783   6.032   2.338   0.600 -0.4627  3.4576  0.1285
20069SOL     OW60784   2.434   9.694   3.975  0.0842 -1.2054 -0.3108
20069SOL    HW160785   2.473   9.697   3.888 -0.8798 -1.1518 -0.7533
20069SOL    HW260786   2.490   9.634   4.024  1.6753  0.1250 -0.4237
20070SOL     OW60787   5.894   9.085   7.014 -0.0364  0.1944 -0.4918
20070SOL    HW160788   5.856   8.999   6.995  0.0969 -0.1581  0.7976
20070SOL    HW260789   5.891   9.093   7.109  0.0698  1.5739 -0.5835
20071SOL     OW60790   2.127   0.508   2.587  0.2646 -0.5515  0.0831
20071SOL    HW160791   2.098   0.548   2.669  2.1042 -0.3052  0.6401
20071SOL    HW260792   2.188   0.439   2.614 -0.6208 -1.8301 -1.0090
20072SOL     OW60793   0.909   9.105   8.151 -0.1998 -0.0022  0.5982
20072SOL    HW160794   0.848   9.032   8.141  1.1066 -1.1011  0.3279
20072SOL    HW260795   0.982   9.068   8.202  0.9836  0.7830 -0.4702
20073SOL     OW60796   0.477   0.828   8.917 -0.0673  0.6806 -0.4691
20073SOL    HW160797   0.439   0.799   8.834  2.2448 -1.7616 -0.7978
20073SOL    HW260798   0.515   0.914   8.898  1.5254 -0.3618 -2.3713
20074SOL     OW60799   6.950   9.503   3.648  0.0713  0.2014  1.4412
20074SOL    HW160800   6.860   9.528   3.667 -0.0321  0.3041  0.8195
20074SOL    HW260801   7.003   9.555   3.708 -0.2508  0.5020  1.4634
20075SOL     OW60802   7.967   1.072   4.111  0.2941  0.0775  0.0661
20075SOL    HW160803   7.916   1.123   4.174 -0.1007  1.2958 -1.1877
20075SOL    HW260804   7.924   1.089   4.027 -0.4020 -3.0302 -0.3413
20076SOL     OW60805   9.812   0.380   8.525  0.0112 -0.1197 -0.2345
20076SOL    HW160806   9.848   0.455   8.573 -0.6929  0.1874 -0.1593
20076SOL    HW260807   9.871   0.368   8.451  0.7719 -0.2094  0.3772
20077SOL     OW60808   7.836   6.800   3.000  0.1476  0.3021 -0.4460
20077SOL    HW160809   7.892   6.747   2.942  1.1539  0.3181  0.4837
20077SOL    HW260810   7.747   6.775   2.976  0.5761 -0.8195 -0.9506
20078SOL     OW60811   6.309   5.618   8.974 -0.4351  0.1275  0.3507
20078SOL    HW160812   6.270   5.540   9.013  0.0425  0.5157  1.6582
20078SOL    HW260813   6.236   5.676   8.955 -0.6776 -0.1100  0.5693
20079SOL     OW60814   7.617   8.516   5.033 -0.4409  1.1192  0.4615
20079SOL    HW160815   7.544   8.476   5.079 -0.7284  0.2363 -0.7341
20079SOL    HW260816   7.581   8.594   4.993 -1.0800  0.0183 -1.1882
20080SOL     OW60817   6.918   2.174   7.728 -0.4714  0.1404  0.1057
20080SOL    HW160818   6.889   2.084   7.746 -0.3438 -0.5733 -2.7059
20080SOL    HW260819   6.889   2.224   7.804 -1.4301 -2.0961  1.3233
20081SOL     OW60820   9.085   1.272   6.374  0.0189  0.2459  0.1180
20081SOL    HW160821   9.108   1.261   6.282 -2.0623 -3.3178 -0.1508
20081SOL    HW260822   9.039   1.356   6.377 -0.5326  0.1164 -2.2811
20082SOL     OW60823   5.152   6.574   0.049  0.2063 -0.1787 -0.4566
20082SOL    HW160824   5.137   6.664   0.079 -0.5960 -0.0760 -1.1367
20082SOL    HW260825   5.227   6.544   0.101 -1.0100  0.0399  1.5041
20083SOL     OW60826   2.973   5.206   4.877  0.1352 -0.2236  0.3513
20083SOL    HW160827   2.963   5.266   4.950 -0.0534  0.9079 -0.5808
20083SOL    HW260828   3.068   5.193   4.869  0.1040 -1.3920  1.5933
20084SOL     OW60829   8.269   3.290   9.320 -0.1138 -0.4371  0.0227
20084SOL    HW160830   8.218   3.214   9.348  0.2347 -1.0113 -0.8688
20084SOL    HW260831   8.313   3.262   9.240  1.0532  0.2747  0.3812
20085SOL     OW60832   4.483   6.567   2.223 -0.8227 -0.2447 -0.2823
20085SOL    HW160833   4.449   6.540   2.309 -1.6102  0.4628 -0.3529
20085SOL    HW260834   4.575   6.543   2.225 -0.0259  2.4483  1.9655
20086SOL     OW60835   0.313   0.114   9.309  0.3687 -0.3681 -0.6356
20086SOL    HW160836   0.250   0.081   9.374  0.0116  0.7832 -0.3861
20086SOL    HW260837   0.281   0.200   9.285  0.2246 -0.9610 -2.7479
20087SOL     OW60838   1.173   5.609   6.838 -0.3517  0.0852 -0.0987
20087SOL    HW160839   1.123   5.567   6.768 -1.3675  2.1189 -0.6527
20087SOL    HW260840   1.258   5.628   6.798 -0.0577 -0.9417  0.0065
20088SOL     OW60841   2.026   4.309   2.366 -0.2461  0.3907  0.1845
20088SOL    HW160842   2.071   4.226   2.381 -1.3209 -0.3132 -0.3219
20088SOL    HW260843   2.040   4.327   2.273 -1.0663  0.1061 -0.0062
20089SOL     OW60844   0.738   8.325   4.657  0.1610 -0.4642  0.3302
20089SOL    HW160845   0.758   8.234   4.637  0.1321 -0.3336 -0.3218
20089SOL    HW260846   0.734   8.329   4.753  0.9290 -0.9768  0.3899
20090SOL     OW60847   9.098   1.548   2.149 -0.4747  0.2779  0.5458
20090SOL    HW160848   9.023   1.489   2.154 -0.7572  0.6982  1.7430
20090SOL    HW260849   9.156   1.519   2.219 -0.8175  1.6584  1.4495
20091SOL     OW60850   1.310   4.262   2.255  0.0956  0.0376 -0.2419
20091SOL    HW160851   1.215   4.258   2.249  0.0510  0.0250  0.3973
20091SOL    HW260852   1.327   4.336   2.314  0.4196 -1.1500  1.1967
20092SOL     OW60853   0.771   2.639   9.000  0.3346  0.8654  0.5686
20092SOL    HW160854   0.753   2.659   9.092  0.3792 -0.1457  0.8155
20092SOL    HW260855   0.732   2.553   8.986  0.2207  1.0602 -0.4022
20093SOL     OW60856   9.614   5.212   2.668 -0.0091 -0.2711  0.0347
20093SOL    HW160857   9.643   5.300   2.642 -2.2309  0.1768 -1.2111
20093SOL    HW260858   9.691   5.156   2.652  1.0905  1.2408 -0.2650
20094SOL     OW60859   9.564   3.065   6.539 -0.4251  0.2353  0.0121
20094SOL    HW160860   9.610   3.024   6.466  0.5212  1.2490  0.0172
20094SOL    HW260861   9.624   3.132   6.571 -1.0867  0.2296  1.3283
20095SOL     OW60862   7.048   9.622   5.587 -0.0730 -0.0796 -0.0302
20095SOL    HW160863   6.968   9.657   5.547 -1.2145 -0.3633  1.8916
20095SOL    HW260864   7.106   9.697   5.594 -1.2240  0.7601  0.9907
20096SOL     OW60865   0.637   9.043   7.287  0.0782 -0.0827 -0.5651
20096SOL    HW160866   0.677   9.087   7.361 -0.9197 -1.7179  1.0412
20096SOL    HW260867   0.618   9.113   7.225  4.1057  0.9522 -0.9104
20097SOL     OW60868   7.653   4.903   0.883  0.3256  0.1397  1.1711
20097SOL    HW160869   7.748   4.908   0.893  0.2067 -0.8176  3.4816
20097SOL    HW260870   7.623   4.858   0.962 -1.8402 -1.7594 -0.5862
20098SOL     OW60871   1.139   5.913   6.966  0.7590 -0.4023 -0.1331
20098SOL    HW160872   1.171   5.927   6.877 -0.0403 -0.1653 -0.3988
20098SOL    HW260873   1.136   5.818   6.976  0.9193 -0.4291 -0.3346
20099SOL     OW60874   8.268   5.964   8.556  0.4697 -0.0042 -0.4049
20099SOL    HW160875   8.321   5.984   8.632 -0.6142 -0.9778  0.6582
20099SOL    HW260876   8.304   5.882   8.522  0.8671  0.3576 -0.8730
20100SOL     OW60877   0.309   1.115   7.010  0.1227  0.0867 -0.1862
20100SOL    HW160878   0.383   1.174   6.995  0.0158  0.2715  0.0101
20100SOL    HW260879   0.266   1.108   6.924  1.5137 -1.6116 -0.8173
20101SOL     OW60880   5.812   4.054   6.117 -0.2572  0.0914 -0.3413
20101SOL    HW160881   5.836   3.961   6.120 -0.5777 -0.0592 -1.8315
20101SOL    HW260882   5.721   4.054   6.086 -0.5131  0.8832  0.3654
20102SOL     OW60883   8.286   3.220   5.087  0.1866 -0.1603  0.2472
20102SOL    HW160884   8.208   3.192   5.135  0.2966  0.6538  0.9252
20102SOL    HW260885   8.278   3.315   5.082  0.6256 -0.1582 -0.5867
20103SOL     OW60886   8.135   4.721   7.454  0.6000 -0.4595  0.3912
20103SOL    HW160887   8.089   4.684   7.529 -1.3124  0.8821 -0.0306
20103SOL    HW260888   8.179   4.798   7.489 -0.1826  0.0900  0.2089
20104SOL     OW60889   8.744   4.385   8.805  0.0236  0.0653  0.0004
20104SOL    HW160890   8.777   4.462   8.851 -0.3961 -0.9577  2.1085
20104SOL    HW260891   8.726   4.322   8.874 -0.2645 -1.7023 -1.6269
20105SOL     OW60892   3.519   5.133   1.105 -0.0594  0.6935 -0.1737
20105SOL    HW160893   3.459   5.093   1.168  0.4798  1.5213  0.8971
20105SOL    HW260894   3.474   5.213   1.076 -0.5515  0.0345 -1.2935
20106SOL     OW60895   9.246   9.442   2.071  0.3979 -0.1089  0.3662
20106SOL    HW160896   9.313   9.505   2.099 -0.1846 -0.2948  2.3177
20106SOL    HW260897   9.203   9.484   1.997  0.0324  1.8314  1.6008
20107SOL     OW60898   8.774   6.898   7.557  0.6046 -0.6356 -0.5936
20107SOL    HW160899   8.792   6.988   7.587 -0.5698  0.0256 -1.7969
20107SOL    HW260900   8.728   6.857   7.630  0.5515 -0.0439 -0.2888
20108SOL     OW60901   0.040   0.290   4.913  0.4184 -0.7678  0.1434
20108SOL    HW160902  -0.027   0.263   4.976  0.3006 -1.5861 -0.3313
20108SOL    HW260903   0.055   0.382   4.934 -0.2752 -0.7850  0.7796
20109SOL     OW60904   2.483   7.779   6.724 -0.1396  0.0763  0.2253
20109SOL    HW160905   2.485   7.729   6.806 -0.4202 -2.2904 -1.1404
20109SOL    HW260906   2.478   7.870   6.753 -0.1001 -0.6530  2.8393
20110SOL     OW60907   0.105   8.413   0.188 -0.0844 -0.5374 -0.3554
20110SOL    HW160908   0.199   8.414   0.203 -0.0909 -1.3399 -0.2142
20110SOL    HW260909   0.085   8.500   0.153  0.8249 -0.6233 -1.1286
20111SOL     OW60910   7.481   3.778   9.932  0.2932 -0.0041  0.4916
20111SOL    HW160911   7.405   3.722   9.948 -0.9700  1.8783  1.3944
20111SOL    HW260912   7.467   3.812   9.843  0.2421  0.1116  0.5445
20112SOL     OW60913   9.151   6.328   7.757  0.4854  0.0732 -0.4957
20112SOL    HW160914   9.164   6.413   7.798 -0.6156 -0.3831  0.8750
20112SOL    HW260915   9.062   6.332   7.721  1.1052  0.1467 -2.1199
20113SOL     OW60916   5.654   5.986   3.618 -0.3384  0.1166  0.6843
20113SOL    HW160917   5.740   6.016   3.586 -0.4288  0.8611  1.1102
20113SOL    HW260918   5.665   5.892   3.630  0.6140  0.2848  1.2916
20114SOL     OW60919   3.552   0.094   8.342  0.5001  0.1478 -0.3445
20114SOL    HW160920   3.470   0.143   8.348 -0.7582 -1.8917  0.1194
20114SOL    HW260921   3.590   0.098   8.430  1.4253  1.8664 -0.7814
20115SOL     OW60922   3.494   2.493   8.195  0.1473  0.9949 -0.2355
20115SOL    HW160923   3.520   2.483   8.103  1.9341  1.8010  0.1344
20115SOL    HW260924   3.402   2.465   8.197  0.2850  0.2403 -2.1105
20116SOL     OW60925   6.434   8.789   3.508 -0.1734 -0.1423 -0.5577
20116SOL    HW160926   6.488   8.760   3.434  1.9022  0.7669  0.5184
20116SOL    HW260927   6.438   8.885   3.506 -0.4426 -0.0884  0.4717
20117SOL     OW60928   9.487   0.841   9.549 -0.1172  0.1416  0.0474
20117SOL    HW160929   9.542   0.809   9.620  1.8733  0.3430 -1.3192
20117SOL    HW260930   9.400   0.848   9.587  0.3240 -2.3490  1.6931
20118SOL     OW60931   8.926   3.021   8.313 -0.0036 -0.4144  0.4021
20118SOL    HW160932   8.833   3.037   8.329  0.0024 -1.3705  1.4944
20118SOL    HW260933   8.970   3.101   8.343 -0.5560  0.6936 -1.5650
20119SOL     OW60934   3.342   4.617   8.078  0.4925 -0.1554  0.0650
20119SOL    HW160935   3.254   4.619   8.117  0.1434 -1.6079 -0.5658
20119SOL    HW260936   3.372   4.708   8.081 -1.0724  0.3882  0.2018
20120SOL     OW60937   7.229   2.149   7.460 -0.1600  0.1711  0.0256
20120SOL    HW160938   7.180   2.230   7.465 -0.6464  0.0967 -2.4757
20120SOL    HW260939   7.306   2.164   7.515 -1.1053  1.6568  1.0034
20121SOL     OW60940   1.905   3.513   7.714 -0.3051  0.1038 -0.3333
20121SOL    HW160941   1.930   3.449   7.647  1.2372  1.3161 -0.9744
20121SOL    HW260942   1.988   3.547   7.747 -1.0378  2.5053 -0.7517
20122SOL     OW60943   8.277   4.250   5.223 -0.0943  0.3345  0.4177
20122SOL    HW160944   8.323   4.173   5.255  0.6449  0.6565  0.1466
20122SOL    HW260945   8.202   4.259   5.282 -0.8133 -1.2145 -0.2000
20123SOL     OW60946   6.424   2.937   3.802 -0.4248 -0.4973 -0.3371
20123SOL    HW160947   6.492   2.945   3.736  0.8844  0.7931  1.0869
20123SOL    HW260948   6.416   3.024   3.840 -0.6322 -1.3199  1.6540
20124SOL     OW60949   4.540   2.572   1.351 -0.4483  0.0547  0.0072
20124SOL    HW160950   4.601   2.515   1.305 -1.8537 -0.8394 -0.8209
20124SOL    HW260951   4.470   2.513   1.382 -1.2409  1.1262  0.3406
20125SOL     OW60952   3.300   7.010   1.198  0.0981  0.5985 -0.4635
20125SOL    HW160953   3.349   6.959   1.134  3.5087  1.7240  0.9939
20125SOL    HW260954   3.323   7.101   1.179 -0.7125  1.1275  0.9002
20126SOL     OW60955   5.601   6.683   8.007 -0.4971 -0.0931  0.2968
20126SOL    HW160956   5.652   6.705   8.085 -0.8741 -1.0165  0.8199
20126SOL    HW260957   5.554   6.603   8.031 -0.5391 -0.4480 -0.9118
20127SOL     OW60958   8.736   7.971   1.812  0.0394  0.3151 -0.6547
20127SOL    HW160959   8.674   8.004   1.877  0.7108 -0.3524  0.3382
20127SOL    HW260960   8.779   7.897   1.854 -0.0447 -0.6247 -2.1372
20128SOL     OW60961   5.360   4.818   2.895  0.0846 -0.2701 -0.9283
20128SOL    HW160962   5.297   4.778   2.835  0.5779 -0.0091 -1.6330
20128SOL    HW260963   5.311   4.888   2.938 -0.6749 -1.3541  0.0349
20129SOL     OW60964   7.492   3.290   5.435  0.6114 -0.1567 -0.1789
20129SOL    HW160965   7.415   3.342   5.459  0.8094 -0.3953  1.0315
20129SOL    HW260966   7.456   3.203   5.417  0.4759 -0.0096 -0.6293
20130SOL     OW60967   3.399   0.939   8.304  0.5042  0.0589 -0.2175
20130SOL    HW160968   3.388   0.847   8.282 -0.2147 -0.4104  1.9450
20130SOL    HW260969   3.435   0.978   8.224  2.2194 -2.3433 -0.7360
20131SOL     OW60970   4.973   5.503   1.625  0.2033  0.4102  0.4686
20131SOL    HW160971   5.045   5.508   1.562 -0.0530 -0.0518  0.1353
20131SOL    HW260972   4.908   5.565   1.591 -0.4714 -0.7419 -0.4324
20132SOL     OW60973   0.542   3.950   0.755  0.1998  0.2800  0.0530
20132SOL    HW160974   0.601   4.010   0.800  2.7818 -1.8851 -0.1768
20132SOL    HW260975   0.575   3.948   0.665  1.1504 -2.4362  0.3719
20133SOL     OW60976   3.013   2.894   2.409 -0.1147 -0.4241  0.5924
20133SOL    HW160977   2.938   2.841   2.380  0.4533  0.1765 -2.2876
20133SOL    HW260978   3.080   2.830   2.433 -0.4906 -1.0009  0.1441
20134SOL     OW60979   7.222   8.130   8.304  0.2024 -0.2693 -0.2232
20134SOL    HW160980   7.241   8.043   8.340 -0.3688 -0.2920  0.0342
20134SOL    HW260981   7.303   8.180   8.320  0.1972 -0.4713  0.5078
20135SOL     OW60982   3.019   7.093   2.384  0.8673  0.1792 -0.3183
20135SOL    HW160983   3.109   7.113   2.359  0.7003  1.6848  0.1566
20135SOL    HW260984   2.976   7.179   2.389  0.1518 -0.2363  2.2074
20136SOL     OW60985   3.490   9.403   3.328 -0.1387 -0.3544  0.5261
20136SOL    HW160986   3.404   9.441   3.308 -0.1104  0.0453  1.1177
20136SOL    HW260987   3.470   9.316   3.361 -0.4970  0.4155  2.4975
20137SOL     OW60988   2.328   1.391   1.998 -0.1964 -0.4260 -0.4500
20137SOL    HW160989   2.282   1.453   2.055 -2.3297 -0.2813 -2.1924
20137SOL    HW260990   2.342   1.439   1.916  0.1668 -1.5235 -1.0538
20138SOL     OW60991   0.536   5.111   6.303 -0.1112 -0.0086 -0.2705
20138SOL    HW160992   0.476   5.071   6.366  0.2541 -2.4165 -1.3240
20138SOL    HW260993   0.481   5.129   6.227 -0.0829  0.6897 -0.1330
20139SOL     OW60994   2.118   0.531   1.257  0.0227 -0.1654  0.2200
20139SOL    HW160995   2.060   0.600   1.224  1.3000 -0.3391 -2.6034
20139SOL    HW260996   2.069   0.450   1.244  0.3197 -0.1841 -0.8668
20140SOL     OW60997   4.842   5.308   8.283 -0.2376  0.2794  0.1753
20140SOL    HW160998   4.875   5.372   8.220  2.4455 -0.3077  0.8507
20140SOL    HW260999   4.875   5.338   8.367  0.5295 -1.5981  0.5901
20141SOL     OW61000   9.447   5.440   0.129 -0.2234 -0.2161 -0.1462
20141SOL    HW161001   9.400   5.398   0.057 -0.0051 -0.6714 -0.0291
20141SOL    HW261002   9.520   5.486   0.087 -0.0558 -0.5393 -0.2089
20142SOL     OW61003   4.112   3.359   5.345 -0.2454  0.6761 -0.1678
20142SOL    HW161004   4.074   3.415   5.276  0.8641  0.4276 -1.0012
20142SOL    HW261005   4.169   3.418   5.394  0.5940  0.3892 -0.7818
20143SOL     OW61006   0.342   5.730   5.160  0.1492  0.0015  0.3355
20143SOL    HW161007   0.395   5.656   5.128 -0.4593  0.0599 -0.8287
20143SOL    HW261008   0.369   5.804   5.106  0.0237  0.4048  0.8229
20144SOL     OW61009   4.305   1.290   0.274  0.3776  0.2115 -0.3175
20144SOL    HW161010   4.213   1.314   0.258 -0.7423 -2.1635  1.7396
20144SOL    HW261011   4.332   1.246   0.193 -0.5413  0.3162 -0.7013
20145SOL     OW61012   3.655   1.117   1.097 -0.0055 -0.2175  0.7166
20145SOL    HW161013   3.746   1.092   1.081 -0.1688  0.9775 -2.8298
20145SOL    HW261014   3.656   1.213   1.097 -1.2018 -0.1933  1.0342
20146SOL     OW61015   7.013   3.864   0.627 -0.1040 -0.4655 -0.0384
20146SOL    HW161016   6.923   3.844   0.654 -0.6444  0.5348 -1.0318
20146SOL    HW261017   7.067   3.834   0.700 -1.3481  0.2169  1.2140
20147SOL     OW61018   0.240   5.344   1.496 -0.4008 -0.4016 -0.2526
20147SOL    HW161019   0.204   5.326   1.583 -0.2460 -0.6509 -0.2374
20147SOL    HW261020   0.299   5.271   1.480  1.1807  0.7045  0.3121
20148SOL     OW61021   6.966   9.184   0.484  0.5562 -0.1315 -0.8691
20148SOL    HW161022   6.970   9.114   0.419 -1.5799 -1.5978  0.4451
20148SOL    HW261023   6.873   9.191   0.505  0.9508  1.7858  0.4826
20149SOL     OW61024   2.060   2.402   0.788  0.5289  0.0467  0.7282
20149SOL    HW161025   1.974   2.428   0.756  0.6677  0.1763  0.4620
20149SOL    HW261026   2.106   2.369   0.711  0.3685 -0.9643  1.0457
20150SOL     OW61027   0.163   0.945   5.369  0.0580  0.0102 -0.7960
20150SOL    HW161028   0.107   0.903   5.434  0.8736  0.1269  0.0056
20150SOL    HW261029   0.200   0.873   5.318  1.3793 -0.2683  0.5109
20151SOL     OW61030   9.334   9.026   5.375  0.2303 -0.1405  0.2795
20151SOL    HW161031   9.338   8.966   5.449 -0.2324  0.3164  0.6870
20151SOL    HW261032   9.425   9.044   5.353  0.3725 -0.0011  0.9713
20152SOL     OW61033   5.758   4.168   7.591 -0.3667  0.1225  0.2967
20152SOL    HW161034   5.770   4.233   7.660  0.6210  1.5036 -1.1071
20152SOL    HW261035   5.834   4.179   7.534 -0.0959 -2.3724  0.0474
20153SOL     OW61036   1.959   9.352   8.418 -0.2267 -0.0545 -0.3969
20153SOL    HW161037   1.992   9.439   8.395 -1.5614  0.2665 -1.2342
20153SOL    HW261038   1.959   9.304   8.335 -1.4488 -0.1592 -0.3628
20154SOL     OW61039   3.859   5.548   7.068 -0.6031  0.2932  0.0798
20154SOL    HW161040   3.804   5.471   7.079  0.4917 -0.4642  0.5353
20154SOL    HW261041   3.910   5.530   6.989 -0.7946  0.8421 -0.1735
20155SOL     OW61042   6.946   7.213   4.792 -0.2529 -0.0105 -0.5083
20155SOL    HW161043   6.902   7.131   4.769 -1.9899 -0.0678  2.5038
20155SOL    HW261044   6.876   7.278   4.796  0.4515  0.7246  0.8953
20156SOL     OW61045   9.714   7.810   7.175 -0.2134 -0.1362 -0.5126
20156SOL    HW161046   9.781   7.780   7.114  1.2262 -0.5658  1.2189
20156SOL    HW261047   9.633   7.807   7.125  0.9783  0.0335 -2.5540
20157SOL     OW61048   2.612   1.711   9.051 -0.2183 -0.5586  0.2293
20157SOL    HW161049   2.698   1.754   9.045 -0.3224 -0.2399  0.9534
20157SOL    HW261050   2.607   1.657   8.972 -1.1627  2.6972 -2.1731
20158SOL     OW61051   0.818   9.638   6.963 -0.3454 -0.9096  0.3180
20158SOL    HW161052   0.820   9.598   6.876  4.0294 -2.0527  0.7189
20158SOL    HW261053   0.909   9.660   6.981 -1.5374  2.3716  3.3260
20159SOL     OW61054   1.153   6.534   9.071  0.6000 -0.4565 -0.1732
20159SOL    HW161055   1.081   6.592   9.096 -0.6118 -1.5916 -0.8880
20159SOL    HW261056   1.178   6.564   8.983 -1.0357 -1.8846 -1.1796
20160SOL     OW61057   4.396   8.892   5.730 -0.2922 -0.1774  0.0637
20160SOL    HW161058   4.407   8.819   5.791  0.1068  0.4492  0.7676
20160SOL    HW261059   4.434   8.967   5.776  0.3210  0.2551 -1.1048
20161SOL     OW61060   6.171   9.727   5.487  0.3772  0.3293 -0.0300
20161SOL    HW161061   6.085   9.710   5.450  0.3095 -0.4052  0.4486
20161SOL    HW261062   6.176   9.823   5.492 -0.6524  0.3701  0.4828
20162SOL     OW61063   8.273   0.820   8.900 -0.2045 -0.2193 -0.2262
20162SOL    HW161064   8.325   0.739   8.892 -0.4287 -0.2769 -1.3644
20162SOL    HW261065   8.184   0.790   8.916 -0.7694 -0.3753 -3.0383
20163SOL     OW61066   9.025   0.163   9.389 -0.1833 -0.2776 -0.0473
20163SOL    HW161067   8.976   0.150   9.308 -3.0834 -0.5522  1.5844
20163SOL    HW261068   9.036   0.257   9.396 -2.7003  0.0437  0.6254
20164SOL     OW61069   3.307   6.045   7.828 -0.4013  0.0960  0.3948
20164SOL    HW161070   3.227   6.034   7.778 -1.6870  1.8895  1.9118
20164SOL    HW261071   3.337   6.133   7.806 -0.3148  0.4395  1.8055
20165SOL     OW61072   2.992   8.310   4.091 -0.2998 -0.4840  0.1759
20165SOL    HW161073   3.007   8.246   4.161 -0.6743  0.8496  1.5221
20165SOL    HW261074   3.059   8.290   4.026  0.3071 -1.5325  1.0882
20166SOL     OW61075   9.844   9.323   9.468 -0.2950 -0.0584  0.6403
20166SOL    HW161076   9.889   9.256   9.518  0.9727  1.4645  1.6199
20166SOL    HW261077   9.760   9.282   9.443 -0.6106 -1.1650  3.2492
20167SOL     OW61078   3.553   1.961   5.161 -0.2722 -0.1311  0.2987
20167SOL    HW161079   3.502   1.914   5.227  0.6087  1.3465  2.0875
20167SOL    HW261080   3.610   2.019   5.210  1.5991 -0.1162 -1.7172
20168SOL     OW61081   7.983   2.515   1.900  0.2351  0.0700 -0.0500
20168SOL    HW161082   7.916   2.449   1.881  0.4860  0.0110 -0.7497
20168SOL    HW261083   8.040   2.474   1.965 -1.0396  0.5331  1.4306
20169SOL     OW61084   5.770   4.954   2.534  0.2733 -0.4346 -0.1830
20169SOL    HW161085   5.858   4.988   2.517 -0.5948  0.5223 -3.3617
20169SOL    HW261086   5.770   4.867   2.494 -0.9090  0.5993 -2.5927
20170SOL     OW61087   9.800   9.278   6.625 -0.6658  0.0607 -0.1042
20170SOL    HW161088   9.819   9.361   6.583 -1.2267 -0.6836 -1.9223
20170SOL    HW261089   9.850   9.281   6.707  2.6490  0.5357 -1.9417
20171SOL     OW61090   1.916   7.082   3.555 -0.0166 -0.0694  0.2966
20171SOL    HW161091   1.840   7.060   3.609  0.1969  0.6814  0.9278
20171SOL    HW261092   1.987   7.095   3.618  0.1729  1.0877 -0.1266
20172SOL     OW61093   2.011   2.024   0.880 -0.2374 -0.1521  0.1869
20172SOL    HW161094   2.078   2.035   0.812  1.9694 -1.0160  2.1145
20172SOL    HW261095   1.939   2.080   0.851  2.4346  3.2092 -0.5495
20173SOL     OW61096   7.347   7.152   0.776  0.2230 -0.4189  0.2484
20173SOL    HW161097   7.333   7.223   0.839 -0.0442 -1.6982  1.6852
20173SOL    HW261098   7.440   7.131   0.784  0.3630 -0.0629 -0.3783
20174SOL     OW61099   3.923   6.002   1.553 -0.9091 -0.1057 -0.1380
20174SOL    HW161100   3.926   5.907   1.543 -0.9308 -0.0409 -0.8537
20174SOL    HW261101   4.012   6.031   1.533 -1.4428  0.2083 -2.4086
20175SOL     OW61102   5.814   0.293   3.314  0.0715  0.0328  0.2060
20175SOL    HW161103   5.841   0.281   3.405  0.0400 -2.1201 -0.0330
20175SOL    HW261104   5.747   0.227   3.299 -1.0577  1.3516 -0.9743
20176SOL     OW61105   9.440   1.952   3.590  0.4388 -0.4107  0.3591
20176SOL    HW161106   9.443   1.874   3.534  0.7539  0.3532 -0.7194
20176SOL    HW261107   9.487   1.926   3.669  1.6270 -0.9451 -0.4931
20177SOL     OW61108   4.069   4.475   5.552  0.8514  0.8752 -0.3203
20177SOL    HW161109   3.992   4.422   5.573  0.6119  1.6789  0.9600
20177SOL    HW261110   4.035   4.545   5.495  0.6200  1.2117  0.2192
20178SOL     OW61111   3.028   0.559   1.047  0.3615 -0.1240  0.1923
20178SOL    HW161112   2.944   0.570   1.003 -0.0135 -0.0952  0.8907
20178SOL    HW261113   3.037   0.464   1.060  0.6746 -0.1656 -0.3316
20179SOL     OW61114   3.602   5.190   8.668  0.4409  0.5826  0.0704
20179SOL    HW161115   3.533   5.247   8.702 -1.1414  1.7135 -4.3386
20179SOL    HW261116   3.556   5.117   8.628  2.1415 -0.8953  0.6688
20180SOL     OW61117   9.180   9.540   9.559 -0.0632 -1.1657  0.2155
20180SOL    HW161118   9.219   9.571   9.478 -0.8682 -0.3100  0.1328
20180SOL    HW261119   9.232   9.580   9.629 -0.8725  0.1245  0.1075
20181SOL     OW61120   1.629   7.474   9.305  0.2900 -0.3738  0.2071
20181SOL    HW161121   1.710   7.523   9.320  0.1678 -0.1297  0.0774
20181SOL    HW261122   1.625   7.463   9.210  0.5186 -0.9874  0.2620
20182SOL     OW61123   3.770   5.347   4.574 -0.2841 -0.5195  0.2562
20182SOL    HW161124   3.740   5.376   4.660 -0.4620 -1.7430  0.6330
20182SOL    HW261125   3.697   5.368   4.516  0.6295  2.2175 -0.0537
20183SOL     OW61126   8.449   9.470   5.469  0.3260  0.0427  0.0375
20183SOL    HW161127   8.471   9.472   5.563  1.8288 -1.2183 -0.2407
20183SOL    HW261128   8.476   9.382   5.441  2.3325  1.2688 -2.1327
20184SOL     OW61129   7.215   0.276   5.991 -0.1036  0.1719 -0.4359
20184SOL    HW161130   7.154   0.350   5.985  0.0496  0.4958  1.2940
20184SOL    HW261131   7.299   0.313   5.965 -0.2940  0.2136 -1.0081
20185SOL     OW61132   4.721   4.753   8.645 -0.0213 -0.2508  0.9562
20185SOL    HW161133   4.652   4.692   8.619  0.6737 -1.0571  0.9531
20185SOL    HW261134   4.688   4.839   8.620 -1.2227 -0.5721  1.3892
20186SOL     OW61135   5.490   6.026   5.785  0.5232 -0.2003  0.6565
20186SOL    HW161136   5.406   6.003   5.745  1.6106 -2.3056 -0.5834
20186SOL    HW261137   5.510   5.952   5.843  2.6366 -1.0067 -0.9669
20187SOL     OW61138   6.358   9.955   6.311  0.2337  0.5067  0.1855
20187SOL    HW161139   6.396   9.955   6.223  0.3843 -2.1448  0.1626
20187SOL    HW261140   6.264   9.950   6.297  0.3015 -1.0195  0.1121
20188SOL     OW61141   2.334   1.829   2.051  0.0516 -0.1152  0.3009
20188SOL    HW161142   2.284   1.804   2.129  0.9330 -0.9150  0.6428
20188SOL    HW261143   2.295   1.778   1.980 -1.4382  1.3949 -0.0302
20189SOL     OW61144   5.865   4.750   9.584 -0.1796  0.1466 -0.0296
20189SOL    HW161145   5.820   4.734   9.501 -0.9376 -1.3983  0.6461
20189SOL    HW261146   5.859   4.845   9.596 -0.4362  0.3468 -1.5098
20190SOL     OW61147   8.975   9.553   8.507  0.4207 -0.1044 -0.1175
20190SOL    HW161148   8.935   9.526   8.590 -0.3316  1.7720  0.1851
20190SOL    HW261149   8.924   9.507   8.440  1.1314 -1.7544  0.4282
20191SOL     OW61150   5.329   3.149   0.208 -0.4139 -0.9175 -0.1134
20191SOL    HW161151   5.311   3.192   0.124  0.3174 -0.0144  0.1724
20191SOL    HW261152   5.402   3.089   0.189  1.2781  0.8892  0.2923
20192SOL     OW61153   6.097   5.936   4.324  0.3565  0.2403  0.9971
20192SOL    HW161154   6.009   5.926   4.289  0.6561 -3.1374  0.8883
20192SOL    HW261155   6.131   6.015   4.283 -2.6065  1.7058  1.1515
20193SOL     OW61156   8.984   4.434   5.843 -0.1309  0.1994  0.6719
20193SOL    HW161157   8.990   4.345   5.809 -0.7310  0.3897  0.0397
20193SOL    HW261158   8.903   4.435   5.894 -0.6901  0.6484 -0.1902
20194SOL     OW61159   9.015   0.948   3.834 -0.1133  0.5064  0.1332
20194SOL    HW161160   9.088   0.914   3.783 -0.5935  1.3561 -1.1780
20194SOL    HW261161   8.964   0.871   3.859 -1.1034  0.1501 -2.6361
20195SOL     OW61162   1.369   2.114   3.047  0.2075  0.4686  0.3217
20195SOL    HW161163   1.385   2.120   2.952 -0.5228 -1.8454 -0.0064
20195SOL    HW261164   1.291   2.059   3.054 -0.6931  1.8962  2.2516
20196SOL     OW61165   8.381   1.002   9.772 -0.1864  0.2802  0.2537
20196SOL    HW161166   8.442   0.935   9.742  1.4083  1.9271 -0.3555
20196SOL    HW261167   8.332   0.960   9.843  1.1777 -1.3277  0.3013
20197SOL     OW61168   8.984   4.122   2.508 -0.3059 -0.0973 -0.0652
20197SOL    HW161169   8.964   4.091   2.596  2.1711  2.5085  1.5694
20197SOL    HW261170   9.078   4.109   2.498 -0.4058  0.3041 -2.0965
20198SOL     OW61171   7.733   1.161   1.387  0.5357  0.1786  0.1910
20198SOL    HW161172   7.821   1.171   1.352  1.9456 -2.0390  2.7039
20198SOL    HW261173   7.742   1.181   1.480 -1.6817  0.1122  0.4728
20199SOL     OW61174   5.640   2.886   7.932 -0.0559  0.1600  0.1443
20199SOL    HW161175   5.609   2.944   8.002  2.3186 -0.9330  2.2538
20199SOL    HW261176   5.571   2.820   7.924 -0.0959 -0.0982  2.0202
20200SOL     OW61177   6.436   7.394   0.498 -0.3070  0.7365 -0.0270
20200SOL    HW161178   6.365   7.336   0.471  0.8735  0.1755 -2.1039
20200SOL    HW261179   6.510   7.336   0.516  0.2405  1.4399  0.0503
20201SOL     OW61180   4.575   3.408   4.817  0.3486  0.7525  0.5714
20201SOL    HW161181   4.510   3.342   4.839  2.0767 -0.5333  2.1505
20201SOL    HW261182   4.566   3.421   4.723 -0.8501 -0.8073  0.4344
20202SOL     OW61183   6.816   7.222   3.855  0.1967 -0.5158 -0.3506
20202SOL    HW161184   6.766   7.296   3.889  0.3057 -0.5392 -0.1372
20202SOL    HW261185   6.768   7.144   3.883  0.9955 -0.5775  0.9054
20203SOL     OW61186   0.361   8.534   5.297  0.7128 -0.4421  0.2999
20203SOL    HW161187   0.276   8.558   5.260  1.5253 -0.9529 -2.0657
20203SOL    HW261188   0.342   8.457   5.352 -0.1385 -1.8260 -1.8006
20204SOL     OW61189   7.979   2.555   5.330 -0.0423  0.3820  0.0753
20204SOL    HW161190   8.023   2.499   5.393  0.4084  0.2596 -0.3452
20204SOL    HW261191   7.919   2.497   5.283 -0.5131  0.5084  0.5037
20205SOL     OW61192   0.761   0.745   3.644 -0.1367  0.6159 -0.3029
20205SOL    HW161193   0.735   0.661   3.607 -0.0382  0.6045 -0.3453
20205SOL    HW261194   0.691   0.767   3.706 -1.8401  2.0231 -2.5666
20206SOL     OW61195   7.757   7.840   0.741 -0.3879 -0.3835 -0.3176
20206SOL    HW161196   7.812   7.762   0.742  2.6076  1.5600 -1.3929
20206SOL    HW261197   7.741   7.857   0.648 -1.6704 -0.1034 -0.0672
20207SOL     OW61198   9.840   1.415   5.513  0.0157 -0.5153  0.3828
20207SOL    HW161199   9.791   1.471   5.453  1.0226 -0.1842 -0.1474
20207SOL    HW261200   9.929   1.449   5.510  0.0508 -0.3317  2.2584
20208SOL     OW61201   0.721   0.447   9.469 -0.1043 -0.3920  0.3011
20208SOL    HW161202   0.643   0.407   9.430 -0.4034 -0.2685  0.7634
20208SOL    HW261203   0.727   0.534   9.428  0.6617 -0.9673 -0.8518
20209SOL     OW61204   1.228   6.426   6.245  0.5003  0.0254  0.0916
20209SOL    HW161205   1.298   6.486   6.271  2.2302 -0.9502 -1.9712
20209SOL    HW261206   1.225   6.434   6.150 -1.4922 -0.7761  0.0560
20210SOL     OW61207   4.696   7.451   1.047  0.0594 -0.2989  0.3584
20210SOL    HW161208   4.616   7.413   1.010 -0.2710 -0.4205  1.1800
20210SOL    HW261209   4.699   7.418   1.136  1.8921 -1.6100 -0.1303
20211SOL     OW61210   1.443   0.139   3.798 -0.1309  0.3263  0.6226
20211SOL    HW161211   1.497   0.070   3.760  0.2713 -0.4232  2.4400
20211SOL    HW261212   1.387   0.168   3.726  0.3226 -1.2727 -0.4330
20212SOL     OW61213   0.184   2.703   4.808 -0.2201  0.6471 -0.0052
20212SOL    HW161214   0.155   2.788   4.777  2.1403  1.5686  0.0689
20212SOL    HW261215   0.207   2.717   4.900  0.1872 -0.0694  0.0175
20213SOL     OW61216   1.038   0.922   9.341 -0.1038  0.5806 -0.2315
20213SOL    HW161217   1.133   0.931   9.344 -0.1632  1.1296  0.1166
20213SOL    HW261218   1.006   1.010   9.322 -0.5898  0.6173  0.7151
20214SOL     OW61219   2.355   2.895   1.276  0.0029  0.0465  0.4447
20214SOL    HW161220   2.372   2.828   1.209 -0.9942  0.4116 -0.1923
20214SOL    HW261221   2.389   2.975   1.237 -0.3080  0.2059  0.5028
20215SOL     OW61222   1.211   7.518   1.719 -0.3126 -0.0288  0.1990
20215SOL    HW161223   1.176   7.537   1.806  0.4782  1.3451  0.2648
20215SOL    HW261224   1.143   7.467   1.675 -1.4808  0.7779  1.0189
20216SOL     OW61225   1.300   3.117   4.991 -0.2269  0.4305  0.1464
20216SOL    HW161226   1.303   3.145   4.899 -0.7307  0.6639  0.1991
20216SOL    HW261227   1.247   3.183   5.035  0.2125  0.4507  0.6591
20217SOL     OW61228   5.381   5.733   8.700 -0.1518  0.5444  0.1699
20217SOL    HW161229   5.347   5.726   8.611  1.1742 -2.4526 -0.2370
20217SOL    HW261230   5.475   5.747   8.689 -0.0633  0.8027  1.1259
20218SOL     OW61231   6.329   2.162   5.330 -0.3755 -0.5930 -0.1778
20218SOL    HW161232   6.361   2.090   5.385  0.4788 -0.2749 -0.2388
20218SOL    HW261233   6.262   2.123   5.275 -0.3150 -1.2137  0.1837
20219SOL     OW61234   8.357   9.277   3.495 -0.2105  0.6764  0.8194
20219SOL    HW161235   8.306   9.316   3.424 -1.1193  0.6207  1.4228
20219SOL    HW261236   8.314   9.308   3.575 -1.6311 -2.3127  1.3549
20220SOL     OW61237   4.550   7.041   7.513  0.4090  0.5999 -0.4241
20220SOL    HW161238   4.457   7.019   7.521  0.8259 -1.5432 -0.8647
20220SOL    HW261239   4.573   7.013   7.424  1.4227  1.3845 -0.4272
20221SOL     OW61240   4.681   8.020   0.886  0.1956 -0.3757  0.4934
20221SOL    HW161241   4.694   8.113   0.908 -0.7896  0.1328 -0.9587
20221SOL    HW261242   4.709   7.973   0.965  1.3643  1.1112  1.0135
20222SOL     OW61243   7.661   1.976   2.748  0.2770  0.6416 -0.2336
20222SOL    HW161244   7.687   2.062   2.782 -3.0402  1.6689  0.0597
20222SOL    HW261245   7.575   1.959   2.787  0.4095 -2.4446 -0.9868
20223SOL     OW61246   2.787   3.320   8.669 -0.3503  0.8738 -0.0107
20223SOL    HW161247   2.806   3.377   8.744 -1.4064 -0.2829  1.1848
20223SOL    HW261248   2.750   3.379   8.603  0.6049  1.9140  0.3521
20224SOL     OW61249   7.307   0.803   9.982  0.1942 -0.0177  0.4958
20224SOL    HW161250   7.238   0.852   9.937 -0.0541 -2.2594 -1.7697
20224SOL    HW261251   7.382   0.863   9.983 -0.0283  0.4548 -2.3070
20225SOL     OW61252   6.423   3.944   5.448  0.0212  0.3518  0.4728
20225SOL    HW161253   6.484   3.878   5.483 -0.6636 -0.4105  0.2687
20225SOL    HW261254   6.466   3.976   5.369  0.9819  1.1415  1.2952
20226SOL     OW61255   9.607   7.509   1.589 -0.7476 -0.1034 -0.0992
20226SOL    HW161256   9.669   7.451   1.633  1.0061  0.9871 -1.0121
20226SOL    HW261257   9.625   7.497   1.496 -1.8766  0.3093 -0.3911
20227SOL     OW61258   1.903   2.615   7.436  0.1206  0.6758 -0.5593
20227SOL    HW161259   1.857   2.558   7.375  0.5479  0.1445 -0.3907
20227SOL    HW261260   1.875   2.704   7.412  0.1163  0.4572 -1.3765
20228SOL     OW61261   7.465   8.506   6.365  0.1427 -0.3753  0.1000
20228SOL    HW161262   7.547   8.555   6.366  0.4945 -0.9504 -0.1150
20228SOL    HW261263   7.438   8.505   6.273 -1.1823  1.5461  0.4025
20229SOL     OW61264   8.207   1.977   2.863 -0.3729  0.6621  0.1946
20229SOL    HW161265   8.127   2.031   2.865 -0.4806  0.5425 -0.5761
20229SOL    HW261266   8.206   1.931   2.947 -2.2027 -0.8709 -0.5960
20230SOL     OW61267   0.541   8.668   6.219 -0.4669  0.5016  0.0539
20230SOL    HW161268   0.552   8.725   6.295 -2.0301  0.6571  0.2032
20230SOL    HW261269   0.535   8.579   6.256  0.0322  0.4360 -0.0120
20231SOL     OW61270   7.639   3.163   2.662 -0.0628 -0.2136  0.0424
20231SOL    HW161271   7.719   3.206   2.691  0.6665  0.3080 -2.4906
20231SOL    HW261272   7.606   3.218   2.591 -2.4392 -0.6764  0.6726
20232SOL     OW61273   3.761   6.222   0.808  0.3978  0.0668 -0.7992
20232SOL    HW161274   3.821   6.274   0.755 -0.9453  0.9911 -1.4931
20232SOL    HW261275   3.702   6.182   0.743 -1.1938  1.1017 -0.0646
20233SOL     OW61276   2.344   3.921   7.336 -0.3651  0.2204 -0.0331
20233SOL    HW161277   2.420   3.971   7.307 -0.3883  0.7795  0.8251
20233SOL    HW261278   2.322   3.958   7.422 -0.2368 -1.4080  0.7512
20234SOL     OW61279   0.017   6.369   6.140  0.4850  0.1579  0.3034
20234SOL    HW161280   0.055   6.288   6.174  0.0270 -0.2818 -0.2233
20234SOL    HW261281  -0.047   6.341   6.075  0.5007  0.9539 -0.0724
20235SOL     OW61282   4.957   3.952   0.263 -0.1844 -0.8745  0.3992
20235SOL    HW161283   5.030   3.901   0.297  0.9874  0.4849 -0.0181
20235SOL    HW261284   4.994   4.004   0.192 -1.6814 -0.5740 -0.1958
20236SOL     OW61285   8.634   3.105   1.398  0.2728 -0.2833 -0.2046
20236SOL    HW161286   8.595   3.085   1.313  0.6419 -0.7429 -0.2667
20236SOL    HW261287   8.666   3.195   1.389 -2.2859  0.7827  0.3987
20237SOL     OW61288   7.036   1.117   8.382  1.0129 -0.1727 -0.5074
20237SOL    HW161289   6.976   1.043   8.397  0.8394 -0.2837 -1.6582
20237SOL    HW261290   7.116   1.077   8.348  0.3274  0.2608 -2.7778
20238SOL     OW61291   3.810   4.062   4.176 -0.5434  0.3963 -0.2762
20238SOL    HW161292   3.803   4.093   4.086 -0.1939  0.3252 -0.3276
20238SOL    HW261293   3.732   4.008   4.189 -0.1718 -0.2761 -0.7996
20239SOL     OW61294   4.596   3.751   1.859  0.0173  0.2938 -0.4632
20239SOL    HW161295   4.623   3.837   1.892  0.3684  0.3745 -0.9394
20239SOL    HW261296   4.628   3.689   1.925 -0.8194  0.5649  0.2179
20240SOL     OW61297   4.276   4.661   1.847 -0.5748  0.2746  0.1185
20240SOL    HW161298   4.197   4.714   1.840  1.1003  2.8511 -0.9316
20240SOL    HW261299   4.246   4.577   1.882 -3.4463  1.7644  1.5479
20241SOL     OW61300   3.160   2.892   2.894 -0.3524 -0.1514  0.2807
20241SOL    HW161301   3.136   2.814   2.944  1.3349 -1.2505 -0.5281
20241SOL    HW261302   3.134   2.965   2.950 -0.2610 -1.3144  1.9182
20242SOL     OW61303   8.524   7.847   0.513  0.0877  0.2383 -0.0490
20242SOL    HW161304   8.534   7.798   0.594  0.8403 -0.6198 -0.6425
20242SOL    HW261305   8.555   7.788   0.445 -2.3688  0.1890 -1.2327
20243SOL     OW61306   9.863   2.193   3.234  0.3188  0.5547  0.5752
20243SOL    HW161307   9.919   2.270   3.241  0.9136  0.3739 -1.4722
20243SOL    HW261308   9.794   2.218   3.173  0.3325 -0.4053  0.1370
20244SOL     OW61309   4.947   8.392   1.851  0.5243 -0.5204 -0.4022
20244SOL    HW161310   5.032   8.435   1.852  0.5979 -0.6016 -1.6488
20244SOL    HW261311   4.887   8.458   1.815 -0.1780 -0.0985  1.4124
20245SOL     OW61312   9.614   6.307   8.686 -0.2140  0.1663  0.0777
20245SOL    HW161313   9.696   6.309   8.734 -0.6793  1.3246  0.8644
20245SOL    HW261314   9.638   6.324   8.595  0.3812  0.7655  0.3474
20246SOL     OW61315   8.114   5.863   8.083 -0.3474  0.0273 -0.3242
20246SOL    HW161316   8.109   5.772   8.113  1.8123  0.5876  2.1126
20246SOL    HW261317   8.044   5.908   8.132 -1.5515 -0.2958 -1.6839
20247SOL     OW61318   2.561   7.788   2.609 -0.1881  0.0853 -0.2246
20247SOL    HW161319   2.555   7.765   2.516 -0.1299 -0.2723 -0.1422
20247SOL    HW261320   2.639   7.741   2.640 -0.6691 -0.4507  0.1934
20248SOL     OW61321   5.114   7.442   5.857 -0.3244  0.5391 -0.2387
20248SOL    HW161322   5.163   7.456   5.938 -0.3227 -1.4861  0.1514
20248SOL    HW261323   5.022   7.449   5.883 -0.3640 -1.2560  0.2279
20249SOL     OW61324   3.156   0.679   4.319  0.1167 -0.2893 -0.4564
20249SOL    HW161325   3.106   0.677   4.237 -1.2679  3.2292  0.1327
20249SOL    HW261326   3.213   0.602   4.313 -1.1249 -1.1645 -3.9034
20250SOL     OW61327   9.453   9.610   6.994 -0.4297 -0.3148  0.1842
20250SOL    HW161328   9.425   9.607   7.085  0.5278 -1.6394  0.4595
20250SOL    HW261329   9.438   9.522   6.961 -1.7390  0.3948 -1.2775
20251SOL     OW61330   7.447   4.909   9.231  0.5846 -0.1376 -0.3802
20251SOL    HW161331   7.443   4.827   9.281 -2.6036  0.7777  1.0927
20251SOL    HW261332   7.494   4.886   9.151 -0.8499 -3.6523 -0.3814
20252SOL     OW61333   3.688   9.145   5.125 -0.4813  0.2469 -0.3240
20252SOL    HW161334   3.781   9.130   5.110 -0.8382 -1.9393 -0.6886
20252SOL    HW261335   3.682   9.173   5.217  0.4515 -0.4575 -0.0458
20253SOL     OW61336   8.199   7.283   6.115 -0.4172 -0.0530 -0.3161
20253SOL    HW161337   8.281   7.326   6.143 -0.0108 -0.5594 -0.7089
20253SOL    HW261338   8.165   7.340   6.046 -0.9538  0.7197  0.5718
20254SOL     OW61339   2.084   4.556   4.219  0.0505  0.4563  0.1520
20254SOL    HW161340   2.108   4.487   4.280  0.3874  0.2220 -0.2452
20254SOL    HW261341   2.137   4.540   4.141  2.0996  2.6718  0.9898
20255SOL     OW61342   0.988   1.929   5.589 -0.4427 -0.0024 -0.2080
20255SOL    HW161343   1.033   1.977   5.658  2.6184 -3.1382  0.2518
20255SOL    HW261344   0.895   1.940   5.609  0.2567  0.4817  3.4881
20256SOL     OW61345   8.858   9.940   7.895 -0.1143 -0.3228 -0.9280
20256SOL    HW161346   8.923   9.937   7.966 -0.4979 -1.2704 -0.6062
20256SOL    HW261347   8.804  10.016   7.916 -1.4485 -1.6893  0.9206
20257SOL     OW61348   3.042   4.971   2.469  0.0055 -0.0828  0.1443
20257SOL    HW161349   2.971   5.033   2.450  0.9843  1.1665  0.4368
20257SOL    HW261350   3.038   4.907   2.397 -1.3253  0.0384  0.0913
20258SOL     OW61351   7.052   8.782   0.352  0.3924 -0.3910  0.3449
20258SOL    HW161352   7.022   8.777   0.443 -2.8256  1.5615 -0.4628
20258SOL    HW261353   7.055   8.691   0.323 -3.6479 -0.9322  1.0390
20259SOL     OW61354   9.504   0.212   6.866  0.1258 -0.0125  0.0321
20259SOL    HW161355   9.537   0.122   6.868  0.1637 -0.0112 -0.3915
20259SOL    HW261356   9.534   0.250   6.948  0.5572 -0.2338 -0.0182
20260SOL     OW61357   1.797   4.157   2.425 -0.3675 -0.1618  0.1908
20260SOL    HW161358   1.821   4.065   2.422  0.4183  0.0462 -0.2656
20260SOL    HW261359   1.866   4.201   2.374 -1.8362  0.4452 -1.3721
20261SOL     OW61360   0.895   8.239   2.296  0.2854  0.0613  0.2886
20261SOL    HW161361   0.819   8.183   2.313  0.7545 -0.0177  2.4167
20261SOL    HW261362   0.967   8.179   2.282  0.7791  0.0609  2.5255
20262SOL     OW61363   7.129   5.976   8.217 -0.1914 -0.1039  0.1270
20262SOL    HW161364   7.185   5.908   8.178  1.4678  0.6351  1.0704
20262SOL    HW261365   7.117   6.040   8.148  0.3589 -0.1598 -0.0325
20263SOL     OW61366   7.011   2.546   1.869 -0.1193 -0.1705 -0.3741
20263SOL    HW161367   6.976   2.525   1.956  0.8327 -0.5432 -0.0767
20263SOL    HW261368   6.933   2.552   1.813 -0.7483  0.1627  0.5150
20264SOL     OW61369   3.241   5.239   4.874 -0.0222  0.5187  0.0350
20264SOL    HW161370   3.307   5.169   4.881 -1.0779 -0.3704  1.6981
20264SOL    HW261371   3.270   5.305   4.936  0.1220  0.8378 -0.3698
20265SOL     OW61372   8.664   6.872   6.532  0.0497 -0.3627  0.0094
20265SOL    HW161373   8.733   6.816   6.499  1.7645  0.7272  1.5141
20265SOL    HW261374   8.689   6.960   6.504 -0.3945  0.1271  1.0875
20266SOL     OW61375   1.118   0.339   0.816 -0.7668  0.7635 -0.5324
20266SOL    HW161376   1.096   0.429   0.794 -0.2174  0.6437 -1.6507
20266SOL    HW261377   1.135   0.297   0.732 -0.2595 -0.1823  0.0214
20267SOL     OW61378   2.050   8.762   4.496  0.2543 -0.1997 -0.7526
20267SOL    HW161379   2.017   8.728   4.579  0.1876 -1.5053 -1.2788
20267SOL    HW261380   2.111   8.832   4.520 -1.6128  1.1393  0.2947
20268SOL     OW61381   3.310   6.166   2.160 -0.1147 -0.0863  0.0739
20268SOL    HW161382   3.360   6.221   2.100 -0.1303  0.4379  0.5328
20268SOL    HW261383   3.376   6.120   2.212 -0.0979  0.9894  1.0255
20269SOL     OW61384   8.901   5.838   7.921 -0.3467 -0.0311  0.5654
20269SOL    HW161385   8.965   5.855   7.989 -1.6328 -0.7426  2.0072
20269SOL    HW261386   8.910   5.745   7.902  0.4076  0.2789 -0.6931
20270SOL     OW61387   8.557   0.482   5.336  0.3865 -0.0045  0.2514
20270SOL    HW161388   8.524   0.557   5.287  0.6396 -0.8173 -1.2248
20270SOL    HW261389   8.635   0.515   5.380 -0.3681  0.9875  0.8701
20271SOL     OW61390   3.388   1.118   0.165  0.2014  0.4166  0.1622
20271SOL    HW161391   3.343   1.179   0.224  0.7398 -0.4112  1.4904
20271SOL    HW261392   3.480   1.127   0.188  0.2777 -0.9612  0.4833
20272SOL     OW61393   4.581   5.668   8.751 -0.1639  0.4137  0.0777
20272SOL    HW161394   4.565   5.608   8.824 -1.3446  1.3161  0.5893
20272SOL    HW261395   4.669   5.702   8.767 -0.2788  0.3430  0.8908
20273SOL     OW61396   9.157   1.003   9.222  0.3858  0.0539  0.2300
20273SOL    HW161397   9.123   1.086   9.257 -3.0404 -0.6385 -1.0041
20273SOL    HW261398   9.247   1.022   9.197  0.7438  2.4736  2.8724
20274SOL     OW61399   5.210   3.907   7.971 -0.0523  0.0929  0.2554
20274SOL    HW161400   5.230   3.959   7.892  1.6506 -0.6449  0.1642
20274SOL    HW261401   5.116   3.920   7.984 -0.1942  1.0130 -1.3359
20275SOL     OW61402   6.694   0.854   5.292 -0.0551 -0.2646 -0.0353
20275SOL    HW161403   6.673   0.784   5.230  0.8903  2.0544 -3.2278
20275SOL    HW261404   6.778   0.828   5.330  1.1579 -0.1806 -2.4664
20276SOL     OW61405   5.065   4.624   7.617 -0.0860  0.9818  0.2482
20276SOL    HW161406   5.117   4.603   7.539  0.9935  0.5172  1.0604
20276SOL    HW261407   5.043   4.716   7.608 -1.3210  0.5746 -1.3543
20277SOL     OW61408   8.978   9.666   2.993  0.4541  0.0467  0.1275
20277SOL    HW161409   9.068   9.640   3.016 -0.2270 -2.1061  0.5736
20277SOL    HW261410   8.938   9.688   3.077  1.1665  3.3627 -0.2831
20278SOL     OW61411   5.401   8.959   0.513  0.2088  0.8069  0.1937
20278SOL    HW161412   5.335   8.890   0.514  0.3810  0.5830 -1.3407
20278SOL    HW261413   5.353   9.038   0.489  0.1574  1.0822  1.1443
20279SOL     OW61414   2.456   1.082   3.568 -0.3305 -0.2883 -0.2931
20279SOL    HW161415   2.427   0.991   3.555  0.2644 -1.0616  2.9082
20279SOL    HW261416   2.375   1.132   3.578 -0.6861 -1.0830  1.0628
20280SOL     OW61417   8.969   3.127   9.960  0.4318  0.9536  0.1286
20280SOL    HW161418   8.888   3.083   9.985  0.5950  1.6110  1.9620
20280SOL    HW261419   8.953   3.157   9.870 -0.8520 -0.0634 -0.0115
20281SOL     OW61420   4.697   6.696   9.112 -0.8639  0.7041 -0.5449
20281SOL    HW161421   4.739   6.773   9.075  0.3331  0.8839  1.0771
20281SOL    HW261422   4.751   6.672   9.187 -1.3176 -1.5954 -0.8628
20282SOL     OW61423   8.240   7.439   6.774 -0.4203 -0.6689 -1.0605
20282SOL    HW161424   8.274   7.471   6.690  0.6187  2.0581  0.2742
20282SOL    HW261425   8.301   7.473   6.839 -2.6366 -0.3889  1.0147
20283SOL     OW61426   1.566   4.855   7.472 -0.0780  0.7422  0.1264
20283SOL    HW161427   1.526   4.782   7.425 -0.8058  0.7401  0.7417
20283SOL    HW261428   1.660   4.840   7.462 -0.2172  0.3174 -0.6648
20284SOL     OW61429   8.290   0.124   5.536 -0.0389  0.5419  0.3276
20284SOL    HW161430   8.267   0.059   5.469 -0.3028  1.2540 -0.2874
20284SOL    HW261431   8.288   0.208   5.490  2.0003  0.8448  0.6928
20285SOL     OW61432   2.101   8.700   5.662 -0.2987 -0.3227  0.1218
20285SOL    HW161433   2.025   8.700   5.603 -0.3872  0.2139  0.2360
20285SOL    HW261434   2.068   8.662   5.743 -0.7378  0.9139  0.5393
20286SOL     OW61435   4.549   3.544   1.316 -0.4264  0.0652 -0.0136
20286SOL    HW161436   4.548   3.594   1.234  0.8569 -0.6569 -0.5093
20286SOL    HW261437   4.458   3.523   1.333 -0.7681  0.7440 -0.9366
20287SOL     OW61438   0.085   0.430   2.431 -1.1351  0.7713 -0.0321
20287SOL    HW161439   0.025   0.366   2.469  0.2386  0.1664  1.2004
20287SOL    HW261440   0.054   0.514   2.464 -1.2062  0.4539  0.7224
20288SOL     OW61441   0.823   9.015   4.553  0.2839 -0.2626 -0.3361
20288SOL    HW161442   0.763   9.002   4.480  0.5373 -1.0921 -0.4101
20288SOL    HW261443   0.766   9.021   4.630  0.0203  0.5937 -0.5931
20289SOL     OW61444   0.100   4.129   4.489  0.6773  0.0248  0.3483
20289SOL    HW161445   0.158   4.096   4.557 -1.0296 -3.3803  0.3671
20289SOL    HW261446   0.153   4.127   4.409  1.0470 -1.7557  0.5925
20290SOL     OW61447   2.687   1.019   6.004 -0.1931 -0.4854 -0.3246
20290SOL    HW161448   2.652   1.106   5.983 -1.9680 -0.9441  0.5710
20290SOL    HW261449   2.718   1.028   6.094 -0.9583 -0.9356 -0.0108
20291SOL     OW61450   6.961   7.025   9.568  0.2074 -0.7109  0.3353
20291SOL    HW161451   6.980   6.967   9.494  2.4673  0.7018 -0.2847
20291SOL    HW261452   6.940   6.966   9.640 -0.0404 -2.1933 -0.8980
20292SOL     OW61453   2.480   3.507   5.361  0.6630 -0.3995  0.0515
20292SOL    HW161454   2.396   3.468   5.384  0.2627 -0.5629 -1.5424
20292SOL    HW261455   2.542   3.470   5.424 -0.4430 -0.2535  1.2664
20293SOL     OW61456   2.845   3.515   3.384 -0.2127 -0.1558  0.2830
20293SOL    HW161457   2.908   3.464   3.333  0.4328 -0.0886  0.9929
20293SOL    HW261458   2.850   3.478   3.472 -2.0422 -0.9409  0.1054
20294SOL     OW61459   1.853   3.927   7.166 -0.0315  0.3458  0.0383
20294SOL    HW161460   1.929   3.933   7.224 -0.0647 -1.5844  0.3687
20294SOL    HW261461   1.779   3.953   7.221  0.1572  0.2742  0.3300
20295SOL     OW61462   1.221   5.859   8.618 -0.3251 -0.8030  0.2104
20295SOL    HW161463   1.145   5.872   8.561  0.0045 -1.0278 -0.2840
20295SOL    HW261464   1.186   5.812   8.694 -0.6967 -0.8338  0.0226
20296SOL     OW61465   6.175   6.387   9.097  0.5552  0.2990 -0.7548
20296SOL    HW161466   6.150   6.383   9.189  1.1557 -1.8580 -0.6444
20296SOL    HW261467   6.213   6.474   9.086 -1.9520  1.6328  0.3464
20297SOL     OW61468   7.461   6.792   6.542 -0.5464 -0.5036 -0.5424
20297SOL    HW161469   7.381   6.844   6.532 -0.2751 -0.0959 -0.6000
20297SOL    HW261470   7.529   6.856   6.563 -0.4226 -0.9507  0.4915
20298SOL     OW61471   6.182   7.941   3.897  0.1795  1.1356  0.4129
20298SOL    HW161472   6.205   8.032   3.910  1.6382  0.6034  1.8996
20298SOL    HW261473   6.203   7.923   3.805 -1.0245  2.5068 -0.1575
20299SOL     OW61474   2.092   6.805   8.494  0.0933  0.3271  0.1333
20299SOL    HW161475   2.052   6.758   8.567 -2.5686  1.2788 -0.6064
20299SOL    HW261476   2.092   6.742   8.422  0.9699 -0.0139  0.4213
20300SOL     OW61477   7.453   9.630   5.438  0.3864  0.7468 -0.0352
20300SOL    HW161478   7.457   9.722   5.464  1.1542  0.6379  0.2376
20300SOL    HW261479   7.505   9.624   5.358  0.4113  0.5308 -0.0043
20301SOL     OW61480   7.552   0.684   8.888  0.3723  0.0459 -0.1133
20301SOL    HW161481   7.486   0.617   8.872  0.2213  0.4075 -1.0652
20301SOL    HW261482   7.521   0.731   8.965 -0.4383  0.1510 -0.4945
20302SOL     OW61483   5.723   1.804   3.209 -0.1035 -0.2916  0.2474
20302SOL    HW161484   5.738   1.898   3.203  1.4139 -0.5781 -1.6473
20302SOL    HW261485   5.641   1.790   3.162  0.3832 -0.0124 -0.7371
20303SOL     OW61486   2.397   9.781   4.251 -0.3099  0.5671 -0.2296
20303SOL    HW161487   2.413   9.769   4.345 -2.1154  3.9699  0.6553
20303SOL    HW261488   2.484   9.784   4.212  0.5636  1.1850  1.6605
20304SOL     OW61489   2.518   5.047   4.655  0.0411  0.1031 -0.5139
20304SOL    HW161490   2.487   5.085   4.573 -0.9593  1.3390  0.3817
20304SOL    HW261491   2.612   5.036   4.642 -0.4547 -2.3351 -2.7723
20305SOL     OW61492   4.294   1.516   6.912  0.4964  0.5522  0.3661
20305SOL    HW161493   4.217   1.471   6.947 -0.8589  1.7066 -0.9307
20305SOL    HW261494   4.259   1.569   6.840  2.8182 -0.3770 -1.5933
20306SOL     OW61495   0.436   0.267   5.953  0.2825 -0.3927 -0.4483
20306SOL    HW161496   0.442   0.291   6.045 -1.1897  0.2765 -0.5079
20306SOL    HW261497   0.396   0.180   5.954 -0.2025 -0.1744 -0.4608
20307SOL     OW61498   6.517   7.533   4.760 -0.1302  0.1931  0.2616
20307SOL    HW161499   6.489   7.502   4.674  1.2757 -1.1912  0.2391
20307SOL    HW261500   6.437   7.533   4.813 -0.3354 -4.0124  0.3414
20308SOL     OW61501   3.918   3.787   4.391 -0.0652 -0.1930 -0.0925
20308SOL    HW161502   3.918   3.813   4.300  1.9997 -1.6542 -0.5936
20308SOL    HW261503   3.873   3.702   4.392 -0.4960  0.0326  0.3460
20309SOL     OW61504   7.577   3.804   8.219 -0.1118  0.1046  0.2059
20309SOL    HW161505   7.518   3.873   8.190 -0.1324 -0.6882 -1.8018
20309SOL    HW261506   7.527   3.755   8.284 -1.5980 -0.3374 -1.1859
20310SOL     OW61507   9.347   6.639   8.210  0.1437 -0.0517  0.6371
20310SOL    HW161508   9.373   6.720   8.167 -2.7211  1.2163  1.0623
20310SOL    HW261509   9.311   6.666   8.294 -3.6076 -1.2803 -0.3620
20311SOL     OW61510   0.070   4.388   1.428 -0.4290  0.1001 -0.0729
20311SOL    HW161511   0.077   4.400   1.523  1.2560  1.6725 -0.3227
20311SOL    HW261512   0.018   4.462   1.399 -2.8078 -1.5325 -0.2255
20312SOL     OW61513   8.675   8.050   1.298  0.1634 -0.0057 -0.4498
20312SOL    HW161514   8.708   7.968   1.261  1.2857 -0.3831  1.2569
20312SOL    HW261515   8.680   8.113   1.226  0.5335 -1.1083 -1.4214
20313SOL     OW61516   3.169   0.217   3.892  0.2291  0.1003 -0.1137
20313SOL    HW161517   3.230   0.283   3.926  1.2610 -0.9764  0.2085
20313SOL    HW261518   3.213   0.181   3.815 -0.0680 -0.5910  0.0353
20314SOL     OW61519   5.949  -0.034   4.340  0.0832 -0.3021  0.1908
20314SOL    HW161520   5.882   0.009   4.288  0.6775  1.4070  0.7871
20314SOL    HW261521   6.014   0.034   4.357  0.8904 -1.3491  1.4657
20315SOL     OW61522   3.951   1.849   5.484  0.2119  0.1133 -0.0325
20315SOL    HW161523   4.038   1.888   5.489 -0.2513  1.2102 -0.4134
20315SOL    HW261524   3.938   1.830   5.391 -0.1398  0.3910 -0.0435
20316SOL     OW61525   1.597   3.882   1.634 -0.5985  0.0361 -0.1281
20316SOL    HW161526   1.675   3.897   1.688 -0.4850  0.5985 -0.4445
20316SOL    HW261527   1.588   3.962   1.582 -1.6550  0.1593  0.2327
20317SOL     OW61528   1.677   3.831   0.275  0.0925 -0.2592  0.0480
20317SOL    HW161529   1.748   3.769   0.255  0.6903  0.2713  0.5007
20317SOL    HW261530   1.636   3.796   0.354  0.9901  0.3793  0.8108
20318SOL     OW61531   0.064   7.546   1.702  0.3383 -0.0604 -0.5346
20318SOL    HW161532  -0.022   7.526   1.738 -0.2048  0.6023 -1.4236
20318SOL    HW261533   0.120   7.475   1.733 -0.1029  0.4450  1.5387
20319SOL     OW61534   8.345   3.407   0.740 -0.1794 -0.1440 -0.0224
20319SOL    HW161535   8.260   3.450   0.735 -0.1339 -0.0575 -0.0512
20319SOL    HW261536   8.401   3.470   0.785 -0.2973 -0.4638  0.5807
20320SOL     OW61537   8.967   9.982   5.358  0.1294  0.3709 -0.4309
20320SOL    HW161538   8.886   9.931   5.363 -0.4589  1.0655 -2.2984
20320SOL    HW261539   9.035   9.920   5.384 -0.9512 -0.2380  1.1695
20321SOL     OW61540   5.143   5.140   5.829 -1.0479  0.1259  0.3258
20321SOL    HW161541   5.123   5.048   5.812 -1.5436  0.0924  1.0604
20321SOL    HW261542   5.183   5.141   5.916  0.7134  0.3942 -0.4334
20322SOL     OW61543   7.063   6.361   5.186 -0.1347  0.2462 -0.0399
20322SOL    HW161544   7.059   6.413   5.267 -0.0440  2.0815 -1.1604
20322SOL    HW261545   7.150   6.380   5.150 -0.3348 -0.2138 -0.7882
20323SOL     OW61546   1.902   8.944   2.883  0.5680  0.5322  0.0558
20323SOL    HW161547   1.856   8.863   2.905 -1.4355  1.4201 -0.6425
20323SOL    HW261548   1.965   8.919   2.816 -0.6015 -0.3347 -0.7510
20324SOL     OW61549   7.838   2.879   9.852 -0.2651 -0.1772 -0.0427
20324SOL    HW161550   7.818   2.786   9.838 -1.4437 -0.0756  0.7906
20324SOL    HW261551   7.892   2.904   9.777  1.9344 -2.0573  0.7917
20325SOL     OW61552   3.763   4.948   7.444  0.2280  0.0458 -0.1707
20325SOL    HW161553   3.690   4.942   7.505  1.4134 -1.0688  1.2124
20325SOL    HW261554   3.841   4.935   7.498  1.4674  1.0718 -1.6057
20326SOL     OW61555   5.460   3.634   4.704 -0.0805 -0.0409  0.4717
20326SOL    HW161556   5.491   3.565   4.762  0.1289 -0.5491 -0.2333
20326SOL    HW261557   5.426   3.588   4.627  0.1516  0.6388 -0.0491
20327SOL     OW61558   9.679   3.814   3.839 -0.0311  0.2952 -0.1999
20327SOL    HW161559   9.702   3.721   3.836  0.6747  0.4425  0.4446
20327SOL    HW261560   9.585   3.816   3.820 -0.0576 -0.5557 -0.1853
20328SOL     OW61561   2.165   1.358   6.151 -0.3084 -0.7162  0.1036
20328SOL    HW161562   2.117   1.439   6.168  0.4879 -0.1361 -0.3511
20328SOL    HW261563   2.215   1.376   6.072 -0.4529 -1.8071 -0.2490
20329SOL     OW61564   3.896   0.333   9.091  0.2898  0.0758  0.2532
20329SOL    HW161565   3.864   0.358   9.178 -0.9229 -0.6415  0.0374
20329SOL    HW261566   3.870   0.406   9.035  0.7757  0.3852  0.4216
20330SOL     OW61567   8.282   5.295   7.275 -0.3794  0.0291  0.1618
20330SOL    HW161568   8.337   5.359   7.230 -1.3783  0.1148 -0.9853
20330SOL    HW261569   8.306   5.211   7.237  0.9953 -0.3505  1.7289
20331SOL     OW61570   0.736   1.211   7.416  0.6490 -0.2378  0.3219
20331SOL    HW161571   0.704   1.161   7.341  0.7585 -0.4964  0.4443
20331SOL    HW261572   0.802   1.270   7.379  0.9397 -0.5949  0.2603
20332SOL     OW61573   9.096   9.196   5.480 -0.2139 -0.3956  0.0546
20332SOL    HW161574   9.041   9.238   5.414 -0.1762  2.5682  1.7183
20332SOL    HW261575   9.163   9.150   5.430  0.5288  2.6806 -2.0554
20333SOL     OW61576   1.001   2.980   9.508  0.1381 -0.2326 -0.1279
20333SOL    HW161577   0.995   3.064   9.462 -1.7644  0.2997  0.9520
20333SOL    HW261578   1.094   2.958   9.506  0.5623  1.4267 -1.2579
20334SOL     OW61579   2.613   5.751   9.084 -0.4447  0.2740 -0.3922
20334SOL    HW161580   2.646   5.838   9.106 -1.2024  0.9009 -1.5844
20334SOL    HW261581   2.680   5.691   9.114 -0.6231  1.1493  1.9059
20335SOL     OW61582   1.913   3.080   9.796  0.0586 -0.3641  0.3102
20335SOL    HW161583   1.882   3.004   9.846 -2.3071  0.6014  0.4397
20335SOL    HW261584   1.965   3.130   9.859  0.1242 -0.9618  0.7433
20336SOL     OW61585   6.228   2.774   3.785  0.0141 -0.7912 -0.0628
20336SOL    HW161586   6.301   2.830   3.811  0.2889 -0.7820 -0.8258
20336SOL    HW261587   6.211   2.798   3.694 -0.6029 -1.1617 -0.0493
20337SOL     OW61588   9.606   1.584   5.647 -0.8246 -0.5128 -0.1411
20337SOL    HW161589   9.564   1.556   5.728  0.3325 -0.5343  0.4646
20337SOL    HW261590   9.580   1.675   5.637 -1.0255 -0.5282  0.2103
20338SOL     OW61591   9.391   6.148   9.055  0.1317 -0.1979 -0.5966
20338SOL    HW161592   9.319   6.135   8.994 -0.5203 -2.0429  0.4731
20338SOL    HW261593   9.470   6.129   9.005 -0.3794 -1.5086 -0.9357
20339SOL     OW61594   2.797   8.614   3.213  0.2052  0.5863  0.1606
20339SOL    HW161595   2.718   8.650   3.253  0.1527  0.9077 -0.2261
20339SOL    HW261596   2.838   8.563   3.282 -0.4096  0.3104  0.3321
20340SOL     OW61597   3.637   8.754   3.531 -0.1630 -0.0951  0.0738
20340SOL    HW161598   3.564   8.810   3.558 -0.7398 -0.7588 -0.0593
20340SOL    HW261599   3.715   8.806   3.547 -0.7292  1.1689 -1.0619
20341SOL     OW61600   1.407   6.820   0.166 -0.6185  0.5260  0.0536
20341SOL    HW161601   1.469   6.817   0.094 -0.1393  1.0669  0.4371
20341SOL    HW261602   1.334   6.873   0.133 -0.3136  0.9348  0.0293
20342SOL     OW61603   0.668   4.720   8.607  0.2189  0.6264 -0.1517
20342SOL    HW161604   0.635   4.795   8.557  0.3493  1.2347  0.6630
20342SOL    HW261605   0.603   4.706   8.675  0.7434  0.6818  0.3627
20343SOL     OW61606   6.230   5.792   9.838  0.2726 -0.1192 -0.3702
20343SOL    HW161607   6.228   5.697   9.825 -0.1819 -0.3677  1.2325
20343SOL    HW261608   6.137   5.817   9.841  0.3548  0.1447  0.4998
20344SOL     OW61609   7.639   7.698   7.355 -0.3246 -0.1539  0.1373
20344SOL    HW161610   7.563   7.753   7.335 -1.3717 -0.5192  2.6876
20344SOL    HW261611   7.663   7.658   7.271  0.7886  4.3523 -1.9835
20345SOL     OW61612   1.201   3.681   3.152 -0.1747  0.3452 -0.2740
20345SOL    HW161613   1.173   3.734   3.077  0.5119  0.5940 -0.3676
20345SOL    HW261614   1.168   3.593   3.133  0.3751  0.3040 -1.0984
20346SOL     OW61615   2.858   9.489   4.605  0.2432  0.2224  0.0472
20346SOL    HW161616   2.946   9.458   4.582  0.7781  3.9071 -4.0266
20346SOL    HW261617   2.800   9.447   4.541  0.1290  2.6117 -1.5293
20347SOL     OW61618   8.760   5.532   4.793 -0.0157 -0.5315  0.2506
20347SOL    HW161619   8.724   5.517   4.881 -0.8367 -2.0797 -0.3000
20347SOL    HW261620   8.790   5.445   4.765  0.6376  0.0261 -0.8362
20348SOL     OW61621   3.659   9.628   9.205 -1.2285 -0.1103 -0.9354
20348SOL    HW161622   3.677   9.534   9.209 -1.4595 -0.1336 -0.3268
20348SOL    HW261623   3.564   9.635   9.196 -1.1003  0.0468 -2.2721
20349SOL     OW61624   8.855   1.190   7.821  0.1138 -0.3013 -0.3703
20349SOL    HW161625   8.809   1.261   7.865 -0.0327 -0.3288 -0.4767
20349SOL    HW261626   8.786   1.142   7.774  0.3496  0.0977 -1.1333
20350SOL     OW61627   5.346   9.993   7.448 -0.0696  0.4190 -0.4133
20350SOL    HW161628   5.286   9.952   7.386 -0.0932 -1.1087  0.5512
20350SOL    HW261629   5.430   9.948   7.434  0.1514  0.6731  0.0534
20351SOL     OW61630   5.035   5.771   2.858  0.1975 -0.9822  0.4921
20351SOL    HW161631   4.950   5.747   2.820  0.2105 -2.6063  1.4253
20351SOL    HW261632   5.084   5.808   2.784 -1.3675  0.2290 -0.0261
20352SOL     OW61633   9.547   5.736   0.171 -0.1173 -0.3098 -0.2680
20352SOL    HW161634   9.548   5.641   0.179  0.3875 -0.3097 -0.2983
20352SOL    HW261635   9.638   5.762   0.181 -0.6165  0.5516  3.9865
20353SOL     OW61636   4.467   0.498   1.165 -0.0526 -0.2685  0.1873
20353SOL    HW161637   4.536   0.449   1.209 -0.7843  0.6843  2.5805
20353SOL    HW261638   4.408   0.431   1.130  0.1686 -1.1048  1.3657
20354SOL     OW61639   3.948   4.620   3.302  0.0149 -0.6473  0.6854
20354SOL    HW161640   3.860   4.648   3.278 -0.6887 -2.3622  1.1281
20354SOL    HW261641   3.979   4.571   3.226  1.1235  0.9924  0.0270
20355SOL     OW61642   6.724   7.944   0.246  0.1998 -0.0144 -0.0206
20355SOL    HW161643   6.640   7.928   0.288  0.7419 -0.5727  0.8763
20355SOL    HW261644   6.784   7.881   0.285  1.3091  1.1170  0.2078
20356SOL     OW61645   6.716   7.842   7.665  0.0977  0.0154  0.2822
20356SOL    HW161646   6.792   7.784   7.663  1.1661  1.3626  0.0161
20356SOL    HW261647   6.668   7.821   7.585  1.5403  0.8232 -0.8493
20357SOL     OW61648   8.127   0.836   3.020  0.2337  0.0450  0.7153
20357SOL    HW161649   8.206   0.887   3.000  0.7208 -0.5135  1.1850
20357SOL    HW261650   8.078   0.890   3.080  0.6292  0.0765  1.0163
20358SOL     OW61651   2.141   8.349   8.759  0.2845 -0.2963 -0.9073
20358SOL    HW161652   2.117   8.263   8.724  0.0646 -0.0198 -1.4447
20358SOL    HW261653   2.158   8.402   8.681  0.6661  0.0798 -0.5731
20359SOL     OW61654   0.566   4.578   0.480  0.5328  0.1860  0.0321
20359SOL    HW161655   0.601   4.492   0.503 -1.0768 -0.5315 -0.0413
20359SOL    HW261656   0.641   4.636   0.484  1.9758 -1.4729 -1.3199
20360SOL     OW61657   6.008   7.645   3.357  0.1030  0.4828 -0.2170
20360SOL    HW161658   6.041   7.662   3.445 -1.2191  2.1313  0.0154
20360SOL    HW261659   5.992   7.551   3.355  2.8633 -0.0699  0.2879
20361SOL     OW61660   1.675   1.779   3.656  0.1304  0.5454  0.1266
20361SOL    HW161661   1.731   1.783   3.734  0.1375  1.5977  0.0717
20361SOL    HW261662   1.593   1.820   3.684 -0.8448 -1.4223  0.3629
20362SOL     OW61663   8.234   2.208   5.649  0.4076  0.0102 -0.2603
20362SOL    HW161664   8.191   2.131   5.687 -0.2708  0.2948 -0.4490
20362SOL    HW261665   8.278   2.250   5.723  0.1103 -0.1173 -0.0101
20363SOL     OW61666   9.627   7.826   8.165 -0.4241  0.1334 -0.3320
20363SOL    HW161667   9.649   7.734   8.171 -0.3419 -0.0021 -2.1147
20363SOL    HW261668   9.531   7.828   8.159 -0.6639  0.3890  2.3151
20364SOL     OW61669   4.260   1.324   7.467  0.1261 -0.3319 -0.5124
20364SOL    HW161670   4.316   1.334   7.391 -2.2792 -0.6076 -2.4370
20364SOL    HW261671   4.188   1.268   7.437 -1.7482  0.8641  1.4680
20365SOL     OW61672   7.599   0.962   7.553 -0.2600  0.0560  0.0101
20365SOL    HW161673   7.692   0.948   7.571 -0.1106  0.4388 -0.4392
20365SOL    HW261674   7.598   1.005   7.467 -0.9374 -1.6928 -0.9158
20366SOL     OW61675   3.070   0.672   8.643 -0.4525 -0.0655  0.6319
20366SOL    HW161676   3.133   0.610   8.679 -2.4727 -2.0680  1.0023
20366SOL    HW261677   3.070   0.745   8.704  0.6382 -0.5671  1.2671
20367SOL     OW61678   3.676   4.042   2.585 -0.5868  0.1201 -0.0189
20367SOL    HW161679   3.650   3.996   2.505 -1.1959  0.9815 -0.3235
20367SOL    HW261680   3.746   4.101   2.557  1.2352 -1.5847  0.6382
20368SOL     OW61681   5.659   4.574   3.989 -0.3796 -0.3568  0.6114
20368SOL    HW161682   5.689   4.654   3.946 -2.0769 -1.1077 -2.2373
20368SOL    HW261683   5.693   4.581   4.078 -0.1376  3.3418  0.3958
20369SOL     OW61684   1.385   8.311   6.247  0.7104  0.1381  0.2097
20369SOL    HW161685   1.466   8.321   6.296  0.8107 -1.8851  0.5359
20369SOL    HW261686   1.349   8.228   6.276 -1.0787  0.6040 -0.5349
20370SOL     OW61687   3.375   4.590   0.047 -0.1388  0.1323 -0.2886
20370SOL    HW161688   3.409   4.575  -0.041 -1.4942 -0.9677 -0.6494
20370SOL    HW261689   3.321   4.514   0.066  0.2760  0.2496  1.5938
20371SOL     OW61690   5.471   6.475   8.113  0.0968  0.7815 -0.3694
20371SOL    HW161691   5.508   6.490   8.199 -0.5084  1.6597 -0.2543
20371SOL    HW261692   5.467   6.379   8.105 -2.0617  0.6285  1.5693
20372SOL     OW61693   3.367   8.840   2.608 -0.5792  0.1246  0.3442
20372SOL    HW161694   3.324   8.890   2.678 -0.1645  1.3078 -0.2227
20372SOL    HW261695   3.455   8.878   2.603 -0.3820 -0.4235 -0.3460
20373SOL     OW61696   0.122   6.448   6.604 -0.3969  0.3108 -0.2459
20373SOL    HW161697   0.145   6.476   6.515  0.3903  0.9768  0.1465
20373SOL    HW261698   0.170   6.366   6.616 -1.4948 -0.4495 -0.8588
20374SOL     OW61699   7.094   2.650   8.703  0.1106  0.2822  0.2046
20374SOL    HW161700   7.022   2.588   8.700  0.4147 -0.1619  1.6393
20374SOL    HW261701   7.071   2.710   8.774  0.2761  1.2554 -0.5417
20375SOL     OW61702   6.355   5.571   8.727  0.0029 -0.5690  0.7061
20375SOL    HW161703   6.442   5.562   8.688 -1.0112 -2.0653 -1.3748
20375SOL    HW261704   6.373   5.587   8.820  2.4967 -1.1561  0.4142
20376SOL     OW61705   9.954   2.710   7.143  0.1379  0.6552  0.5201
20376SOL    HW161706   9.921   2.800   7.142 -0.1107  0.5752 -0.9133
20376SOL    HW261707   9.881   2.657   7.173  0.0614  0.8591  0.6907
20377SOL     OW61708   3.027   6.084   5.976 -0.7942  0.1531 -0.4886
20377SOL    HW161709   3.044   6.137   5.898 -0.2869  0.1299 -0.3953
20377SOL    HW261710   2.934   6.060   5.968 -0.8781  0.5600 -0.8316
20378SOL     OW61711   6.177   0.418   5.915  0.4544  0.4830 -0.7910
20378SOL    HW161712   6.098   0.367   5.898  1.8078 -1.5513 -1.2995
20378SOL    HW261713   6.175   0.488   5.850  0.2335 -0.9451 -2.3700
20379SOL     OW61714   8.500   1.163   1.894  0.2996  0.0013 -0.3818
20379SOL    HW161715   8.575   1.198   1.846  0.9884 -2.0223 -0.8530
20379SOL    HW261716   8.425   1.211   1.858  1.3608  2.8314  0.8428
20380SOL     OW61717   9.907   3.271   8.748  0.7764  0.1266 -0.8921
20380SOL    HW161718   9.984   3.225   8.714 -0.4155 -2.0092 -0.8922
20380SOL    HW261719   9.917   3.267   8.843  1.1145  0.6705 -0.9040
20381SOL     OW61720   9.419   9.624   0.000  0.5307 -0.1754 -0.3190
20381SOL    HW161721   9.338   9.674   0.001  1.2046  0.9849  1.5491
20381SOL    HW261722   9.438   9.606   0.092  2.6647  0.0731 -0.6389
20382SOL     OW61723   5.715   6.920   2.558  0.1742 -0.5249  0.6909
20382SOL    HW161724   5.793   6.927   2.504  0.1669 -2.4341  0.3580
20382SOL    HW261725   5.729   6.983   2.630  1.3945  0.0939 -0.0633
20383SOL     OW61726   8.605   8.142   4.254  0.3577  0.0235  0.0318
20383SOL    HW161727   8.639   8.196   4.182  0.8791  2.2617  1.8389
20383SOL    HW261728   8.523   8.106   4.219  0.1433  1.7438 -1.4269
20384SOL     OW61729   9.849   8.666   3.413  0.0149  0.4663 -0.0928
20384SOL    HW161730   9.908   8.607   3.367 -0.0253  0.6844 -0.4320
20384SOL    HW261731   9.821   8.728   3.346 -0.1376  0.7186  0.2025
20385SOL     OW61732   2.509   4.902   6.636  0.0162 -0.5390 -0.2469
20385SOL    HW161733   2.461   4.887   6.555 -1.7613 -1.4225  0.8923
20385SOL    HW261734   2.577   4.835   6.638 -0.1610 -0.7376 -0.8476
20386SOL     OW61735   6.318   5.236   4.853  0.6667  0.6964 -0.3924
20386SOL    HW161736   6.376   5.306   4.884  0.7082  0.1337  0.8735
20386SOL    HW261737   6.378   5.169   4.820  0.7276  0.3681  0.3648
20387SOL     OW61738   4.702   9.924   1.160  0.0794  0.2011 -0.3665
20387SOL    HW161739   4.716  10.017   1.139  0.4719 -0.3387 -2.7077
20387SOL    HW261740   4.737   9.915   1.249 -0.7874  2.4596  0.2805
20388SOL     OW61741   0.878   1.294   1.266 -0.5231  0.1852  0.2897
20388SOL    HW161742   0.862   1.333   1.180  0.7592 -0.2241 -0.1626
20388SOL    HW261743   0.793   1.257   1.292 -1.3348  1.7273 -0.0410
20389SOL     OW61744   8.985   7.643   8.440 -0.1823 -0.1433  0.0441
20389SOL    HW161745   8.977   7.734   8.468  1.3302  0.4931 -1.3878
20389SOL    HW261746   9.072   7.617   8.468 -0.3730 -0.9463 -0.0879
20390SOL     OW61747   7.585   0.308   8.062 -0.3712 -0.4658 -0.1366
20390SOL    HW161748   7.508   0.359   8.037 -1.3896 -1.4564  0.8647
20390SOL    HW261749   7.558   0.217   8.050 -0.0298 -0.8927  2.0461
20391SOL     OW61750   1.142   9.422   6.838 -0.4017 -0.5024  0.0645
20391SOL    HW161751   1.112   9.504   6.877  0.4176  0.4582 -1.2365
20391SOL    HW261752   1.160   9.365   6.912 -0.9296  0.5086  1.0022
20392SOL     OW61753   5.008   9.810   0.203 -0.2742 -0.2296 -0.2501
20392SOL    HW161754   5.083   9.773   0.251 -0.0602 -0.2028 -0.5631
20392SOL    HW261755   5.029   9.902   0.193  0.5641 -0.5831 -2.0302
20393SOL     OW61756   0.895   0.721   4.928  0.1371  0.9309  0.7215
20393SOL    HW161757   0.838   0.693   5.000 -1.1751  0.9625 -0.2573
20393SOL    HW261758   0.879   0.657   4.859 -0.0800  1.9655 -0.2112
20394SOL     OW61759   3.171   8.403   0.756  0.3042  0.0143  0.2857
20394SOL    HW161760   3.252   8.372   0.797 -0.1442 -1.0546  0.3937
20394SOL    HW261761   3.195   8.487   0.718  0.8591  0.8826  2.3831
20395SOL     OW61762   1.694   6.181   9.463  0.2237 -0.0478  1.0036
20395SOL    HW161763   1.654   6.259   9.501  0.1286 -0.1291  1.0702
20395SOL    HW261764   1.625   6.115   9.466  0.7475 -0.5802  2.3320
20396SOL     OW61765   9.803   4.902   8.225  0.2648  0.9475  0.5866
20396SOL    HW161766   9.825   4.811   8.243  1.3714  1.4747  2.1912
20396SOL    HW261767   9.708   4.907   8.238  0.0163 -0.1754 -0.5998
20397SOL     OW61768   1.013   9.502   2.227 -0.1506  0.1396 -0.6701
20397SOL    HW161769   1.100   9.461   2.222 -0.7549 -2.0180  2.7756
20397SOL    HW261770   0.969   9.477   2.146  1.8212 -0.1694 -1.7109
20398SOL     OW61771   0.376   4.393   2.085  0.4546 -0.2540  0.0167
20398SOL    HW161772   0.406   4.379   2.175  1.1192  0.6386 -0.0594
20398SOL    HW261773   0.308   4.459   2.093  1.0056  0.3482 -0.2091
20399SOL     OW61774   9.275   9.216   5.700 -0.5170 -0.2605 -0.3666
20399SOL    HW161775   9.275   9.311   5.704 -2.7699 -0.2396  1.0513
20399SOL    HW261776   9.228   9.196   5.619 -0.1663 -0.1752 -0.5934
20400SOL     OW61777   6.965   5.370   9.574 -0.4537  0.4795  0.2878
20400SOL    HW161778   6.930   5.281   9.571  2.1083 -0.6272  0.6354
20400SOL    HW261779   6.978   5.394   9.482 -1.3786  0.6247  0.1839
20401SOL     OW61780   5.881   9.274   9.886  0.0002  0.3843  0.5973
20401SOL    HW161781   5.975   9.290   9.873  0.1239 -0.3345  0.5396
20401SOL    HW261782   5.877   9.225   9.968 -0.2675 -0.1266  0.2808
20402SOL     OW61783   8.023   8.446   5.807  0.1480  0.7250  0.0560
20402SOL    HW161784   7.983   8.422   5.724  0.5926 -1.0069  0.3062
20402SOL    HW261785   8.065   8.530   5.789  1.6876 -0.3877 -2.0057
20403SOL     OW61786   7.733   9.053   4.541  0.2966  0.0066 -0.4379
20403SOL    HW161787   7.757   9.135   4.497  1.0408 -0.9705 -1.9793
20403SOL    HW261788   7.789   9.050   4.619 -0.8230  1.6465  0.4734
20404SOL     OW61789   3.511   0.285   7.516  0.2195  0.0728  0.7004
20404SOL    HW161790   3.513   0.296   7.421  1.2478  0.4475  0.7547
20404SOL    HW261791   3.550   0.198   7.530  0.4522  0.1944  0.8038
20405SOL     OW61792   3.109   5.585   8.850 -0.4573 -0.2559  0.2053
20405SOL    HW161793   3.123   5.552   8.938  1.1619  1.4806  0.6618
20405SOL    HW261794   3.148   5.519   8.793 -1.4244 -1.3408  0.7395
20406SOL     OW61795   9.081   7.517   9.247  0.0936  0.0335  0.0016
20406SOL    HW161796   9.152   7.542   9.188 -0.2620 -1.9473 -1.3901
20406SOL    HW261797   9.042   7.440   9.206 -1.6702 -0.0640  1.6901
20407SOL     OW61798   0.367   9.406   4.390  0.0587 -0.3854 -0.0680
20407SOL    HW161799   0.274   9.385   4.392  0.2323 -1.1864  0.3830
20407SOL    HW261800   0.392   9.412   4.482 -0.0123  2.1256 -0.1557
20408SOL     OW61801   2.245   3.475   0.967  0.0742 -0.3949 -0.0387
20408SOL    HW161802   2.166   3.511   1.008 -0.3152 -1.3438  0.0932
20408SOL    HW261803   2.254   3.523   0.885  1.1842  1.9278  1.3576
20409SOL     OW61804   5.730   4.160   8.721  0.2837 -0.1910 -0.3145
20409SOL    HW161805   5.809   4.208   8.745  0.7034 -0.3609 -1.3263
20409SOL    HW261806   5.661   4.227   8.715  0.2968 -0.0675  0.7346
20410SOL     OW61807   2.782   0.308   0.752  0.1625 -0.5772 -0.1218
20410SOL    HW161808   2.701   0.259   0.768 -0.2500  0.1089 -0.0693
20410SOL    HW261809   2.774   0.386   0.805  0.1247  0.2834 -1.3523
20411SOL     OW61810   1.701   8.357   0.265  0.1773 -0.1859 -0.2200
20411SOL    HW161811   1.672   8.429   0.320  0.2908  0.9444 -1.5692
20411SOL    HW261812   1.766   8.311   0.317 -0.3559  0.3009  0.9042
20412SOL     OW61813   2.190   6.748   7.204  0.0043 -0.0802 -0.2887
20412SOL    HW161814   2.109   6.701   7.184 -0.9309  0.5684  1.7211
20412SOL    HW261815   2.255   6.709   7.146 -1.6242 -0.9605 -1.6162
20413SOL     OW61816   5.781   2.664   8.166  0.2502 -0.3620  0.0987
20413SOL    HW161817   5.808   2.595   8.226 -0.4760 -0.5035  0.2697
20413SOL    HW261818   5.731   2.619   8.098 -1.3755  0.1230  0.9150
20414SOL     OW61819   7.074   8.317   2.502 -0.0269 -0.2180 -0.3998
20414SOL    HW161820   6.985   8.352   2.510  0.9749  2.0071  3.8834
20414SOL    HW261821   7.067   8.227   2.533 -0.7200  0.0818  0.3434
20415SOL     OW61822   8.593   3.301   0.425 -0.0240 -0.4701 -0.3500
20415SOL    HW161823   8.607   3.368   0.492  0.2435  1.7376 -2.4951
20415SOL    HW261824   8.676   3.296   0.378 -0.3157 -1.7230 -0.7613
20416SOL     OW61825   6.939   2.454   6.785  0.0138 -0.4375  0.1992
20416SOL    HW161826   6.926   2.438   6.879 -0.4936  0.4455  0.2911
20416SOL    HW261827   7.033   2.448   6.772  0.1903  0.4405  0.9665
20417SOL     OW61828   4.447   8.153   1.778 -0.0584  0.5775  0.5909
20417SOL    HW161829   4.375   8.215   1.769  0.6528  1.2806 -0.4534
20417SOL    HW261830   4.406   8.074   1.813 -1.1633  1.2672  0.9138
20418SOL     OW61831   5.421   7.195   1.729 -0.1736 -0.5593  0.6825
20418SOL    HW161832   5.391   7.269   1.782  0.8236  0.9957 -0.8412
20418SOL    HW261833   5.513   7.185   1.752  0.3258  0.2665 -0.8574
20419SOL     OW61834   8.655   0.193   7.920 -0.0867 -0.6885 -0.1967
20419SOL    HW161835   8.609   0.111   7.903  0.9340 -1.4716  0.6722
20419SOL    HW261836   8.598   0.241   7.980 -0.3053 -1.1259 -0.0552
20420SOL     OW61837   8.224   8.828   3.779 -0.4167  0.1629  0.3742
20420SOL    HW161838   8.156   8.868   3.726  0.3006 -1.9042 -2.3853
20420SOL    HW261839   8.179   8.761   3.830 -0.7015 -0.1086 -0.2247
20421SOL     OW61840   6.143   1.333   2.582 -0.8512 -0.0817 -0.4546
20421SOL    HW161841   6.109   1.336   2.671  1.8504 -0.2708  0.6668
20421SOL    HW261842   6.141   1.424   2.553 -0.3684  0.2045  0.3779
20422SOL     OW61843   2.134   7.208   2.433  0.8068 -0.3900  0.2147
20422SOL    HW161844   2.210   7.201   2.375  1.2455 -1.0958  0.8551
20422SOL    HW261845   2.064   7.161   2.386  0.2981  1.5044 -1.0619
20423SOL     OW61846   8.472   4.428   2.711  0.1495 -0.0535 -0.2193
20423SOL    HW161847   8.453   4.436   2.804  0.4306  0.3973 -0.1989
20423SOL    HW261848   8.429   4.503   2.671  1.9184  1.0406 -0.1642
20424SOL     OW61849   4.034   4.674   5.803 -0.3513 -0.4308  0.2963
20424SOL    HW161850   4.010   4.766   5.791 -0.8541 -0.2889  2.0549
20424SOL    HW261851   4.107   4.660   5.744 -1.5255  0.5440 -1.4705
20425SOL     OW61852   7.913   3.470   1.252  0.7334 -0.0955  0.4997
20425SOL    HW161853   7.984   3.474   1.187  0.1476 -0.7807 -0.2115
20425SOL    HW261854   7.833   3.479   1.200  0.1771 -2.0350  0.9240
20426SOL     OW61855   0.961   1.189   5.151  0.5064  0.0552 -0.6261
20426SOL    HW161856   1.025   1.157   5.088  0.6078  0.2178 -0.6058
20426SOL    HW261857   0.948   1.281   5.128  0.8834  0.2366 -0.1239
20427SOL     OW61858   2.548   7.666   8.638  0.3453 -0.0411  0.1117
20427SOL    HW161859   2.533   7.610   8.715 -0.3420  1.2424  0.9613
20427SOL    HW261860   2.612   7.731   8.668 -1.0930  1.4255  0.1568
20428SOL     OW61861   0.629   1.323   8.897  0.1153  0.0258  0.4432
20428SOL    HW161862   0.595   1.322   8.987 -0.5702  1.5126  0.2243
20428SOL    HW261863   0.715   1.365   8.905  0.1212  0.0173  0.4244
20429SOL     OW61864   9.500   2.020   1.547  0.4367 -0.7627 -0.4874
20429SOL    HW161865   9.465   1.976   1.624  0.0675 -0.9903 -0.7816
20429SOL    HW261866   9.591   2.040   1.570  0.8149 -2.2466 -0.5679
20430SOL     OW61867   7.490   2.261   7.571 -0.2244  0.4776 -0.0597
20430SOL    HW161868   7.519   2.272   7.662  0.4697  1.7814 -0.4112
20430SOL    HW261869   7.469   2.350   7.542 -0.8260  0.0265 -1.0625
20431SOL     OW61870   1.008   9.591   3.474 -0.3505 -0.2351 -0.6305
20431SOL    HW161871   1.032   9.571   3.565 -1.5965 -1.9017 -0.6134
20431SOL    HW261872   1.090   9.613   3.431  0.3983 -0.4337  0.6555
20432SOL     OW61873   0.681   6.567   3.770  0.2936 -0.2464 -0.1144
20432SOL    HW161874   0.661   6.631   3.702  1.6468  0.7532  0.3824
20432SOL    HW261875   0.689   6.619   3.850  0.7576 -1.1177  0.4245
20433SOL     OW61876   9.166   9.026   1.808 -0.7857  0.0234 -0.1482
20433SOL    HW161877   9.207   8.940   1.818 -0.4450  0.2837  0.7635
20433SOL    HW261878   9.081   9.018   1.850 -1.7169 -0.5154 -2.0433
20434SOL     OW61879   6.200   6.604   4.635  0.1734 -0.9982  0.2922
20434SOL    HW161880   6.227   6.666   4.702 -1.7776 -2.0174  2.1891
20434SOL    HW261881   6.110   6.630   4.613  0.5159 -1.1464 -1.4001
20435SOL     OW61882   9.341   3.190   2.485 -0.4050  0.2292 -0.3956
20435SOL    HW161883   9.365   3.204   2.577 -1.1685  2.9391 -0.5086
20435SOL    HW261884   9.262   3.137   2.489  0.4603 -1.0685  0.3850
20436SOL     OW61885   2.251   0.539   3.779  0.1716  0.7026  0.5373
20436SOL    HW161886   2.331   0.488   3.769  0.2186  0.7539  0.6428
20436SOL    HW261887   2.181   0.480   3.754  0.3086  0.9419 -0.4372
20437SOL     OW61888   9.586   2.181   3.476  0.6722  0.4319  0.5476
20437SOL    HW161889   9.544   2.098   3.498 -0.4506  1.5147  2.7935
20437SOL    HW261890   9.662   2.186   3.534  1.1605  0.6654 -0.0925
20438SOL     OW61891   8.589   2.359   4.437  0.1308  0.2607 -0.0608
20438SOL    HW161892   8.658   2.410   4.393 -0.3884  0.9244 -0.1236
20438SOL    HW261893   8.622   2.346   4.525  0.7894 -0.3144 -0.3827
20439SOL     OW61894   7.538   6.819   3.007 -0.7307 -0.0329 -0.0180
20439SOL    HW161895   7.503   6.758   3.072 -0.2877 -0.8724 -0.5392
20439SOL    HW261896   7.481   6.895   3.012 -0.9059 -0.2173  1.1167
20440SOL     OW61897   3.477   6.939   8.469  0.5277 -0.1566 -0.3161
20440SOL    HW161898   3.443   7.026   8.450  0.2192 -0.0643  0.6257
20440SOL    HW261899   3.538   6.921   8.397  0.0764  0.5433 -0.8848
20441SOL     OW61900   6.738   9.662   6.195 -0.7327  0.2517  0.3690
20441SOL    HW161901   6.690   9.738   6.228  0.2764  0.3493  1.6727
20441SOL    HW261902   6.775   9.620   6.273  1.8419  0.5428 -0.5844
20442SOL     OW61903   6.911   3.132   9.652  0.7356  0.4761 -0.5294
20442SOL    HW161904   6.989   3.076   9.650 -0.3470 -1.1703  0.9531
20442SOL    HW261905   6.918   3.180   9.735 -0.7794 -1.1823  0.6066
20443SOL     OW61906   1.076   1.930   6.959 -0.0515  0.1327  0.5754
20443SOL    HW161907   0.980   1.932   6.965 -0.1630  2.9330 -0.6387
20443SOL    HW261908   1.106   1.962   7.043 -0.2841  0.9917  0.3475
20444SOL     OW61909   0.858   7.514   4.958 -0.0632  0.4812  0.4396
20444SOL    HW161910   0.793   7.548   5.020 -1.0290  0.9407 -0.7857
20444SOL    HW261911   0.823   7.535   4.872 -0.0942 -2.4999 -0.3919
20445SOL     OW61912   8.688   1.003   5.056 -0.0421  0.1104  0.3827
20445SOL    HW161913   8.646   1.089   5.055 -3.2140 -1.2614  2.3735
20445SOL    HW261914   8.649   0.957   4.981  0.4672 -0.1331  0.2609
20446SOL     OW61915   2.672   6.346   8.638  0.1718  0.3983  0.1726
20446SOL    HW161916   2.765   6.360   8.621 -0.0854  0.5348 -1.2558
20446SOL    HW261917   2.661   6.250   8.634  0.0329  0.4419 -1.0956
20447SOL     OW61918   8.186   0.638   8.508  0.2650  0.0971  0.2205
20447SOL    HW161919   8.150   0.625   8.596  0.2565 -1.4397  0.0172
20447SOL    HW261920   8.150   0.566   8.456  1.4562  0.1133 -0.6709
20448SOL     OW61921   4.183   1.363   7.158 -0.0987 -0.0283  0.1620
20448SOL    HW161922   4.107   1.387   7.211 -0.4466 -2.4946  0.8956
20448SOL    HW261923   4.155   1.286   7.109  1.9728 -1.1423  0.6281
20449SOL     OW61924   3.751   0.658   0.941 -0.4174 -0.3053  0.3410
20449SOL    HW161925   3.789   0.648   0.854 -3.0633  1.5398 -1.1597
20449SOL    HW261926   3.824   0.686   0.997  0.8148  1.2792 -1.9289
20450SOL     OW61927   9.267   6.578   0.194  0.4623  0.4102  0.0469
20450SOL    HW161928   9.202   6.647   0.203 -0.5455 -0.4978 -0.0717
20450SOL    HW261929   9.216   6.497   0.195  1.5331 -0.3004 -0.6307
20451SOL     OW61930   2.767   3.154   6.346  0.0351 -0.1279 -0.2683
20451SOL    HW161931   2.682   3.160   6.302 -0.6728 -1.1924  0.8711
20451SOL    HW261932   2.747   3.172   6.438  1.7084  3.6102 -0.4551
20452SOL     OW61933   3.820   0.199   5.427  0.6803 -0.1664 -0.0944
20452SOL    HW161934   3.771   0.120   5.403  0.4303 -0.7759  2.2247
20452SOL    HW261935   3.912   0.173   5.419  0.6151 -0.2693 -0.5655
20453SOL     OW61936   4.726   8.688   7.629 -0.3085 -0.2482  0.0445
20453SOL    HW161937   4.789   8.638   7.681  2.2552  0.6266 -1.9939
20453SOL    HW261938   4.708   8.632   7.553  0.2531  0.6684 -0.7794
20454SOL     OW61939   4.096   8.129   2.309  0.3592 -0.6925  1.0011
20454SOL    HW161940   4.182   8.168   2.327  0.3121 -0.4212  0.6506
20454SOL    HW261941   4.116   8.039   2.283  0.8326  0.1301 -1.9409
20455SOL     OW61942   5.769   0.251   9.285 -0.5481 -0.0136 -0.5409
20455SOL    HW161943   5.700   0.274   9.347  0.4406  0.8191  0.2853
20455SOL    HW261944   5.843   0.307   9.309  0.4716 -0.9822 -1.3085
20456SOL     OW61945   9.282   7.533   9.054 -0.2066  0.4389  0.0236
20456SOL    HW161946   9.366   7.527   9.101 -0.6621  1.1984  0.9759
20456SOL    HW261947   9.272   7.448   9.012  0.2110 -0.3108  1.3790
20457SOL     OW61948   3.342   9.275   5.643 -0.8925 -0.1926 -0.3691
20457SOL    HW161949   3.299   9.225   5.712  0.9536 -0.1710  0.8839
20457SOL    HW261950   3.401   9.212   5.600 -0.4773  0.2807 -0.5151
20458SOL     OW61951   4.924   2.828   7.922 -0.2785 -0.0201 -0.3497
20458SOL    HW161952   4.882   2.908   7.889 -0.8514  0.2046  0.8838
20458SOL    HW261953   4.853   2.765   7.927 -0.1758 -0.0805  0.3567
20459SOL     OW61954   2.936   7.616   1.677  0.2961  0.1093 -0.1943
20459SOL    HW161955   3.005   7.659   1.727 -0.8315 -0.2047  1.7137
20459SOL    HW261956   2.959   7.523   1.680 -0.7115 -0.1287  1.3779
20460SOL     OW61957   7.649   5.909   3.112 -0.0585  0.9856 -0.1287
20460SOL    HW161958   7.658   5.923   3.206  3.2389 -0.7349 -0.0273
20460SOL    HW261959   7.636   5.997   3.076  3.9948  2.5561  1.6255
20461SOL     OW61960   9.360   6.870   4.259  0.0160  0.5574 -0.2525
20461SOL    HW161961   9.447   6.901   4.235 -0.5841  0.3526 -3.0335
20461SOL    HW261962   9.302   6.906   4.192 -1.5853 -1.7233 -0.2266
20462SOL     OW61963   0.582   7.093   3.205 -0.5950  0.1552  0.6849
20462SOL    HW161964   0.601   7.170   3.151  0.0732 -1.0056 -0.8036
20462SOL    HW261965   0.486   7.089   3.208 -0.6395  0.4110 -0.1688
20463SOL     OW61966   0.694   1.797   7.704 -0.0389 -0.1823 -0.1380
20463SOL    HW161967   0.728   1.764   7.788  0.1190  2.0071  0.7187
20463SOL    HW261968   0.772   1.809   7.650 -0.0530 -0.6906 -0.2816
20464SOL     OW61969   4.830   4.331   3.418  0.3103 -0.0052  0.8861
20464SOL    HW161970   4.897   4.266   3.396  0.9109  0.8516  0.0786
20464SOL    HW261971   4.802   4.308   3.507 -1.2756 -2.8453 -0.2045
20465SOL     OW61972   3.282   9.529   2.267  0.3885  0.0913  0.5763
20465SOL    HW161973   3.331   9.500   2.344  1.2778  0.3220  0.1040
20465SOL    HW261974   3.302   9.623   2.260 -0.2377  0.2198  0.4587
20466SOL     OW61975   6.555   4.665   9.341  0.4305 -0.1660 -0.2697
20466SOL    HW161976   6.642   4.626   9.339  0.7114  0.4691 -0.3392
20466SOL    HW261977   6.514   4.635   9.260  0.3636 -0.9555  0.0446
20467SOL     OW61978   6.284   3.401   5.994  0.1388 -0.4018  0.3294
20467SOL    HW161979   6.297   3.312   5.962 -2.7254 -0.0670 -2.1266
20467SOL    HW261980   6.350   3.454   5.948 -0.8322 -0.6745 -1.4418
20468SOL     OW61981   2.526   7.857   5.747  0.4706  0.0804 -0.1127
20468SOL    HW161982   2.584   7.874   5.672  1.1660 -1.4610  0.0472
20468SOL    HW261983   2.576   7.798   5.803 -1.3856 -1.5887 -0.1304
20469SOL     OW61984   2.803   2.492   1.148  0.8075  0.8628  0.1326
20469SOL    HW161985   2.898   2.505   1.141  0.9675  1.1570  2.3300
20469SOL    HW261986   2.767   2.580   1.150  0.5508  0.7585  0.1166
20470SOL     OW61987   0.824   6.233   1.745  0.2990 -0.0854 -0.1457
20470SOL    HW161988   0.787   6.179   1.815  1.8113  0.3304  1.0337
20470SOL    HW261989   0.860   6.170   1.683  1.0361 -0.4768  0.6486
20471SOL     OW61990   6.845   1.349   8.399  0.9361 -0.0868  0.0905
20471SOL    HW161991   6.916   1.285   8.386  1.5670  0.5938  0.1253
20471SOL    HW261992   6.836   1.356   8.494 -1.5182 -2.6933  0.1849
20472SOL     OW61993   2.936   2.147   7.189  0.4111  0.0508  0.3887
20472SOL    HW161994   3.025   2.170   7.166  0.2929  0.8345  0.6999
20472SOL    HW261995   2.935   2.146   7.285  0.3437 -0.9939  0.3885
20473SOL     OW61996   6.618   0.927   1.356 -0.0340 -0.4790  0.0493
20473SOL    HW161997   6.709   0.897   1.352  0.5200  1.0787  0.3235
20473SOL    HW261998   6.599   0.932   1.450  0.0466  0.4623  0.0212
20474SOL     OW61999   2.908   8.805   5.118  0.1592  0.2795 -0.0884
20474SOL    HW162000   2.996   8.840   5.104  0.5393 -0.6559 -0.1177
20474SOL    HW262001   2.850   8.880   5.107  0.8063  0.5679 -1.9148
20475SOL     OW62002   4.649   8.153   9.209 -0.1893  0.1086  0.1453
20475SOL    HW162003   4.589   8.217   9.247 -0.0957  0.7469 -0.7476
20475SOL    HW262004   4.727   8.157   9.265  0.6031  2.2247 -0.9969
20476SOL     OW62005   0.657   5.916   8.637  0.5881 -0.2499  0.3581
20476SOL    HW162006   0.662   5.850   8.567  0.0605  0.5115 -0.4216
20476SOL    HW262007   0.569   5.906   8.673 -0.2460  1.3130 -1.1046
20477SOL     OW62008   4.032   7.048   0.887  0.7148 -0.5285 -0.2090
20477SOL    HW162009   4.018   6.956   0.862  2.0048 -1.3055  1.6411
20477SOL    HW262010   4.124   7.050   0.915  0.4095  1.0909  0.7560
20478SOL     OW62011   0.029   4.888   7.918  0.0349 -0.6267 -0.2047
20478SOL    HW162012   0.118   4.855   7.919  0.1249 -0.4592  1.4183
20478SOL    HW262013  -0.012   4.849   7.996 -0.8730  0.3764 -0.1507
20479SOL     OW62014   5.431   6.849   9.126 -1.0090 -0.3840  0.0671
20479SOL    HW162015   5.413   6.758   9.150 -0.0545 -0.2192  1.5917
20479SOL    HW262016   5.501   6.844   9.062 -2.3549 -0.7678 -1.4564
20480SOL     OW62017   7.606   3.846   7.443 -0.5281  0.3226  0.0792
20480SOL    HW162018   7.629   3.756   7.420 -1.6332 -0.2297  1.0239
20480SOL    HW262019   7.511   3.848   7.442 -0.5549  1.1663  1.1827
20481SOL     OW62020   4.825   1.319   7.309  0.4381 -0.1919  0.7320
20481SOL    HW162021   4.751   1.379   7.314  0.5133 -0.1441  1.4188
20481SOL    HW262022   4.803   1.259   7.238  0.1569  0.3689  0.3361
20482SOL     OW62023   8.371   2.339   5.835 -0.3059  0.2507 -0.0559
20482SOL    HW162024   8.399   2.396   5.763  0.2658 -0.9731 -0.8226
20482SOL    HW262025   8.453   2.310   5.876 -0.3213 -2.8590 -1.9263
20483SOL     OW62026   1.691   7.677   3.710  0.3279 -0.1263 -0.1704
20483SOL    HW162027   1.749   7.747   3.739 -0.4066 -0.6674  2.9483
20483SOL    HW262028   1.606   7.720   3.697  0.4713 -0.0263 -0.8211
20484SOL     OW62029   5.394   9.770   5.692 -0.2257  0.7066  0.0791
20484SOL    HW162030   5.473   9.812   5.725 -0.3740 -0.9119  2.7901
20484SOL    HW262031   5.343   9.842   5.653  1.7677  2.0583 -0.1727
20485SOL     OW62032   1.234   4.167   0.081  0.0966  0.3286  0.1288
20485SOL    HW162033   1.163   4.103   0.073 -0.1468  0.3678  1.5416
20485SOL    HW262034   1.225   4.223   0.004  0.4954 -1.4688 -1.2978
20486SOL     OW62035   4.164   9.481   2.097  0.0168  0.0591  0.0101
20486SOL    HW162036   4.203   9.550   2.151 -1.4976  0.8118  0.1868
20486SOL    HW262037   4.187   9.506   2.007 -2.3893  2.1411 -0.1405
20487SOL     OW62038   9.120   5.177   5.337 -0.1944  0.4654 -0.8006
20487SOL    HW162039   9.085   5.133   5.414 -0.3657  1.6293 -0.1875
20487SOL    HW262040   9.057   5.157   5.267 -1.0355  0.9045 -0.1891
20488SOL     OW62041   2.995   9.621   6.643  0.3378  0.7109  0.3256
20488SOL    HW162042   3.069   9.609   6.583 -0.3234  1.8593 -0.7601
20488SOL    HW262043   3.026   9.685   6.707  0.5108  0.6879  0.2651
20489SOL     OW62044   1.110   3.335   0.526  0.2190  0.2933  0.4143
20489SOL    HW162045   1.082   3.278   0.597 -1.5855  1.6794  0.8825
20489SOL    HW262046   1.069   3.298   0.448  0.9052 -0.3089  0.3222
20490SOL     OW62047   2.773   8.164   0.366 -0.4874 -0.5481 -0.0877
20490SOL    HW162048   2.815   8.219   0.300  0.2943 -1.1323 -0.0942
20490SOL    HW262049   2.703   8.218   0.402  0.0983  0.3526 -0.2785
20491SOL     OW62050   3.221   9.437   3.154 -0.4589  0.0657 -0.1448
20491SOL    HW162051   3.172   9.507   3.111  0.0453  0.5017 -0.0122
20491SOL    HW262052   3.296   9.421   3.097 -0.6580 -0.4869 -0.2610
20492SOL     OW62053   1.463   5.271   2.357 -0.0322 -0.0663 -0.4850
20492SOL    HW162054   1.480   5.324   2.435 -1.3710 -0.7327  0.2925
20492SOL    HW262055   1.396   5.320   2.309 -2.9774 -1.9252  1.3430
20493SOL     OW62056   0.927   7.531   3.701 -0.5091 -0.6985  0.8040
20493SOL    HW162057   0.878   7.468   3.754 -0.4047 -1.8128 -0.3684
20493SOL    HW262058   0.953   7.482   3.623 -0.6050  0.8483 -0.2636
20494SOL     OW62059   0.234   4.764   8.827  0.2434  0.5092 -0.0039
20494SOL    HW162060   0.247   4.694   8.892 -0.1365  0.2641 -0.1824
20494SOL    HW262061   0.263   4.844   8.871  2.3597  0.0205 -0.3961
20495SOL     OW62062   9.743   1.664   7.608 -0.0535 -0.2033  0.1531
20495SOL    HW162063   9.799   1.734   7.576  0.3068 -0.5552  0.0104
20495SOL    HW262064   9.755   1.665   7.703 -0.0911 -0.0353  0.1560
20496SOL     OW62065   2.103   1.438   3.416 -0.1754 -0.3849 -0.7060
20496SOL    HW162066   2.014   1.433   3.452  0.8308 -0.8878  1.9606
20496SOL    HW262067   2.096   1.396   3.331 -2.6388  0.2883 -0.9219
20497SOL     OW62068   1.185   9.484   4.428  0.4160 -0.0207  0.3733
20497SOL    HW162069   1.119   9.447   4.370  1.0352  0.1233 -0.4433
20497SOL    HW262070   1.155   9.462   4.516 -0.4531 -0.3893 -0.0048
20498SOL     OW62071   2.522   8.839   4.411  0.0098 -0.2072  0.1558
20498SOL    HW162072   2.460   8.897   4.456 -0.6874 -0.9326  0.1633
20498SOL    HW262073   2.495   8.751   4.437  0.2527 -0.5900 -0.8477
20499SOL     OW62074   2.380   5.494   4.514 -0.1227  0.2420  0.3340
20499SOL    HW162075   2.396   5.402   4.536  2.3872  0.9244  1.9006
20499SOL    HW262076   2.348   5.533   4.596 -1.0746  0.8098 -0.2890
20500SOL     OW62077   0.531   3.508   0.436  0.0337  0.4412 -0.1023
20500SOL    HW162078   0.466   3.555   0.384 -0.4000 -0.9143 -0.8492
20500SOL    HW262079   0.517   3.539   0.526 -1.4638  0.3872 -0.2907
20501SOL     OW62080   7.082   5.412   9.241 -0.1075  0.1478 -0.0212
20501SOL    HW162081   7.159   5.407   9.298 -0.5979  0.1163  0.6438
20501SOL    HW262082   7.118   5.411   9.153  0.6965  0.6913  0.2895
20502SOL     OW62083   3.965   6.145   7.834 -0.4451  0.1911 -0.1278
20502SOL    HW162084   3.959   6.237   7.860 -1.3063 -0.1135  0.8008
20502SOL    HW262085   3.950   6.096   7.914  0.7513 -0.7802 -0.4700
20503SOL     OW62086   6.606   8.220   7.927  0.4322 -0.5338 -0.1953
20503SOL    HW162087   6.601   8.212   8.022  0.7770  0.3963 -0.0878
20503SOL    HW262088   6.523   8.262   7.902  0.7183  0.0554 -0.1910
20504SOL     OW62089   5.256   3.071   4.226 -0.1601 -0.1036 -0.0220
20504SOL    HW162090   5.169   3.069   4.265 -0.9399  0.8371 -1.6096
20504SOL    HW262091   5.308   3.126   4.286 -1.2779  1.1902 -0.1996
20505SOL     OW62092   3.158   1.264   5.514 -0.9320 -0.0225 -0.7095
20505SOL    HW162093   3.189   1.227   5.431 -0.8612  0.9500 -1.1291
20505SOL    HW262094   3.096   1.199   5.547 -0.2257 -0.8759 -1.0387
20506SOL     OW62095   1.869   2.600   8.654 -0.1504  0.0838 -0.2852
20506SOL    HW162096   1.836   2.639   8.573 -3.3105  1.8368  1.6367
20506SOL    HW262097   1.795   2.550   8.688  1.1466 -0.7781  1.4537
20507SOL     OW62098   8.616   2.384   9.305  0.1863 -0.0134  0.2445
20507SOL    HW162099   8.533   2.337   9.297  1.2995 -1.9686 -0.5811
20507SOL    HW262100   8.591   2.474   9.326 -2.0933 -0.7148  0.8140
20508SOL     OW62101   5.638   4.812   2.840 -0.4466  0.3917 -0.3269
20508SOL    HW162102   5.551   4.774   2.848 -0.0680 -0.8020 -1.5070
20508SOL    HW262103   5.628   4.902   2.870 -1.9740  0.1309  0.0080
20509SOL     OW62104   9.785   5.405   8.851 -0.0670  0.5902  0.3632
20509SOL    HW162105   9.817   5.330   8.800  1.3666  0.1594  1.8066
20509SOL    HW262106   9.699   5.377   8.882 -1.6528  1.3947 -2.7986
20510SOL     OW62107   9.076   0.615   2.103  0.1896  0.3888 -0.7640
20510SOL    HW162108   8.997   0.563   2.116 -1.0679  2.1852 -0.8978
20510SOL    HW262109   9.076   0.635   2.009  1.1886 -0.1360 -0.8971
20511SOL     OW62110   8.746   9.032   1.263 -0.4954 -0.0066 -0.5375
20511SOL    HW162111   8.682   9.023   1.333 -0.9063  0.0620 -0.8969
20511SOL    HW262112   8.793   9.113   1.283  2.2604 -1.9731  1.9425
20512SOL     OW62113   0.233   6.802   5.148  0.4656 -0.3345  0.0811
20512SOL    HW162114   0.258   6.816   5.057  2.1787 -1.0281  0.4017
20512SOL    HW262115   0.137   6.811   5.148  0.5039  0.5699 -1.5963
20513SOL     OW62116   8.015   4.970   4.364 -0.8278  0.1771 -0.3861
20513SOL    HW162117   8.049   4.885   4.337 -1.4350 -0.5970  1.1202
20513SOL    HW262118   8.090   5.013   4.406 -0.2530  0.8303 -1.9948
20514SOL     OW62119   5.206   2.790   8.432  0.3396 -0.4125 -0.3112
20514SOL    HW162120   5.144   2.799   8.360 -1.1827  0.2773  1.0500
20514SOL    HW262121   5.280   2.845   8.406 -0.8486  1.0809 -0.6742
20515SOL     OW62122   6.666   6.279   3.100 -0.3692 -0.0105  0.6837
20515SOL    HW162123   6.658   6.185   3.084  1.0315 -0.1376  0.5890
20515SOL    HW262124   6.657   6.320   3.013 -1.7421  0.0120  0.8281
20516SOL     OW62125   3.488   4.520   0.328  0.4719 -0.2372  0.1402
20516SOL    HW162126   3.456   4.548   0.242  0.2955 -0.2553  0.1995
20516SOL    HW262127   3.516   4.429   0.315 -0.7619 -0.6733  0.4057
20517SOL     OW62128   1.048   5.537   8.270 -0.6180 -0.6768 -0.4279
20517SOL    HW162129   1.116   5.586   8.315 -0.6308 -1.8969  1.0161
20517SOL    HW262130   1.000   5.603   8.220  1.3662  0.2520 -1.1947
20518SOL     OW62131   9.837   8.428   2.986  0.2811  0.0997  0.0249
20518SOL    HW162132   9.812   8.455   2.898 -1.3780  1.1086  0.7643
20518SOL    HW262133   9.807   8.337   2.993 -1.6122  0.7051  0.2533
20519SOL     OW62134   9.841   3.584   2.551 -0.1352 -0.4769 -0.3169
20519SOL    HW162135   9.855   3.600   2.644 -1.0085 -1.5562  0.0239
20519SOL    HW262136   9.929   3.578   2.513  0.2540  2.1337  0.0025
20520SOL     OW62137   3.245   9.291   8.578  0.1770 -0.0632 -0.5005
20520SOL    HW162138   3.189   9.216   8.594  0.1823  0.4066  2.2105
20520SOL    HW262139   3.202   9.339   8.507  0.1161 -2.4765 -2.2010
20521SOL     OW62140   7.960   3.838   6.915  0.3546  0.3650  0.1551
20521SOL    HW162141   7.903   3.901   6.959 -2.1011 -1.0232 -0.7977
20521SOL    HW262142   7.960   3.762   6.974 -1.4264 -0.7975 -1.2219
20522SOL     OW62143   2.181   9.731   3.879 -0.0182 -0.0646 -0.3068
20522SOL    HW162144   2.172   9.826   3.893 -0.8035 -0.3197  1.0602
20522SOL    HW262145   2.273   9.713   3.898  0.0169  0.3428 -0.0691
20523SOL     OW62146   7.035   3.378   9.450 -0.1994 -0.0471  0.2239
20523SOL    HW162147   7.018   3.387   9.544 -0.1626  0.7147  0.1635
20523SOL    HW262148   7.036   3.283   9.435 -2.2274 -0.1869  0.6258
20524SOL     OW62149   2.833   7.283   3.523  0.1012  0.3584  0.5882
20524SOL    HW162150   2.787   7.217   3.575 -1.5366  1.1633  0.2281
20524SOL    HW262151   2.897   7.234   3.473 -2.0572 -1.2101 -0.7829
20525SOL     OW62152   0.206   9.332   2.971  0.4645 -0.0348 -0.2847
20525SOL    HW162153   0.201   9.397   2.901  0.6045  2.4414  1.8456
20525SOL    HW262154   0.116   9.302   2.984 -0.1598  2.0234  0.6069
20526SOL     OW62155   4.073   0.478   6.838  0.4761  0.0362  0.1184
20526SOL    HW162156   4.082   0.573   6.846  0.9806  0.3638 -2.9940
20526SOL    HW262157   3.984   0.465   6.804  0.1379 -0.6926  1.2342
20527SOL     OW62158   1.620   9.484   6.227 -0.3832  0.5376 -0.6058
20527SOL    HW162159   1.615   9.579   6.215  1.3392  0.6595 -0.6633
20527SOL    HW262160   1.637   9.474   6.321 -0.1605  0.3157 -0.6708
20528SOL     OW62161   0.184   4.496   7.103  0.1065 -0.4488 -0.3297
20528SOL    HW162162   0.102   4.452   7.080 -0.8561  0.1256  1.7659
20528SOL    HW262163   0.188   4.570   7.043 -0.0624 -1.3785 -1.5226
20529SOL     OW62164   5.554   2.039   1.208  0.4059  0.1081  0.2176
20529SOL    HW162165   5.500   1.994   1.273  1.6128 -0.7613  0.6653
20529SOL    HW262166   5.514   2.125   1.198 -0.7880 -0.3591  0.8554
20530SOL     OW62167   8.811   1.436   2.782 -0.7853  0.6908  0.1315
20530SOL    HW162168   8.747   1.490   2.736  0.4148 -0.0632 -2.5790
20530SOL    HW262169   8.896   1.473   2.758 -0.0554 -0.6041  0.6125
20531SOL     OW62170   0.127   2.395   1.869  0.0548 -0.0742 -0.1084
20531SOL    HW162171   0.185   2.347   1.809 -0.4462  0.0420 -0.6939
20531SOL    HW262172   0.157   2.486   1.863  0.9783 -0.2834  0.9707
20532SOL     OW62173   5.915   0.659   1.472  0.2943  0.1853 -0.2929
20532SOL    HW162174   5.917   0.672   1.566 -0.0903 -0.2520 -0.2193
20532SOL    HW262175   5.866   0.578   1.460  0.9894 -0.1709 -0.8270
20533SOL     OW62176   2.265   4.479   8.776 -0.0855  0.6143  0.8244
20533SOL    HW162177   2.292   4.568   8.799  1.5662  0.4437 -0.3051
20533SOL    HW262178   2.344   4.438   8.742 -1.1186 -0.9099  0.1603
20534SOL     OW62179   2.974   3.357   8.369 -0.6131  0.5656  0.1837
20534SOL    HW162180   3.065   3.341   8.347 -0.9127 -0.8377 -0.1158
20534SOL    HW262181   2.954   3.294   8.438 -1.8705 -0.5238 -1.1020
20535SOL     OW62182   5.216   7.028   2.992 -0.3022 -0.8693  0.0070
20535SOL    HW162183   5.276   7.100   2.972 -0.4386 -0.6578  0.3474
20535SOL    HW262184   5.145   7.070   3.040 -0.1228 -1.3162  0.6698
20536SOL     OW62185   6.116   5.146   1.930  0.1585  0.3487 -0.3682
20536SOL    HW162186   6.115   5.168   2.023  0.0837 -1.3517  0.0577
20536SOL    HW262187   6.155   5.223   1.888 -1.2154  1.7832  0.8651
20537SOL     OW62188   3.665   3.089   1.094 -0.3175  0.4024  0.0836
20537SOL    HW162189   3.685   3.179   1.069 -1.7889  0.2929 -1.7297
20537SOL    HW262190   3.620   3.097   1.179 -0.3080  1.3601  0.0058
20538SOL     OW62191   3.360   3.805   3.862  0.6374  0.0240 -0.1147
20538SOL    HW162192   3.434   3.863   3.843 -0.5934  1.6562 -0.1586
20538SOL    HW262193   3.399   3.730   3.906  2.4203  0.4172 -0.9156
20539SOL     OW62194   1.320   7.734   8.498 -0.2584 -0.0383  0.1892
20539SOL    HW162195   1.362   7.806   8.546 -0.4405  1.3116 -1.5477
20539SOL    HW262196   1.393   7.688   8.457 -0.2247 -0.0510  0.2627
20540SOL     OW62197   1.721   4.816   1.438 -0.2965 -0.4112  0.2305
20540SOL    HW162198   1.742   4.723   1.432 -0.9543 -0.6439  1.2169
20540SOL    HW262199   1.767   4.856   1.364  2.0387 -1.1532  1.1784
20541SOL     OW62200   6.223   4.023   8.115  0.8851 -0.4856  0.1050
20541SOL    HW162201   6.277   4.025   8.036  1.5809 -0.4707  0.5696
20541SOL    HW262202   6.192   4.113   8.125  1.9930 -0.1526  0.6482
20542SOL     OW62203   7.346   9.308   5.139  0.2669 -0.1391 -0.7788
20542SOL    HW162204   7.403   9.258   5.199  0.6019  0.9206 -0.1805
20542SOL    HW262205   7.406   9.369   5.096 -0.2894  0.4084 -0.7766
20543SOL     OW62206   5.515   3.287   7.953 -0.1113  0.0675 -0.2406
20543SOL    HW162207   5.570   3.275   7.875  1.4570  1.6840  0.5391
20543SOL    HW262208   5.438   3.334   7.920 -1.0619 -2.1331 -1.3330
20544SOL     OW62209   1.052   7.848   4.972  0.4118  0.3021 -0.5357
20544SOL    HW162210   1.087   7.934   4.950  1.3052 -0.2207 -1.2193
20544SOL    HW262211   1.072   7.794   4.896  1.1020 -0.8542  0.4361
20545SOL     OW62212   0.055   3.452   7.669  0.0251 -0.2410 -0.7720
20545SOL    HW162213   0.028   3.524   7.726  0.4282 -0.0103 -0.8648
20545SOL    HW262214  -0.020   3.393   7.667 -0.1831  0.0087 -0.4219
20546SOL     OW62215   3.864   8.500   4.575  0.0091 -0.3698 -0.1136
20546SOL    HW162216   3.925   8.571   4.592 -0.4078  0.2873 -1.2092
20546SOL    HW262217   3.801   8.504   4.646  1.7625 -1.7201  1.6292
20547SOL     OW62218   6.011   5.592   9.772 -0.2777  0.4952  0.5570
20547SOL    HW162219   6.104   5.570   9.780 -0.5220  0.0637  2.7352
20547SOL    HW262220   6.002   5.626   9.683  1.2889 -2.6488 -0.9737
20548SOL     OW62221   9.539   0.211   9.342  0.0343 -0.0295  0.5198
20548SOL    HW162222   9.526   0.305   9.349  0.7077  0.2563 -1.3350
20548SOL    HW262223   9.465   0.172   9.389  0.0842  1.4037  1.8319
20549SOL     OW62224   3.622   2.056   9.697 -0.5658 -0.1880  0.0805
20549SOL    HW162225   3.562   2.002   9.749 -1.1520 -0.4378 -0.8326
20549SOL    HW262226   3.565   2.102   9.635 -0.3472  2.9584  1.9953
20550SOL     OW62227   0.212   6.996   7.754 -0.2718  0.0204  0.5090
20550SOL    HW162228   0.134   7.044   7.782  0.9096  2.2666  0.2358
20550SOL    HW262229   0.257   7.056   7.694  0.0355 -2.4893 -1.9715
20551SOL     OW62230   4.009   1.465   5.165 -0.2521  0.3101 -0.4517
20551SOL    HW162231   4.096   1.448   5.130  0.2883 -2.1328  1.7075
20551SOL    HW262232   3.950   1.412   5.111  0.2653 -1.5302  0.6758
20552SOL     OW62233   9.970   7.683   3.491  0.1173  0.2571 -0.0978
20552SOL    HW162234   9.899   7.621   3.506 -1.0037  1.0131 -1.8575
20552SOL    HW262235   9.986   7.678   3.396  1.4877  1.0962  0.0624
20553SOL     OW62236   1.850   0.936   0.081  0.1489  0.8771 -0.1739
20553SOL    HW162237   1.892   0.879   0.017  3.1339  0.2301  2.1512
20553SOL    HW262238   1.792   0.878   0.130  0.2303  0.7024 -0.2831
20554SOL     OW62239   8.280   1.662   6.754 -0.0771  0.1395  0.1269
20554SOL    HW162240   8.258   1.590   6.813 -0.4844 -0.6719 -0.9777
20554SOL    HW262241   8.196   1.696   6.724  0.1111 -0.0444 -0.6510
20555SOL     OW62242   6.950   1.947   1.147  0.0677 -0.5183 -0.6799
20555SOL    HW162243   6.911   1.882   1.204 -2.4886 -0.4101 -2.1541
20555SOL    HW262244   6.877   1.980   1.094  0.7953  4.6046  0.8873
20556SOL     OW62245   1.061   9.824   8.057 -0.1813 -0.1005 -0.1665
20556SOL    HW162246   1.152   9.842   8.035 -0.2429 -0.7577 -1.0183
20556SOL    HW262247   1.024   9.910   8.078  1.0387 -0.0171  1.8827
20557SOL     OW62248   7.145   0.187   5.127  0.2931 -0.4896 -0.5945
20557SOL    HW162249   7.106   0.243   5.060 -1.1595 -0.4098  0.2736
20557SOL    HW262250   7.203   0.246   5.176 -2.3223  0.7900  1.2575
20558SOL     OW62251   3.179   3.380   5.353  0.6996  0.0884 -0.2190
20558SOL    HW162252   3.108   3.351   5.296  0.9674 -1.2482  0.0985
20558SOL    HW262253   3.149   3.359   5.441  0.0453  2.6508  0.2336
20559SOL     OW62254   7.075   4.713   9.038 -0.2697  0.2675  0.1025
20559SOL    HW162255   7.089   4.781   8.973 -1.9553  0.1111 -0.4604
20559SOL    HW262256   7.034   4.758   9.112 -0.6600 -0.0003  0.0484
20560SOL     OW62257   6.908   1.042   1.381  0.1346  0.2200 -0.1208
20560SOL    HW162258   6.880   1.109   1.319 -1.8759 -0.5921 -0.1758
20560SOL    HW262259   6.921   1.089   1.463 -0.5479  0.7968 -0.3325
20561SOL     OW62260   7.610   8.246   4.436 -0.3321 -0.1096 -0.3575
20561SOL    HW162261   7.574   8.179   4.494  0.5150 -1.4780 -1.3492
20561SOL    HW262262   7.679   8.287   4.487 -2.4942  1.8201  1.1780
20562SOL     OW62263   4.594   9.104   6.091 -0.8364  0.0071  0.2041
20562SOL    HW162264   4.643   9.028   6.060 -0.7168  0.3258 -0.4059
20562SOL    HW262265   4.660   9.172   6.103 -0.9053 -0.0617  1.0129
20563SOL     OW62266   9.607   6.049   6.827 -0.6813  0.1829  0.0621
20563SOL    HW162267   9.536   6.041   6.764 -0.8132  0.9415  0.1028
20563SOL    HW262268   9.651   6.131   6.804  0.1774 -0.2692  0.0443
20564SOL     OW62269   0.236   4.840   6.175 -0.6295  0.1639 -0.0722
20564SOL    HW162270   0.296   4.787   6.122  1.8683  2.4195  0.2818
20564SOL    HW262271   0.240   4.801   6.263  2.6680  1.8155  0.6657
20565SOL     OW62272   0.051   8.746   2.590 -0.3131  0.1352  0.3044
20565SOL    HW162273   0.076   8.716   2.677 -2.4013 -3.2269 -0.0819
20565SOL    HW262274   0.101   8.691   2.530 -0.1714  1.2500 -0.6423
20566SOL     OW62275   0.951   0.227   9.409  0.2644 -0.1713  0.0801
20566SOL    HW162276   0.899   0.267   9.480  0.4179 -2.4881  1.6433
20566SOL    HW262277   0.895   0.155   9.378  1.1182 -0.5323 -0.6349
20567SOL     OW62278   9.822   6.913   2.706  0.2043 -0.4222 -0.5512
20567SOL    HW162279   9.813   7.006   2.729 -0.4350 -1.0784  2.1323
20567SOL    HW262280   9.911   6.890   2.734 -0.0663 -0.8908 -0.0647
20568SOL     OW62281   2.012   6.895   0.244 -0.3555 -0.3226 -0.7197
20568SOL    HW162282   1.948   6.946   0.292 -0.5154  0.0643 -1.3278
20568SOL    HW262283   2.047   6.833   0.308 -0.4741  0.2573 -0.0880
20569SOL     OW62284   2.299   8.627   7.424  0.1779  0.3343 -0.0385
20569SOL    HW162285   2.387   8.610   7.392  0.1423  0.1090 -0.0157
20569SOL    HW262286   2.241   8.589   7.358  0.0734  1.7368 -0.7851
20570SOL     OW62287   8.710   3.269   4.969  0.4949  0.1222 -0.3170
20570SOL    HW162288   8.779   3.317   4.923  1.0873  0.5534  0.9574
20570SOL    HW262289   8.729   3.177   4.952  1.1249  0.2569 -0.3582
20571SOL     OW62290   2.972   1.902   8.259  0.3189 -0.2111 -0.4884
20571SOL    HW162291   2.915   1.929   8.187 -0.6504  1.5087  0.8293
20571SOL    HW262292   3.051   1.955   8.249 -0.2261  0.7672  0.2387
20572SOL     OW62293   4.008   3.340   1.143 -0.4608  0.0891 -0.8980
20572SOL    HW162294   4.053   3.298   1.069  0.5047 -0.0689 -0.2431
20572SOL    HW262295   3.945   3.399   1.102 -0.6304 -0.7247 -1.8410
20573SOL     OW62296   8.361   3.013   9.628 -0.3578 -0.1369 -0.5070
20573SOL    HW162297   8.441   2.982   9.669 -0.4495  0.7091  0.3635
20573SOL    HW262298   8.342   3.096   9.672 -0.6377  0.6694 -2.0698
20574SOL     OW62299   4.337   0.821   5.399  0.4676 -0.1967  0.2104
20574SOL    HW162300   4.290   0.780   5.471  0.6073  0.6056  0.7727
20574SOL    HW262301   4.281   0.894   5.371  0.6869 -0.1435 -0.1015
20575SOL     OW62302   0.490   9.308   2.057  0.2932  0.3519 -0.2094
20575SOL    HW162303   0.568   9.297   2.002  0.3509  1.6071 -0.4106
20575SOL    HW262304   0.486   9.402   2.074 -0.3642  0.1197  1.0159
20576SOL     OW62305   3.641   4.282   4.785 -0.4830 -0.4783 -0.0609
20576SOL    HW162306   3.727   4.242   4.770  0.6058  1.8973 -0.6904
20576SOL    HW262307   3.612   4.246   4.868  1.9814 -0.0148  1.0832
20577SOL     OW62308   0.073   7.725   6.466 -0.4902 -0.0780  0.1017
20577SOL    HW162309   0.121   7.742   6.384 -0.2640 -0.1338  0.2228
20577SOL    HW262310   0.097   7.798   6.523 -1.4791  0.5379 -0.2444
20578SOL     OW62311   2.140   1.598   9.794 -0.8046  0.0355 -0.1874
20578SOL    HW162312   2.183   1.593   9.709  0.6446  0.1936  0.5078
20578SOL    HW262313   2.170   1.681   9.831 -1.2562 -0.1276  0.5599
20579SOL     OW62314   9.572   3.185   0.954 -0.0263  0.2998 -0.1900
20579SOL    HW162315   9.480   3.202   0.974  0.5872  1.6998  1.7491
20579SOL    HW262316   9.572   3.100   0.910 -2.2594  0.4495 -0.5757
20580SOL     OW62317   9.634   7.876   7.614 -0.2023  0.0755  0.1082
20580SOL    HW162318   9.626   7.792   7.568 -1.3895  0.9294 -1.3379
20580SOL    HW262319   9.588   7.939   7.558  1.8518  1.9908  0.4359
20581SOL     OW62320   0.296   6.276   2.383  0.1052 -0.2271 -0.3240
20581SOL    HW162321   0.228   6.259   2.448  0.0951 -1.1853 -0.5577
20581SOL    HW262322   0.258   6.247   2.300  0.5642 -0.1830 -0.5567
20582SOL     OW62323   4.070   3.044   6.812  0.4169 -0.2095  0.3538
20582SOL    HW162324   4.118   3.124   6.834  1.4516 -0.8636  0.5092
20582SOL    HW262325   4.028   3.065   6.728 -0.2346  0.8684  0.9138
20583SOL     OW62326   4.609   4.071   9.567 -0.0758  0.0377 -0.0769
20583SOL    HW162327   4.676   4.129   9.604 -0.2639  0.7674 -0.8623
20583SOL    HW262328   4.651   4.032   9.490  0.0132 -0.8021  0.3826
20584SOL     OW62329   7.676   1.451   4.430  0.0353  0.3178 -0.5627
20584SOL    HW162330   7.762   1.490   4.443 -1.0939  3.0716 -0.8437
20584SOL    HW262331   7.631   1.462   4.513 -1.2395  2.2608 -1.4324
20585SOL     OW62332   9.931   6.491   3.246 -0.3570  0.5016 -0.3145
20585SOL    HW162333  10.021   6.505   3.275 -0.0264 -0.0182 -1.0419
20585SOL    HW262334   9.882   6.565   3.281  0.2489  0.5277  0.5215
20586SOL     OW62335   9.328   5.994   9.563  0.4694  0.2450  0.1655
20586SOL    HW162336   9.264   6.037   9.620  0.2495 -0.4513  0.4497
20586SOL    HW262337   9.291   6.002   9.475 -1.2236 -2.2298  0.5750
20587SOL     OW62338   0.445   9.792   2.560  0.1946  0.9212 -0.2271
20587SOL    HW162339   0.441   9.809   2.466 -1.0399  0.4732 -0.2711
20587SOL    HW262340   0.506   9.719   2.569  1.1393  1.6497 -0.5664
20588SOL     OW62341   6.148   8.793   9.242 -0.5791 -0.1084 -0.3355
20588SOL    HW162342   6.227   8.815   9.292 -0.7144 -1.0578  0.3316
20588SOL    HW262343   6.117   8.877   9.209 -0.8159  0.6774  1.7001
20589SOL     OW62344   3.948   2.528   8.687 -0.4087  0.0004  0.0392
20589SOL    HW162345   3.962   2.439   8.653  0.2862  0.3060 -0.4929
20589SOL    HW262346   4.033   2.571   8.678 -0.6601  0.6320  0.5801
20590SOL     OW62347   2.572   1.649   6.954  0.3880  0.4920 -0.0278
20590SOL    HW162348   2.627   1.593   7.008 -0.0651 -1.1248 -1.1453
20590SOL    HW262349   2.482   1.625   6.979  0.1841  0.1504 -1.0500
20591SOL     OW62350   3.588   3.382   6.392 -0.0812 -0.4263 -0.0745
20591SOL    HW162351   3.573   3.329   6.314  1.2384 -1.3195  0.2525
20591SOL    HW262352   3.511   3.439   6.397 -1.2948 -1.9349 -0.7245
20592SOL     OW62353   7.048   1.483   1.495  0.6757  0.1097 -0.7259
20592SOL    HW162354   6.958   1.467   1.523  0.6569 -1.3712 -1.5193
20592SOL    HW262355   7.039   1.526   1.410  0.7140 -0.0544 -0.8133
20593SOL     OW62356   2.096   6.466   3.497  0.4503  0.1764  0.2155
20593SOL    HW162357   2.082   6.424   3.412 -2.7478  0.6289  0.3822
20593SOL    HW262358   2.103   6.559   3.477 -2.3415  0.5346  0.4508
20594SOL     OW62359   4.977   8.628   6.692 -0.0300 -0.0488 -0.2890
20594SOL    HW162360   5.021   8.576   6.625  1.4847 -1.0281  1.3976
20594SOL    HW262361   5.013   8.716   6.681 -0.6103  0.0715 -1.4187
20595SOL     OW62362   7.394   9.676   2.106  0.0305 -0.3941 -0.5914
20595SOL    HW162363   7.343   9.664   2.026 -0.3179 -1.2969 -0.2492
20595SOL    HW262364   7.430   9.764   2.099 -1.8966  0.4324 -0.6670
20596SOL     OW62365   7.096   1.331   1.937  0.2586 -0.1502  0.3205
20596SOL    HW162366   7.103   1.426   1.943 -0.0114  0.0910 -2.0653
20596SOL    HW262367   7.137   1.299   2.017 -0.0594  1.9682  1.4054
20597SOL     OW62368   5.618   7.716   3.377  0.2134 -0.0270 -0.1304
20597SOL    HW162369   5.573   7.734   3.459  0.7543 -2.3447  0.7558
20597SOL    HW262370   5.711   7.716   3.399  0.4152  0.0546 -0.9213
20598SOL     OW62371   4.947   3.154   9.800 -0.5998  0.1738 -0.4606
20598SOL    HW162372   4.983   3.086   9.857  1.1885 -0.2565 -1.9982
20598SOL    HW262373   4.888   3.107   9.741 -1.0707  0.3386 -0.1312
20599SOL     OW62374   7.849   3.774   7.895  0.2839  0.2896 -0.1600
20599SOL    HW162375   7.762   3.814   7.892 -1.2982 -2.8801 -2.3281
20599SOL    HW262376   7.859   3.733   7.809  4.2458  0.9508 -0.1945
20600SOL     OW62377   9.758   3.577   3.050 -0.7546 -0.2055 -0.1847
20600SOL    HW162378   9.664   3.559   3.041 -0.5696 -2.0526  1.0819
20600SOL    HW262379   9.800   3.492   3.040  0.7107  0.4341  0.2704
20601SOL     OW62380   9.084   4.021   0.038 -0.1447  0.1562  0.1126
20601SOL    HW162381   9.083   4.111   0.071 -0.2869  0.2707 -0.1976
20601SOL    HW262382   9.177   3.997   0.035  0.0546  1.0103 -1.7112
20602SOL     OW62383   5.681   9.080   2.555 -0.0984 -0.3945  0.4420
20602SOL    HW162384   5.603   9.124   2.520 -0.3793 -2.1230 -1.2755
20602SOL    HW262385   5.696   9.007   2.495  1.2479 -1.7301  2.2882
20603SOL     OW62386   0.594   9.148   2.779  0.4261 -0.0596 -0.5338
20603SOL    HW162387   0.599   9.226   2.723  1.1193  0.0148 -0.3777
20603SOL    HW262388   0.675   9.100   2.761  0.2066 -0.5273 -0.3030
20604SOL     OW62389   4.737   0.481   1.875  0.2204  0.0597 -0.1821
20604SOL    HW162390   4.653   0.504   1.916 -0.8412 -0.1379 -2.1017
20604SOL    HW262391   4.800   0.542   1.911 -0.7335  0.1680  1.3744
20605SOL     OW62392   4.532   1.185   4.268 -0.3783  0.3732 -0.2705
20605SOL    HW162393   4.522   1.277   4.289 -2.4768  0.1236  0.0171
20605SOL    HW262394   4.474   1.139   4.329 -0.2884 -1.0335 -1.1838
20606SOL     OW62395   1.396   6.898   1.887 -0.5181 -0.1252  0.2722
20606SOL    HW162396   1.421   6.817   1.843  0.8484  0.4008  0.0412
20606SOL    HW262397   1.413   6.967   1.823  0.9967  0.5954  1.4101
20607SOL     OW62398   8.291   1.460   2.741  0.5973  0.3291  0.1681
20607SOL    HW162399   8.306   1.374   2.702  0.9234  0.3898  0.1588
20607SOL    HW262400   8.211   1.492   2.699  0.7065  0.2088 -0.1314
20608SOL     OW62401   0.345   7.137   7.537 -0.2554 -0.5853 -0.5632
20608SOL    HW162402   0.337   7.233   7.541 -0.5282 -0.5791 -1.1966
20608SOL    HW262403   0.280   7.110   7.472 -1.3391 -1.3561  0.8019
20609SOL     OW62404   5.636   4.146   4.508 -0.1863 -0.8741  0.8983
20609SOL    HW162405   5.681   4.229   4.520  0.4534 -0.6702 -2.1243
20609SOL    HW262406   5.664   4.093   4.582 -0.8434  1.6140  3.0890
20610SOL     OW62407   6.955   9.028   1.070  0.2469 -0.1547 -0.6010
20610SOL    HW162408   6.971   9.087   1.144  2.6062  0.5148 -1.5464
20610SOL    HW262409   6.976   9.080   0.992 -0.3363 -1.4005 -1.6363
20611SOL     OW62410   1.675   9.166   7.215  0.8957 -0.4319 -0.6086
20611SOL    HW162411   1.755   9.195   7.171  1.6216 -1.1203  0.2100
20611SOL    HW262412   1.640   9.097   7.159  1.3897 -0.7668 -0.5151
20612SOL     OW62413   2.858   2.655   8.710 -0.8644 -0.1155  0.1196
20612SOL    HW162414   2.783   2.624   8.659 -0.1952 -0.8572 -0.4526
20612SOL    HW262415   2.916   2.694   8.645 -0.1260 -0.8271  0.3335
20613SOL     OW62416   1.745   8.660   7.458 -0.3537 -0.7454 -0.1835
20613SOL    HW162417   1.720   8.686   7.547 -0.8277 -0.7378 -0.3143
20613SOL    HW262418   1.823   8.606   7.470 -0.0424 -0.2258  0.1839
20614SOL     OW62419   3.168   0.713   2.241  0.1134 -0.1711  0.0317
20614SOL    HW162420   3.111   0.749   2.173  0.6329  0.9931  0.1913
20614SOL    HW262421   3.108   0.672   2.303 -0.6632  1.9148  0.7327
20615SOL     OW62422   6.298   0.718   3.871  0.0732 -0.0188  0.9204
20615SOL    HW162423   6.245   0.798   3.871 -0.7212 -0.4909 -0.7524
20615SOL    HW262424   6.248   0.656   3.924  0.0243  0.1872  1.1158
20616SOL     OW62425   3.646   9.521   7.911 -0.2907  0.3395 -0.3457
20616SOL    HW162426   3.559   9.502   7.878 -0.7514  0.1985  0.8994
20616SOL    HW262427   3.645   9.615   7.930 -1.5670 -0.2694  3.3923
20617SOL     OW62428   0.764   1.068   3.688  0.6643  0.2967  1.0140
20617SOL    HW162429   0.747   1.052   3.781  2.1911 -0.6915  1.1468
20617SOL    HW262430   0.840   1.014   3.667  1.5152  1.9227 -0.3606
20618SOL     OW62431   1.532   4.963   6.279 -0.0713 -0.2857 -0.2952
20618SOL    HW162432   1.440   4.991   6.282 -0.1022 -0.4300  0.3144
20618SOL    HW262433   1.533   4.890   6.217 -0.1938  0.3041 -1.0160
20619SOL     OW62434   8.101   4.296   5.761  0.4212  0.0034  0.2397
20619SOL    HW162435   8.075   4.261   5.846  1.3195  0.0525  0.5514
20619SOL    HW262436   8.072   4.387   5.762  0.1730 -0.0776  0.3751
20620SOL     OW62437   4.908   6.111   7.121  0.2569 -0.4965  0.8991
20620SOL    HW162438   4.874   6.113   7.031  0.8896 -0.7714  0.6497
20620SOL    HW262439   4.999   6.139   7.113  0.5414 -1.2651  1.3509
20621SOL     OW62440   4.746   7.888   5.302  0.7911 -0.1856 -0.0194
20621SOL    HW162441   4.797   7.877   5.383 -0.7494 -0.9222  0.9019
20621SOL    HW262442   4.677   7.951   5.326 -0.6337 -1.5915 -0.2488
20622SOL     OW62443   6.656   4.357   7.453 -0.3176 -0.1234 -0.1989
20622SOL    HW162444   6.711   4.290   7.491  0.8338  0.4184 -0.8666
20622SOL    HW262445   6.712   4.403   7.391 -0.9406  1.7233  0.5196
20623SOL     OW62446   6.983   4.183   4.236 -0.0728 -0.1212  0.1213
20623SOL    HW162447   6.914   4.189   4.302  0.3859 -1.3767  0.7331
20623SOL    HW262448   7.039   4.112   4.265 -0.3924 -1.3951 -2.1156
20624SOL     OW62449   0.977   8.656   1.810 -0.4263 -0.1296  0.2726
20624SOL    HW162450   0.945   8.659   1.900 -0.0104 -0.2900  0.4294
20624SOL    HW262451   0.950   8.570   1.777  1.1536 -0.9120  0.9130
20625SOL     OW62452   3.361   1.457   4.785 -0.5417  0.5313  0.1721
20625SOL    HW162453   3.353   1.541   4.831 -0.6475  1.2288 -1.0867
20625SOL    HW262454   3.278   1.447   4.738  0.1646  0.6331 -1.1482
20626SOL     OW62455   9.399   7.019   2.821 -0.2574 -0.1033 -0.0318
20626SOL    HW162456   9.321   7.074   2.819 -0.2551  0.0393  1.7687
20626SOL    HW262457   9.368   6.933   2.794 -0.5830  0.4079 -1.3556
20627SOL     OW62458   1.062   2.329   7.399 -0.0431  0.5673 -0.0777
20627SOL    HW162459   1.105   2.349   7.316 -0.6501 -0.7972 -0.7588
20627SOL    HW262460   0.969   2.331   7.379 -0.1786 -0.4217  0.3847
20628SOL     OW62461   3.622   1.125   2.460  0.0388  0.6468 -0.1336
20628SOL    HW162462   3.624   1.220   2.467 -1.1596  0.7865 -1.3845
20628SOL    HW262463   3.535   1.100   2.492  1.1902 -0.2979  2.5803
20629SOL     OW62464   5.294   2.915   2.616  0.1492  0.1253  0.0111
20629SOL    HW162465   5.237   2.876   2.551 -1.2244  3.1207 -0.7467
20629SOL    HW262466   5.381   2.916   2.575 -0.2039 -0.2296 -0.7592
20630SOL     OW62467   7.798   3.498   8.956  0.3981 -0.2358  0.7469
20630SOL    HW162468   7.773   3.563   9.022 -1.3214  1.2795 -1.2944
20630SOL    HW262469   7.715   3.458   8.929  1.1341 -1.2257 -0.1207
20631SOL     OW62470   9.077   7.085   7.742 -0.3516 -0.4313  0.0568
20631SOL    HW162471   9.009   7.114   7.681 -0.7509  0.5456  0.9229
20631SOL    HW262472   9.069   7.146   7.816 -0.7956 -2.3863  1.7104
20632SOL     OW62473   2.546   4.704   4.293  0.1444  0.1394 -0.3125
20632SOL    HW162474   2.583   4.650   4.363 -2.0500 -1.4695 -0.2635
20632SOL    HW262475   2.608   4.696   4.221  1.2567 -0.1292  0.6497
20633SOL     OW62476   9.846   4.889   8.984 -0.0763  0.8808 -0.0126
20633SOL    HW162477   9.922   4.865   9.037  0.1441  3.0423  0.7388
20633SOL    HW262478   9.859   4.981   8.964 -1.6591  0.8531 -1.3368
20634SOL     OW62479   3.310   6.723   8.477 -0.0184  0.4121 -0.4431
20634SOL    HW162480   3.340   6.813   8.472 -1.4143  1.0593  1.5860
20634SOL    HW262481   3.302   6.695   8.386  0.1970  2.4074 -1.1178
20635SOL     OW62482   2.831   5.702   6.690 -1.0528 -0.4179 -0.4404
20635SOL    HW162483   2.921   5.671   6.699 -1.6463 -2.0503  0.3145
20635SOL    HW262484   2.839   5.793   6.664  0.8178 -0.1215  0.9935
20636SOL     OW62485   2.334   2.015   6.299 -0.6438 -0.3023  0.0828
20636SOL    HW162486   2.352   1.997   6.391 -0.0797  1.0587  0.2659
20636SOL    HW262487   2.342   2.110   6.291  2.0705 -0.5721 -1.9173
20637SOL     OW62488   5.495   3.159   4.769  0.0537 -0.5426 -0.7693
20637SOL    HW162489   5.510   3.114   4.685  0.1904 -1.4398 -0.2730
20637SOL    HW262490   5.401   3.151   4.784 -0.3109  1.2833 -1.7442
20638SOL     OW62491   3.740   7.664   7.187 -0.5487 -0.3276 -0.3638
20638SOL    HW162492   3.731   7.580   7.142  1.8863  0.5459 -2.7756
20638SOL    HW262493   3.835   7.681   7.186 -0.7600  1.5126  1.9515
20639SOL     OW62494   5.653   0.957   8.705  0.3032 -0.0007  0.4171
20639SOL    HW162495   5.654   0.955   8.609  0.6749  0.5748  0.4074
20639SOL    HW262496   5.641   0.865   8.730  0.6276 -0.2095 -0.1740
20640SOL     OW62497   8.329   6.402   5.124 -0.2305 -0.3632  0.0036
20640SOL    HW162498   8.303   6.319   5.163 -1.0858 -0.5013 -0.8343
20640SOL    HW262499   8.364   6.379   5.038  0.9442  0.0113  0.3653
20641SOL     OW62500   1.116   0.685   7.734  0.3997 -0.0992 -0.1130
20641SOL    HW162501   1.208   0.676   7.706 -0.1199  0.8530 -2.3652
20641SOL    HW262502   1.110   0.775   7.766 -0.0207  0.3177 -1.3003
20642SOL     OW62503   8.392   8.932   6.411 -0.5021 -0.4044  0.1734
20642SOL    HW162504   8.367   8.979   6.490 -3.5615 -0.9249 -0.3491
20642SOL    HW262505   8.406   8.842   6.440 -1.3148 -0.5294  0.2092
20643SOL     OW62506   6.443   4.320   9.417 -0.1027  0.0904 -0.2063
20643SOL    HW162507   6.429   4.329   9.323 -0.1533 -1.8714 -0.4240
20643SOL    HW262508   6.390   4.245   9.443  1.3158 -0.5408  1.0433
20644SOL     OW62509   6.208   5.326   4.539 -0.7074 -0.0699  0.0959
20644SOL    HW162510   6.264   5.404   4.542  0.3645 -0.8490  1.8647
20644SOL    HW262511   6.170   5.320   4.627 -2.9295 -0.0651 -0.8103
20645SOL     OW62512   5.026   2.233   0.160  0.4127 -0.7608  0.3919
20645SOL    HW162513   4.931   2.234   0.150  0.5098 -0.7877 -0.6435
20645SOL    HW262514   5.054   2.152   0.116  1.1534  0.6752 -1.9702
20646SOL     OW62515   3.416   2.340   1.912  0.1601  0.3099  0.1252
20646SOL    HW162516   3.331   2.380   1.924  0.2913  0.4899  0.4555
20646SOL    HW262517   3.457   2.389   1.841 -0.1530 -0.0099 -0.2807
20647SOL     OW62518   2.634   8.282   3.696 -0.3551  0.4610 -0.0126
20647SOL    HW162519   2.727   8.283   3.673 -0.0894 -0.0377  0.9811
20647SOL    HW262520   2.600   8.205   3.651 -0.1658  0.3270  0.0723
20648SOL     OW62521   0.819   5.740   0.556 -0.6781 -0.0976 -0.3272
20648SOL    HW162522   0.736   5.698   0.580 -0.0009 -0.1059  2.2590
20648SOL    HW262523   0.818   5.823   0.604  0.1399  0.6500 -1.5499
20649SOL     OW62524   3.455   3.305   1.792 -0.2309  0.3697  0.0388
20649SOL    HW162525   3.521   3.374   1.789  2.0841 -1.7260 -0.8687
20649SOL    HW262526   3.487   3.244   1.858  0.5199 -2.2131 -2.5039
20650SOL     OW62527   9.173   6.225   0.012  0.0373  0.0946  0.0434
20650SOL    HW162528   9.147   6.268   0.093  2.3864 -0.0888  0.9564
20650SOL    HW262529   9.152   6.133   0.025  1.1028 -0.0587  0.7825
20651SOL     OW62530   4.471   1.275   7.863  0.0297 -0.0919  0.0463
20651SOL    HW162531   4.512   1.230   7.789  0.5749 -1.0910  0.9279
20651SOL    HW262532   4.380   1.288   7.835 -0.1296 -1.6613 -0.3138
20652SOL     OW62533   9.273   3.295   1.660  0.1473 -0.0249 -0.2597
20652SOL    HW162534   9.306   3.205   1.654  0.7600  0.1750  0.1022
20652SOL    HW262535   9.331   3.338   1.723 -0.6568  0.3993  0.1956
20653SOL     OW62536   8.703   8.095   7.783 -0.8272  0.1935 -0.8168
20653SOL    HW162537   8.760   8.021   7.807 -0.4839  0.7066  0.0023
20653SOL    HW262538   8.649   8.061   7.712 -1.0342 -1.0135 -0.1080
20654SOL     OW62539   8.584   4.835   2.914  0.8494  0.1187  0.1523
20654SOL    HW162540   8.531   4.806   2.840  0.9933  1.4246 -0.4987
20654SOL    HW262541   8.521   4.873   2.976  0.7781 -0.5700  0.5138
20655SOL     OW62542   3.672   7.867   0.039 -0.2627 -0.1661  0.3788
20655SOL    HW162543   3.723   7.789   0.063 -2.6427 -1.3149  2.0906
20655SOL    HW262544   3.661   7.915   0.121 -1.1282  0.5446 -0.1351
20656SOL     OW62545   5.265   8.350   3.266 -0.2544 -0.0880  0.4236
20656SOL    HW162546   5.325   8.398   3.323 -0.9005  0.1464  0.9112
20656SOL    HW262547   5.247   8.411   3.194  0.3221 -0.2742  0.1078
20657SOL     OW62548   4.228   6.372   2.014 -0.0559 -0.0078 -0.3054
20657SOL    HW162549   4.212   6.327   1.931  0.6455 -0.1870 -0.3517
20657SOL    HW262550   4.236   6.465   1.989  0.8701 -0.1404 -0.5517
20658SOL     OW62551   7.595   2.459   1.469 -0.6804 -0.5547 -0.1743
20658SOL    HW162552   7.569   2.486   1.558 -2.2051  0.3538 -0.8521
20658SOL    HW262553   7.659   2.389   1.483 -0.6719 -0.2454  1.6400
20659SOL     OW62554   2.260   9.542   8.526  0.8487  0.3996 -0.3081
20659SOL    HW162555   2.245   9.566   8.435  0.7693  1.0904 -0.1189
20659SOL    HW262556   2.188   9.584   8.574  0.1056 -1.0648 -0.0773
20660SOL     OW62557   2.716   5.062   4.992 -0.5905  0.1660 -0.0668
20660SOL    HW162558   2.728   5.079   5.085 -4.4322  1.7106  0.3254
20660SOL    HW262559   2.771   5.126   4.948  0.9523 -0.3129  1.0813
20661SOL     OW62560   3.810   4.912   2.581  0.3236 -0.6262  0.6137
20661SOL    HW162561   3.776   4.863   2.656  1.1701  0.2248  1.5994
20661SOL    HW262562   3.834   4.845   2.517 -2.7237 -1.2940  0.0141
20662SOL     OW62563   0.371   6.249   6.536 -0.0983  0.1736  0.4925
20662SOL    HW162564   0.397   6.169   6.491 -0.5857  0.0182  0.4824
20662SOL    HW262565   0.380   6.318   6.470 -0.7830 -0.0486  0.1562
20663SOL     OW62566   0.182   6.998   6.595 -0.4264  0.4630 -0.5263
20663SOL    HW162567   0.121   6.933   6.629 -0.2594 -0.0228 -1.1311
20663SOL    HW262568   0.249   7.006   6.662 -0.1249 -0.4481 -0.7069
20664SOL     OW62569   7.330   0.488   7.149  0.2552  0.2717 -0.2443
20664SOL    HW162570   7.341   0.401   7.111  0.5244  0.7003 -1.1920
20664SOL    HW262571   7.420   0.521   7.160  0.1588  0.3820  0.2145
20665SOL     OW62572   7.725   6.013   8.874  0.0693 -0.5714  0.2235
20665SOL    HW162573   7.779   5.943   8.836  1.0229 -0.4215  1.2662
20665SOL    HW262574   7.765   6.032   8.958 -1.4075 -0.1767  0.8711
20666SOL     OW62575   7.421   1.152   8.435 -0.1171  0.3334  0.0014
20666SOL    HW162576   7.446   1.121   8.348  1.2016  0.7603  0.2084
20666SOL    HW262577   7.418   1.073   8.489 -2.8044 -0.2014 -0.8105
20667SOL     OW62578   6.023   6.243   6.313 -0.5373  0.1843  0.3918
20667SOL    HW162579   6.078   6.168   6.332 -0.0096  0.4107 -0.2035
20667SOL    HW262580   6.082   6.307   6.273 -1.3546  0.1512 -0.9339
20668SOL     OW62581   4.031   8.221   8.427 -0.0966 -0.9059  0.2587
20668SOL    HW162582   4.020   8.145   8.483 -0.6833 -0.5235  0.6715
20668SOL    HW262583   4.059   8.185   8.343  0.7963 -1.4844  0.7848
20669SOL     OW62584   2.003   9.430   2.253 -0.0183  0.2757 -0.0666
20669SOL    HW162585   1.908   9.414   2.251 -0.4167  2.3186 -0.3235
20669SOL    HW262586   2.023   9.444   2.345  0.4456 -2.0562  0.2353
20670SOL     OW62587   7.851   8.386   6.423  0.5196 -0.5720 -0.0436
20670SOL    HW162588   7.793   8.439   6.368  1.5499  0.7937  0.1509
20670SOL    HW262589   7.793   8.352   6.491  0.0357  1.5241  0.6892
20671SOL     OW62590   5.117   3.117   1.998 -0.2678 -0.1909 -0.0174
20671SOL    HW162591   5.123   3.063   1.919 -0.2473 -0.3661  0.1029
20671SOL    HW262592   5.158   3.064   2.066 -0.2360 -0.0165  0.0983
20672SOL     OW62593   0.810   5.281   9.291  0.2796  0.3498 -0.7340
20672SOL    HW162594   0.810   5.215   9.221  0.0112 -0.2025 -0.2274
20672SOL    HW262595   0.869   5.245   9.357 -1.0230 -0.1402  0.2204
20673SOL     OW62596   8.737   2.945   0.041  0.1786  0.1795  0.4881
20673SOL    HW162597   8.698   2.962   0.127 -0.8815 -1.5312  0.3941
20673SOL    HW262598   8.684   2.874   0.004  1.5877 -0.2017 -0.9256
20674SOL     OW62599   2.064   7.751   6.991 -0.0460 -0.0492 -0.0312
20674SOL    HW162600   2.095   7.760   6.901 -1.1003 -1.3403 -0.5547
20674SOL    HW262601   1.972   7.776   6.987  0.0298  0.4040  0.8121
20675SOL     OW62602   3.730   8.913   9.773  0.0906  0.1899 -0.3996
20675SOL    HW162603   3.726   9.008   9.779 -0.9013  0.2392 -1.5626
20675SOL    HW262604   3.820   8.895   9.744  0.6434  0.6772  0.9312
20676SOL     OW62605   8.716   2.623   3.882 -0.4738  0.2918  0.4813
20676SOL    HW162606   8.646   2.628   3.947 -0.6806  1.3453  0.1853
20676SOL    HW262607   8.670   2.624   3.798 -0.1316  0.2879  0.2926
20677SOL     OW62608   8.392   6.452   9.231  0.0889 -0.5697  0.3661
20677SOL    HW162609   8.347   6.510   9.294 -1.1836  0.5637 -1.4914
20677SOL    HW262610   8.454   6.509   9.186  0.0687 -1.0559 -0.2860
20678SOL     OW62611   5.193   3.928   6.716  0.4313 -0.0482 -0.3421
20678SOL    HW162612   5.285   3.907   6.707  0.3245 -0.8059  0.2386
20678SOL    HW262613   5.192   4.020   6.741  1.1169 -0.4278  1.2026
20679SOL     OW62614   0.207   3.992   7.581 -0.1753  0.5667 -0.1256
20679SOL    HW162615   0.279   3.943   7.621  0.3885  2.7246  1.7282
20679SOL    HW262616   0.132   3.973   7.637 -0.2629  0.8071 -0.1631
20680SOL     OW62617   1.744   9.169   5.770  0.4385 -0.0358  0.1600
20680SOL    HW162618   1.749   9.209   5.683  1.3606  0.8775  0.6084
20680SOL    HW262619   1.716   9.079   5.753  1.5351 -0.1622 -1.1729
20681SOL     OW62620   7.102   3.952   8.001  0.4393 -0.2630 -0.6283
20681SOL    HW162621   7.160   3.902   7.943  0.3174 -0.2815 -0.7338
20681SOL    HW262622   7.122   3.920   8.089 -0.9089 -1.8004 -0.8387
20682SOL     OW62623   9.028   2.112   9.580  0.1029  0.2552  0.0431
20682SOL    HW162624   8.957   2.132   9.519  0.8095  1.9523 -0.2787
20682SOL    HW262625   9.101   2.166   9.550  0.6574  0.6904  2.0455
20683SOL     OW62626   6.713   8.719   5.177  0.2524  0.0185  0.2388
20683SOL    HW162627   6.731   8.697   5.086 -0.8018 -0.4970  0.1350
20683SOL    HW262628   6.796   8.751   5.211  0.6279  0.3348 -0.9329
20684SOL     OW62629   9.192   1.938   3.411  0.0170  0.3456  0.1192
20684SOL    HW162630   9.223   1.960   3.323 -0.0766 -0.9769 -0.2603
20684SOL    HW262631   9.235   2.002   3.468  1.7917 -0.1007 -0.6307
20685SOL     OW62632   3.328   9.104   1.658 -0.5290 -0.4641 -0.5163
20685SOL    HW162633   3.345   9.198   1.665 -0.0981 -0.6317  1.6138
20685SOL    HW262634   3.271   9.085   1.733  0.6260 -2.1159  0.0082
20686SOL     OW62635   1.907   7.421   5.115  0.4066 -0.1307  0.1262
20686SOL    HW162636   1.827   7.438   5.165 -1.1681 -1.3487 -1.8099
20686SOL    HW262637   1.903   7.327   5.095  0.7403  0.3218 -2.4926
20687SOL     OW62638   3.084   4.319   8.542 -0.3329  0.3802  0.1365
20687SOL    HW162639   3.161   4.370   8.569  0.5471 -0.1519 -1.2732
20687SOL    HW262640   3.088   4.241   8.597  1.2840 -0.5602 -1.2025
20688SOL     OW62641   8.396   5.817   4.862  0.2044  0.1016 -0.0951
20688SOL    HW162642   8.310   5.776   4.851 -1.2960  2.7604  0.7446
20688SOL    HW262643   8.407   5.824   4.957  0.9731  0.5341 -0.2105
20689SOL     OW62644   4.055   9.305   8.865  0.1814 -0.2340  0.0091
20689SOL    HW162645   4.141   9.304   8.824  1.6610 -0.3254  2.8947
20689SOL    HW262646   4.033   9.213   8.877  0.1801 -0.2040  0.2429
20690SOL     OW62647   0.205   4.615   2.170  0.1010 -0.0322 -0.1370
20690SOL    HW162648   0.249   4.633   2.253  1.1684  0.0618 -0.7083
20690SOL    HW262649   0.176   4.701   2.140  0.9848  0.1268 -0.5522
20691SOL     OW62650   9.358   9.024   7.387  0.2534 -0.2376  0.0316
20691SOL    HW162651   9.421   8.984   7.326  1.0659 -0.7352  1.1688
20691SOL    HW262652   9.281   9.043   7.333  1.2593  0.1035 -1.3245
20692SOL     OW62653   0.342   4.675   6.002 -0.2187  0.4830  0.1407
20692SOL    HW162654   0.419   4.624   6.025 -0.1671  0.7285  0.5077
20692SOL    HW262655   0.351   4.690   5.908  1.5729  2.7780  0.5844
20693SOL     OW62656   6.764   3.479   6.850 -0.4589  0.5509  0.1438
20693SOL    HW162657   6.766   3.558   6.905 -2.0182 -0.1857  1.3043
20693SOL    HW262658   6.847   3.482   6.802 -0.6001  3.0694 -0.1055
20694SOL     OW62659   9.350   4.089   1.019  0.0188 -0.3109 -0.0639
20694SOL    HW162660   9.303   4.116   1.098 -1.1455 -5.2994  1.3238
20694SOL    HW262661   9.442   4.109   1.038 -0.4554  0.3575  1.7112
20695SOL     OW62662   8.078   2.804   7.954  0.1611 -0.0389  0.1237
20695SOL    HW162663   8.146   2.871   7.959  0.3351 -0.1158 -0.9713
20695SOL    HW262664   8.054   2.787   8.046 -0.9953  2.6167  0.4078
20696SOL     OW62665   6.605   7.293   6.846 -0.1873  0.3973  0.0553
20696SOL    HW162666   6.682   7.314   6.794 -0.6076  1.1132 -0.2935
20696SOL    HW262667   6.602   7.198   6.848  2.0536  0.2664  2.0717
20697SOL     OW62668   4.117   0.158   5.374  0.1039  0.0289 -0.0644
20697SOL    HW162669   4.157   0.072   5.371  1.5570  0.6998 -1.6066
20697SOL    HW262670   4.126   0.186   5.466  1.0005 -0.8252  0.1204
20698SOL     OW62671   7.142   2.135   9.702  0.1469 -0.2148  0.3146
20698SOL    HW162672   7.200   2.148   9.627 -0.8152 -0.6534 -0.5404
20698SOL    HW262673   7.068   2.193   9.685  0.6802  0.9672  1.8061
20699SOL     OW62674   5.225   7.414   9.092  0.0318  0.3542 -0.5573
20699SOL    HW162675   5.180   7.480   9.144  1.7540  0.3508  1.0687
20699SOL    HW262676   5.314   7.448   9.082  0.5707 -1.0628 -0.9091
20700SOL     OW62677   3.985   3.992   6.896  0.6965 -0.3694  0.5138
20700SOL    HW162678   4.023   3.963   6.813 -1.1041 -2.5189  0.3333
20700SOL    HW262679   3.910   3.934   6.909  0.7649  0.0859  3.5316
20701SOL     OW62680   2.802   6.895   6.204  0.1568 -0.0576 -0.5521
20701SOL    HW162681   2.877   6.836   6.211  0.7797  0.8025  0.1431
20701SOL    HW262682   2.822   6.950   6.128  0.6444  0.7435  0.1509
20702SOL     OW62683   2.542   5.141   8.493  0.3749  0.2479 -1.1727
20702SOL    HW162684   2.479   5.157   8.424  1.0675  0.0412 -1.8686
20702SOL    HW262685   2.624   5.179   8.460  1.1846 -1.5328 -1.3307
20703SOL     OW62686   9.167   0.292   2.136 -0.1542 -0.0733  0.0499
20703SOL    HW162687   9.228   0.341   2.080 -1.6301  0.6453 -1.0043
20703SOL    HW262688   9.185   0.200   2.116  1.2617  0.0782  0.5312
20704SOL     OW62689   8.890   6.637   8.511 -0.5841  0.2080  0.7156
20704SOL    HW162690   8.948   6.638   8.435  0.2269 -1.2920  1.2607
20704SOL    HW262691   8.934   6.695   8.574 -1.0910  1.1935  0.1882
20705SOL     OW62692   4.736   0.193   8.763 -1.0186  0.0695  0.4356
20705SOL    HW162693   4.713   0.286   8.762  2.5089  1.1018 -1.6364
20705SOL    HW262694   4.793   0.184   8.840  1.2865  0.5104 -1.1275
20706SOL     OW62695   3.169   4.256   1.825  1.1528 -0.5015  0.1015
20706SOL    HW162696   3.245   4.214   1.866  0.3325 -2.7641 -0.5391
20706SOL    HW262697   3.100   4.249   1.891  1.1205  0.2713  0.1536
20707SOL     OW62698   3.631   5.393   3.865 -0.3998  0.7856 -0.0181
20707SOL    HW162699   3.641   5.381   3.770  0.6378 -2.9806  0.4251
20707SOL    HW262700   3.540   5.371   3.882  0.3490 -2.8672  0.1738
20708SOL     OW62701   0.252   9.404   8.258  0.2663 -0.0783 -0.3417
20708SOL    HW162702   0.319   9.430   8.321  0.8947 -1.8978 -0.2125
20708SOL    HW262703   0.171   9.403   8.309  0.6594 -0.8830  0.2878
20709SOL     OW62704   8.077   6.058   3.376  0.7352 -0.0323 -0.3178
20709SOL    HW162705   8.095   6.097   3.462  0.3022  0.7432 -0.5737
20709SOL    HW262706   8.130   6.109   3.315  0.4357 -0.0720 -0.6105
20710SOL     OW62707   9.356   1.917   6.069  0.1477  0.4344  0.1656
20710SOL    HW162708   9.391   1.922   5.980  1.9560  0.8108  0.8634
20710SOL    HW262709   9.264   1.945   6.060 -0.5097 -1.9988 -1.9642
20711SOL     OW62710   5.086   8.445   5.807 -0.0603 -0.2627 -0.2940
20711SOL    HW162711   5.109   8.504   5.879 -1.1282  0.1548 -0.2869
20711SOL    HW262712   5.000   8.411   5.829 -0.9512  0.7894 -1.9323
20712SOL     OW62713   2.055   8.184   5.387 -0.8417  0.1066  0.4613
20712SOL    HW162714   2.148   8.186   5.406 -0.5157 -1.2821 -0.8522
20712SOL    HW262715   2.014   8.149   5.466 -0.0930 -0.6661  0.5094
20713SOL     OW62716   9.229   8.829   9.614  0.2407 -0.0145 -0.1550
20713SOL    HW162717   9.156   8.789   9.661  0.6280 -0.5261  0.0150
20713SOL    HW262718   9.190   8.859   9.532 -0.0558 -0.7762 -0.3058
20714SOL     OW62719   8.854   1.462   1.854  0.7455  0.0217  0.5147
20714SOL    HW162720   8.849   1.527   1.785  3.0237 -0.4506 -0.1910
20714SOL    HW262721   8.825   1.508   1.933  1.5690  1.6580 -0.0950
20715SOL     OW62722   9.784   2.997   5.625 -0.1325 -0.3151  0.3876
20715SOL    HW162723   9.752   2.948   5.549  1.8475 -2.5417  0.8548
20715SOL    HW262724   9.871   3.026   5.600  0.5889 -1.1535  1.7854
20716SOL     OW62725   3.572   1.405   0.104 -0.7444 -0.2737  0.3435
20716SOL    HW162726   3.561   1.333   0.166 -0.0081  0.1109  0.9426
20716SOL    HW262727   3.600   1.363   0.023  2.4320 -0.5411  1.4154
20717SOL     OW62728   4.411   6.492   9.578  0.3732 -0.2462 -0.3346
20717SOL    HW162729   4.442   6.402   9.586 -2.0452 -1.1273 -0.1780
20717SOL    HW262730   4.337   6.487   9.518 -0.4824  1.4568  0.5157
20718SOL     OW62731   8.407   7.403   7.634 -0.1544 -0.5334 -0.1357
20718SOL    HW162732   8.354   7.482   7.643  0.8475  0.1741 -0.3341
20718SOL    HW262733   8.346   7.331   7.654 -1.4933  0.1707 -1.5110
20719SOL     OW62734   7.483   9.224   7.163 -0.3697 -0.4317  0.0744
20719SOL    HW162735   7.477   9.154   7.228 -1.3628 -1.4862 -1.0926
20719SOL    HW262736   7.450   9.302   7.209 -1.3920 -1.2238  0.7308
20720SOL     OW62737   1.516   5.982   3.627  0.4783  0.1711  0.2806
20720SOL    HW162738   1.597   6.002   3.673  0.7121 -0.3101  0.0911
20720SOL    HW262739   1.544   5.937   3.547  0.0109 -0.4558  0.4593
20721SOL     OW62740   9.692   4.876   3.514  0.2841 -0.5454  0.7765
20721SOL    HW162741   9.610   4.878   3.465  1.3031  0.6777 -1.0114
20721SOL    HW262742   9.674   4.925   3.594 -0.1506  1.8644 -0.6901
20722SOL     OW62743   9.484   9.419   4.767 -0.4597 -0.0886 -0.2204
20722SOL    HW162744   9.507   9.509   4.746 -0.4486  0.2076  1.0217
20722SOL    HW262745   9.456   9.421   4.858  0.4861 -1.4949  0.1468
20723SOL     OW62746   3.284   2.458   3.329 -0.8304  0.4027  0.0669
20723SOL    HW162747   3.364   2.503   3.355  0.0582 -1.1499  0.1468
20723SOL    HW262748   3.223   2.473   3.401 -0.1678  0.5034  0.6124
20724SOL     OW62749   9.558   7.461   1.309 -0.1223 -0.2261  0.4889
20724SOL    HW162750   9.652   7.444   1.309  0.1526  1.1470  1.2534
20724SOL    HW262751   9.518   7.374   1.305  1.1597 -0.8715  1.0437
20725SOL     OW62752   6.383   8.675   2.271 -0.0001  0.1740  0.0657
20725SOL    HW162753   6.395   8.622   2.192 -0.9806  0.4488 -0.2822
20725SOL    HW262754   6.291   8.662   2.295  0.1358  0.5512  0.8321
20726SOL     OW62755   6.552   6.451   1.439 -0.1904 -0.1242 -0.7015
20726SOL    HW162756   6.540   6.426   1.348  0.3731 -1.0979 -0.5192
20726SOL    HW262757   6.507   6.536   1.447  1.7168  1.1554 -2.4520
20727SOL     OW62758   2.488   7.452   7.353  0.1447 -0.0617 -0.3420
20727SOL    HW162759   2.474   7.394   7.428  1.6643  0.0826  0.0729
20727SOL    HW262760   2.485   7.395   7.277 -2.2293 -0.1032 -0.3006
20728SOL     OW62761   9.559   2.886   0.268  0.0437 -0.5041  0.3232
20728SOL    HW162762   9.528   2.813   0.215 -0.5015 -0.1485  0.1459
20728SOL    HW262763   9.483   2.912   0.320  0.1743  0.0741  0.2305
20729SOL     OW62764   8.103   8.673   5.453  0.1433  0.1581 -0.0217
20729SOL    HW162765   8.156   8.733   5.401  1.9184 -2.1428 -1.0473
20729SOL    HW262766   8.027   8.654   5.398  0.5986 -0.0905 -0.5726
20730SOL     OW62767   7.783   1.308   1.089 -0.2907 -0.4255  0.3008
20730SOL    HW162768   7.703   1.306   1.141 -0.6932 -1.6919 -0.3079
20730SOL    HW262769   7.759   1.263   1.008  0.8150 -0.0801 -0.2381
20731SOL     OW62770   7.974   7.966   5.171 -0.0109 -0.2974  0.2394
20731SOL    HW162771   8.012   8.053   5.157  0.4541 -0.5594 -0.1364
20731SOL    HW262772   8.010   7.912   5.101 -0.1987 -0.8274  0.5441
20732SOL     OW62773   4.204   6.138   8.644  0.0733 -0.2457  0.3509
20732SOL    HW162774   4.193   6.232   8.658 -0.4286 -0.3874  0.9211
20732SOL    HW262775   4.210   6.101   8.732 -0.2885 -0.8127  0.1407
20733SOL     OW62776   6.889   5.098   9.619 -0.1975 -0.3384 -0.3302
20733SOL    HW162777   6.860   5.135   9.702  1.4952  0.4613 -0.0344
20733SOL    HW262778   6.909   5.007   9.639  0.8671  0.0224  0.3491
20734SOL     OW62779   6.819   9.073   4.291  0.6334  0.1340  0.6519
20734SOL    HW162780   6.898   9.024   4.313  0.3859 -0.6339 -0.1050
20734SOL    HW262781   6.811   9.064   4.196 -1.4025 -1.4654  0.8992
20735SOL     OW62782   5.137   1.258   5.227  0.8339  0.4544  0.2017
20735SOL    HW162783   5.173   1.294   5.308  0.6845  1.5260 -0.1916
20735SOL    HW262784   5.168   1.318   5.159 -0.0396  0.2475 -0.3870
20736SOL     OW62785   9.703   1.738   2.104 -0.3800  0.1694 -0.7900
20736SOL    HW162786   9.691   1.833   2.106 -1.0988  0.1070  1.3891
20736SOL    HW262787   9.614   1.703   2.107 -0.0930 -0.5526 -0.4305
20737SOL     OW62788   1.953   7.092   3.047  0.0222  0.6198  0.0805
20737SOL    HW162789   1.935   7.132   3.132  0.4077  4.0175 -1.3002
20737SOL    HW262790   1.868   7.092   3.003  0.2829  1.1388 -0.4192
20738SOL     OW62791   3.558   5.794   4.635 -0.5793  0.4814  0.7156
20738SOL    HW162792   3.536   5.884   4.610  1.4742  1.1326  1.0713
20738SOL    HW262793   3.598   5.803   4.722 -0.8945 -0.8658  1.0151
20739SOL     OW62794   8.909   2.276   0.398  0.6327  0.0915 -0.0512
20739SOL    HW162795   8.930   2.221   0.474 -2.2417 -0.8803  0.1453
20739SOL    HW262796   8.896   2.214   0.327  0.9077  0.8300 -0.7580
20740SOL     OW62797   6.145   4.726   2.745 -0.2507  0.7760  0.9103
20740SOL    HW162798   6.231   4.767   2.731 -0.2780  0.8060  0.8307
20740SOL    HW262799   6.146   4.648   2.689 -0.0120  0.4014  1.4273
20741SOL     OW62800   5.848   5.072   1.548 -0.0137  0.3436 -0.5564
20741SOL    HW162801   5.793   5.008   1.594 -0.0856  0.9461  0.2020
20741SOL    HW262802   5.842   5.152   1.600  1.1577  0.5827 -0.7659
20742SOL     OW62803   1.329   2.265   0.284  0.0637  0.5060 -0.1032
20742SOL    HW162804   1.383   2.340   0.262  2.0828  1.3250  5.9051
20742SOL    HW262805   1.385   2.189   0.268 -0.6642  0.4054 -2.6785
20743SOL     OW62806   3.190   7.480   1.296 -0.3753 -0.1906 -0.1583
20743SOL    HW162807   3.191   7.548   1.363  0.2037 -0.3890  0.0334
20743SOL    HW262808   3.260   7.420   1.320 -0.1779 -0.2830 -0.9202
20744SOL     OW62809   3.613   0.537   1.239  0.5675 -0.4537  0.1759
20744SOL    HW162810   3.600   0.632   1.245 -1.5557 -0.6198 -1.0660
20744SOL    HW262811   3.694   0.522   1.288  1.9922  2.2111 -1.0922
20745SOL     OW62812   5.379   8.756   3.237 -0.2661  0.4011 -0.0362
20745SOL    HW162813   5.435   8.744   3.160 -0.9675 -1.1958 -0.3371
20745SOL    HW262814   5.399   8.681   3.293  0.3918  1.6386  1.4779
20746SOL     OW62815   2.867   5.653   7.222  0.3763  0.5838 -1.0627
20746SOL    HW162816   2.776   5.638   7.248  0.6238 -0.5623 -0.7809
20746SOL    HW262817   2.868   5.743   7.190 -0.8663  0.6055 -1.1185
20747SOL     OW62818   2.814   9.128   4.963 -0.0777 -0.4158  0.4737
20747SOL    HW162819   2.877   9.125   4.891 -0.6580 -0.0516 -0.0566
20747SOL    HW262820   2.867   9.145   5.041  0.3057  1.8205 -0.2198
20748SOL     OW62821   4.402   1.895   6.783  0.0605 -0.5692 -0.2322
20748SOL    HW162822   4.459   1.880   6.858 -2.4269  0.7592  2.1091
20748SOL    HW262823   4.369   1.984   6.795 -1.6324 -0.8640 -2.0796
20749SOL     OW62824   9.771   8.375   6.548 -0.2138  1.1304  0.0158
20749SOL    HW162825   9.772   8.284   6.577 -0.9596  0.4781 -1.8513
20749SOL    HW262826   9.844   8.416   6.596  0.6157 -0.6106  0.3433
20750SOL     OW62827   7.620   4.959   0.027  0.6363 -0.2512 -0.3442
20750SOL    HW162828   7.543   4.922  -0.015  0.4804 -0.6845  0.3110
20750SOL    HW262829   7.596   4.966   0.120  0.9992  0.6155 -0.3022
20751SOL     OW62830   6.618   7.289   3.306 -0.0155  0.0500  0.4089
20751SOL    HW162831   6.618   7.345   3.383  2.0957 -0.0277  0.5175
20751SOL    HW262832   6.611   7.200   3.340  0.3121  0.0541  0.4954
20752SOL     OW62833   5.840   4.861   9.899 -0.6787 -0.4749  0.6638
20752SOL    HW162834   5.827   4.779   9.851  0.4499 -0.7008  0.7221
20752SOL    HW262835   5.815   4.929   9.836  1.2695 -0.7414 -0.4823
20753SOL     OW62836   0.720   1.504   1.458  0.0289 -0.7329  0.5684
20753SOL    HW162837   0.807   1.466   1.477  0.4231 -1.0748 -1.6645
20753SOL    HW262838   0.732   1.550   1.375 -1.6430  0.3024  0.8715
20754SOL     OW62839   7.908   3.960   4.274  0.1800  0.0523  0.2386
20754SOL    HW162840   7.975   4.017   4.310  0.0609  1.1010 -1.1247
20754SOL    HW262841   7.829   4.014   4.270 -0.1165 -0.4073 -0.4363
20755SOL     OW62842   3.017   2.536   4.815 -0.0220 -0.3150  0.1755
20755SOL    HW162843   3.028   2.464   4.876 -0.2343 -0.2349  0.3119
20755SOL    HW262844   3.084   2.522   4.748  0.2091 -0.4047  0.4237
20756SOL     OW62845   9.265   9.559   8.388  0.4182  0.8807  0.0569
20756SOL    HW162846   9.182   9.586   8.426  0.6893 -0.6737  1.8975
20756SOL    HW262847   9.242   9.493   8.322  0.1474  1.2177 -0.1882
20757SOL     OW62848   7.848   9.862   3.276  0.0353  0.1832  0.3599
20757SOL    HW162849   7.893   9.839   3.358  0.1595  2.2119  0.8998
20757SOL    HW262850   7.755   9.863   3.298 -0.2592 -2.4675 -0.3807
20758SOL     OW62851   8.165   5.213   5.019  0.4750  0.4324  0.1205
20758SOL    HW162852   8.132   5.196   5.107  2.5080 -0.3911  0.7870
20758SOL    HW262853   8.149   5.306   5.005  1.3279  0.8984  1.9392
20759SOL     OW62854   7.673   8.405   0.660  0.0039  0.0800  0.4858
20759SOL    HW162855   7.705   8.343   0.594 -0.8337  0.2280 -0.0725
20759SOL    HW262856   7.585   8.375   0.680  0.0149  0.4237  1.0702
20760SOL     OW62857   1.952   1.723   5.401  0.2365 -0.0473 -0.1713
20760SOL    HW162858   1.994   1.677   5.329  1.5259  0.4778  0.2079
20760SOL    HW262859   1.918   1.803   5.362 -0.4872 -0.5083 -0.4976
20761SOL     OW62860   0.494   6.248   4.494  0.3518  1.0791 -0.2020
20761SOL    HW162861   0.535   6.194   4.427 -2.2585 -1.4678  0.0584
20761SOL    HW262862   0.494   6.336   4.457  2.7951  0.5590 -1.6263
20762SOL     OW62863   5.125   3.971   4.077 -0.0728 -0.7745 -0.8028
20762SOL    HW162864   5.196   4.030   4.054 -1.0863  0.3845 -1.0295
20762SOL    HW262865   5.095   4.001   4.163 -2.9999  1.4764 -2.4593
20763SOL     OW62866   0.378   5.651   8.977 -0.4197  0.0501 -0.3906
20763SOL    HW162867   0.366   5.573   8.923  1.5938  0.0440 -0.8835
20763SOL    HW262868   0.403   5.720   8.916  0.9132  0.2881  0.3977
20764SOL     OW62869   0.776   7.145   3.447 -0.3832  0.9173  0.0021
20764SOL    HW162870   0.843   7.194   3.399 -1.6012  1.9820 -0.6753
20764SOL    HW262871   0.714   7.117   3.379 -1.4963  1.3942  0.7845
20765SOL     OW62872  -0.029   4.925   3.811 -0.1656 -0.1515 -0.4270
20765SOL    HW162873   0.031   4.966   3.749 -0.7451  1.5363  0.0760
20765SOL    HW262874   0.011   4.939   3.897 -0.1785 -1.0069 -0.2778
20766SOL     OW62875   3.009   4.902   0.785 -0.1371  0.1757 -0.3125
20766SOL    HW162876   2.918   4.929   0.792 -0.0032  0.9139 -1.1207
20766SOL    HW262877   3.025   4.848   0.862 -1.0249  0.7063  0.2592
20767SOL     OW62878   7.736   9.347   5.691 -0.5430  0.2609 -0.1145
20767SOL    HW162879   7.820   9.310   5.720  0.4658  2.0148 -0.6511
20767SOL    HW262880   7.754   9.440   5.678 -2.4092  0.5479 -0.9351
20768SOL     OW62881   7.528   9.421   3.001 -0.1413  0.0326 -0.0521
20768SOL    HW162882   7.450   9.387   3.047 -0.2768  1.1869  0.6287
20768SOL    HW262883   7.492   9.475   2.931  0.0449  0.2122 -0.0093
20769SOL     OW62884   1.072   5.770   3.281 -0.0910 -0.1060 -0.3494
20769SOL    HW162885   1.143   5.833   3.290 -0.5059  0.3822 -0.4570
20769SOL    HW262886   1.096   5.716   3.206 -0.6800  1.2003 -1.5222
20770SOL     OW62887   2.312   0.043   6.789 -0.6553  0.2817 -0.6585
20770SOL    HW162888   2.393   0.095   6.788  0.0801 -0.7484  1.1752
20770SOL    HW262889   2.339  -0.043   6.820 -2.3590 -0.3059 -0.7259
20771SOL     OW62890   1.734   5.151   3.325  0.6957  0.7242 -0.1310
20771SOL    HW162891   1.791   5.123   3.397 -0.0302 -0.5833 -0.0234
20771SOL    HW262892   1.758   5.094   3.252 -0.6862 -0.0868  0.0205
20772SOL     OW62893   7.400   3.006   9.632  0.2360  0.0015  0.0488
20772SOL    HW162894   7.442   2.936   9.681  0.9651  0.6226  0.3327
20772SOL    HW262895   7.456   3.020   9.556 -0.2907 -0.1985 -0.3881
20773SOL     OW62896   4.777   1.591   8.811 -0.6668 -0.2646  0.0715
20773SOL    HW162897   4.770   1.528   8.883  1.6903  0.9802  1.4892
20773SOL    HW262898   4.804   1.537   8.736 -0.6569 -1.2345  0.7436
20774SOL     OW62899   6.028   8.727   4.848 -0.0788 -0.4673  0.6757
20774SOL    HW162900   5.934   8.710   4.852 -0.4216  1.0850  0.0037
20774SOL    HW262901   6.039   8.780   4.769  1.6119 -2.0329 -0.2255
20775SOL     OW62902   7.678   7.590   1.988 -0.3543 -0.5313 -0.2800
20775SOL    HW162903   7.691   7.609   1.895 -0.5484  0.9335 -0.0299
20775SOL    HW262904   7.630   7.665   2.022 -0.2069 -0.9943  1.0280
20776SOL     OW62905   7.368   3.819   3.884  0.0115 -0.0978  0.0349
20776SOL    HW162906   7.447   3.798   3.834 -0.1177 -0.3873 -0.0458
20776SOL    HW262907   7.392   3.898   3.934  0.2583 -0.0196 -0.2036
20777SOL     OW62908   3.779   8.088   1.415 -0.4242 -0.5147  0.0153
20777SOL    HW162909   3.770   8.103   1.321 -1.5040 -1.3759 -0.0319
20777SOL    HW262910   3.699   8.122   1.453  0.2867  0.4275  0.7250
20778SOL     OW62911   6.215   4.015   1.849 -0.0089  0.0891 -0.1183
20778SOL    HW162912   6.205   3.926   1.815 -0.8020 -0.2748  0.9933
20778SOL    HW262913   6.219   4.071   1.771 -0.4399 -0.8283 -0.8127
20779SOL     OW62914   3.169   0.555   0.551  0.4705  0.4607  0.7288
20779SOL    HW162915   3.232   0.544   0.622 -0.7874  0.9457  1.9698
20779SOL    HW262916   3.100   0.610   0.588 -0.0369  1.0519 -1.0069
20780SOL     OW62917   4.501   3.342   4.550  0.2215 -0.4496  0.2237
20780SOL    HW162918   4.444   3.268   4.569  1.3739 -1.4835 -0.1797
20780SOL    HW262919   4.441   3.413   4.527 -0.9033 -1.4023  0.1047
20781SOL     OW62920   3.337   7.857   3.013  0.1795 -0.3438  0.2357
20781SOL    HW162921   3.276   7.908   3.065  1.0696  0.0825  0.8890
20781SOL    HW262922   3.282   7.797   2.962 -0.8124  0.5894  0.1847
20782SOL     OW62923   6.654   3.957   8.115 -0.0786 -0.3214 -0.2460
20782SOL    HW162924   6.732   4.013   8.116 -0.7389  0.6133  0.2148
20782SOL    HW262925   6.672   3.890   8.182  0.3268 -0.1022 -0.1340
20783SOL     OW62926   6.400   6.693   4.368  0.0307  0.5627 -0.7038
20783SOL    HW162927   6.365   6.688   4.457 -1.4344  1.1051 -1.2231
20783SOL    HW262928   6.450   6.774   4.366 -0.5162  0.9020 -0.5711
20784SOL     OW62929   7.709   7.695   9.363 -0.4305  0.2479 -0.2485
20784SOL    HW162930   7.727   7.738   9.279 -0.8408  0.9620  0.0210
20784SOL    HW262931   7.650   7.755   9.409  1.2437  0.7912  1.3311
20785SOL     OW62932   3.197   4.699   6.250  0.0697 -0.6757  0.0338
20785SOL    HW162933   3.243   4.624   6.287  0.4696  0.1964  1.3460
20785SOL    HW262934   3.244   4.776   6.284  0.4727  0.1898 -2.2794
20786SOL     OW62935   3.484   3.007   8.945 -0.3528 -0.0854 -0.5360
20786SOL    HW162936   3.532   2.941   8.897  0.5002  0.8980 -1.0744
20786SOL    HW262937   3.518   3.090   8.912 -0.4812  0.6236  1.0308
20787SOL     OW62938   3.209   4.849   1.513 -0.2678  0.0058  0.1673
20787SOL    HW162939   3.297   4.814   1.503 -0.0365  0.3678  0.9105
20787SOL    HW262940   3.219   4.927   1.568 -1.2047 -0.6313  1.2900
20788SOL     OW62941   2.898   6.084   0.048  0.2053  0.1278 -0.1078
20788SOL    HW162942   2.819   6.084  -0.006  1.3744 -1.0416 -1.9362
20788SOL    HW262943   2.928   6.175   0.046  0.5687  0.0174 -2.0544
20789SOL     OW62944   0.521   6.732   9.690  0.3901  0.1504  0.5618
20789SOL    HW162945   0.428   6.725   9.710 -0.3349  1.9351 -1.7741
20789SOL    HW262946   0.546   6.820   9.720  1.0850  0.0327  0.3519
20790SOL     OW62947   5.204   2.890   5.243 -0.2612  0.6825  0.4240
20790SOL    HW162948   5.287   2.873   5.288 -0.0117  1.8949  0.4571
20790SOL    HW262949   5.141   2.903   5.314  0.3913  3.9042  0.5722
20791SOL     OW62950   1.204   2.399   7.184  0.2003 -0.1792  0.0619
20791SOL    HW162951   1.265   2.457   7.230  0.2491  1.2829 -1.7221
20791SOL    HW262952   1.197   2.437   7.096  0.0761 -2.8029 -1.1453
20792SOL     OW62953   2.937   1.725   1.772 -0.2192  0.0894 -0.0378
20792SOL    HW162954   2.907   1.665   1.840 -2.4216 -0.9537 -1.8024
20792SOL    HW262955   2.910   1.811   1.802  1.2121  0.0184  1.6000
20793SOL     OW62956   4.700   0.989   3.386  0.3385 -0.1864 -0.3716
20793SOL    HW162957   4.649   0.941   3.451  0.5252  0.3874  0.2124
20793SOL    HW262958   4.790   0.985   3.419  0.5196 -0.3301 -0.8691
20794SOL     OW62959   0.312   2.301   2.158  0.2335 -0.2432 -0.4488
20794SOL    HW162960   0.220   2.307   2.131  0.5302 -0.7425 -1.6330
20794SOL    HW262961   0.313   2.232   2.224  0.0436 -1.6146 -1.8433
20795SOL     OW62962   5.273   9.510   2.847  0.1496  0.4793 -0.4949
20795SOL    HW162963   5.210   9.578   2.824 -0.4687 -0.1197 -0.5870
20795SOL    HW262964   5.220   9.436   2.877  0.8567  0.7348  1.5631
20796SOL     OW62965   0.908   5.476   3.350 -0.8415  0.5937  0.0831
20796SOL    HW162966   0.892   5.462   3.257  0.4766 -0.9805  0.0391
20796SOL    HW262967   0.875   5.564   3.368 -1.5596  0.7284 -1.7541
20797SOL     OW62968   6.877   6.708   8.350 -0.2357 -0.1209 -0.5524
20797SOL    HW162969   6.782   6.693   8.346 -0.2222 -0.7234  0.8887
20797SOL    HW262970   6.886   6.800   8.372 -0.4887 -0.0495 -0.7448
20798SOL     OW62971   2.836   7.831   7.313  0.1116  0.0993 -0.1560
20798SOL    HW162972   2.862   7.872   7.230 -0.7397 -0.1197 -0.5447
20798SOL    HW262973   2.804   7.903   7.366  2.0824  0.4783  0.5889
20799SOL     OW62974   8.486   5.298   1.671  0.2155  0.4351 -0.1162
20799SOL    HW162975   8.474   5.392   1.654  1.8045  0.8815  0.9914
20799SOL    HW262976   8.410   5.274   1.724  0.3874  1.3976  0.6023
20800SOL     OW62977   2.834   5.447   2.697  0.6818 -0.2405  0.3413
20800SOL    HW162978   2.914   5.447   2.750  0.7675 -0.6022  0.2113
20800SOL    HW262979   2.864   5.425   2.609  0.3793 -0.8384  0.3842
20801SOL     OW62980   5.924   1.698   1.430 -0.1369 -0.2476 -0.0707
20801SOL    HW162981   5.946   1.628   1.490  0.3971 -1.4414 -1.6118
20801SOL    HW262982   5.829   1.691   1.419 -0.6964  1.6256  2.5467
20802SOL     OW62983   0.324   7.661   1.523  0.4323 -0.4500 -0.3627
20802SOL    HW162984   0.238   7.624   1.546 -0.4544  0.4483 -2.0039
20802SOL    HW262985   0.346   7.618   1.440  0.8916  0.3509 -0.6628
20803SOL     OW62986   5.871   6.357   5.300  0.9611  0.1072  0.2004
20803SOL    HW162987   5.961   6.360   5.331  0.9352  0.2743  0.2638
20803SOL    HW262988   5.861   6.270   5.262  1.4586  0.4438 -0.7209
20804SOL     OW62989   5.413   8.774   3.808 -0.3199 -0.3790  0.3265
20804SOL    HW162990   5.445   8.814   3.728 -0.2427 -0.1936  0.4508
20804SOL    HW262991   5.338   8.828   3.835  0.6856  0.5743  1.2986
20805SOL     OW62992   8.977   4.921   8.009  0.1241  0.2348 -0.0002
20805SOL    HW162993   8.917   4.967   8.067 -1.9403 -1.3956 -0.7015
20805SOL    HW262994   8.987   4.834   8.049 -1.1095 -0.8175 -1.8270
20806SOL     OW62995   9.043   5.350   4.892  0.0641  0.0795  0.3093
20806SOL    HW162996   9.027   5.393   4.976  0.8262  0.8744  0.0597
20806SOL    HW262997   9.062   5.421   4.831  0.4428 -0.5481 -0.3282
20807SOL     OW62998   3.604   0.386   3.606 -0.1912  0.7081  0.4271
20807SOL    HW162999   3.674   0.417   3.549  0.2885  0.5326  0.9156
20807SOL    HW263000   3.590   0.458   3.668 -0.0012  0.4868  0.7283
20808SOL     OW63001   6.778   9.098   2.143  0.4407 -0.2654 -0.2581
20808SOL    HW163002   6.838   9.052   2.202  0.3725 -1.5458 -1.1345
20808SOL    HW263003   6.768   9.185   2.182  0.9275 -0.8342  1.2367
20809SOL     OW63004   2.121   4.742   4.971  0.2375  0.0052 -0.1550
20809SOL    HW163005   2.155   4.679   4.908 -0.5628  1.1203 -1.7567
20809SOL    HW263006   2.180   4.817   4.964 -2.1298  1.8170 -2.7059
20810SOL     OW63007   1.217   1.007   0.241 -0.0473 -0.1013  0.3947
20810SOL    HW163008   1.200   1.085   0.295 -0.1750 -0.4309  0.8396
20810SOL    HW263009   1.261   1.041   0.163 -1.6267  0.6145 -0.2099
20811SOL     OW63010   5.591   4.643   9.130  0.3037  0.3897 -0.5013
20811SOL    HW163011   5.513   4.630   9.077  0.8897 -1.1196 -1.0407
20811SOL    HW263012   5.635   4.718   9.090 -0.6554  1.0074 -0.4265
20812SOL     OW63013   3.442   9.293   2.361 -0.0037 -0.7292 -0.2043
20812SOL    HW163014   3.530   9.270   2.390  0.7426  2.6753  0.6697
20812SOL    HW263015   3.386   9.277   2.437 -0.5601 -4.3854 -1.2305
20813SOL     OW63016   4.364   2.184   1.297  0.1568  0.1383 -0.3392
20813SOL    HW163017   4.430   2.133   1.249  1.1462  1.4469 -0.4461
20813SOL    HW263018   4.313   2.226   1.229  0.0524  0.1556 -0.2495
20814SOL     OW63019   2.714   3.006   6.800  0.2351  0.0790  0.1551
20814SOL    HW163020   2.623   3.029   6.818 -0.0343  1.2297 -2.2913
20814SOL    HW263021   2.764   3.084   6.825  0.3682  0.0166  0.0863
20815SOL     OW63022   7.014   3.424   2.120  0.2670  0.3019  0.2157
20815SOL    HW163023   7.037   3.377   2.200  0.1455  0.7455  0.5123
20815SOL    HW263024   6.929   3.388   2.094  0.0580  0.5241  0.5787
20816SOL     OW63025   3.872   0.607   7.787  0.0163  0.1191 -0.4564
20816SOL    HW163026   3.818   0.528   7.793  0.5415 -0.1570  1.1268
20816SOL    HW263027   3.959   0.578   7.815  0.3246  1.1661 -0.3053
20817SOL     OW63028   8.960   0.086   9.654  0.1647  0.1822 -0.4849
20817SOL    HW163029   8.881   0.035   9.636  0.4071  0.0675 -1.2353
20817SOL    HW263030   8.991   0.114   9.568  0.2464  1.2845 -0.1124
20818SOL     OW63031   4.430   0.855   2.336  0.4764  0.3336 -0.5468
20818SOL    HW163032   4.353   0.909   2.322  0.4679  0.7329  0.9241
20818SOL    HW263033   4.504   0.912   2.316  0.4173 -0.1424 -2.2654
20819SOL     OW63034   5.448   2.267   4.611  0.0774  0.1149  0.1909
20819SOL    HW163035   5.479   2.180   4.637  0.5085 -0.2142 -1.3320
20819SOL    HW263036   5.427   2.311   4.694 -1.5629 -1.9362  0.9442
20820SOL     OW63037   7.985   6.877   8.241  0.3114  0.1032 -0.2744
20820SOL    HW163038   7.973   6.876   8.336  0.7508  1.2578 -0.1907
20820SOL    HW263039   8.078   6.899   8.229 -0.4348  3.4441 -0.9433
20821SOL     OW63040   5.361   4.311   5.135  0.1427 -0.8227  0.3935
20821SOL    HW163041   5.317   4.394   5.155  2.1791  0.6467 -0.8560
20821SOL    HW263042   5.311   4.274   5.063 -0.3574 -0.3086  0.4661
20822SOL     OW63043   1.150   1.909   3.024 -0.9821  0.4068  0.2069
20822SOL    HW163044   1.096   1.830   3.021 -0.1007 -0.1975 -1.6354
20822SOL    HW263045   1.203   1.905   2.944  0.5341  1.8609  1.0613
20823SOL     OW63046   0.107   2.100   5.900 -0.1065 -0.0410  0.2421
20823SOL    HW163047   0.124   2.168   5.834 -0.3742 -1.5388 -1.4600
20823SOL    HW263048   0.012   2.101   5.912 -0.0624  0.1996  0.5877
20824SOL     OW63049   3.386   5.298   3.941  0.0891  0.0895  0.2863
20824SOL    HW163050   3.364   5.328   4.029  0.7606 -3.2946  1.7883
20824SOL    HW263051   3.304   5.263   3.906  0.2972 -0.7764  0.6230
20825SOL     OW63052   6.222   3.268   9.701 -0.0573  0.2561 -0.3526
20825SOL    HW163053   6.316   3.271   9.718 -0.1228 -0.1930  0.1500
20825SOL    HW263054   6.193   3.359   9.702  0.1182  0.3214  1.0587
20826SOL     OW63055   9.588   0.816   5.561 -0.3148 -0.0785 -0.6263
20826SOL    HW163056   9.588   0.812   5.466  2.2285 -0.8919 -0.6539
20826SOL    HW263057   9.599   0.908   5.582  1.1408 -0.1143 -1.1726
20827SOL     OW63058   3.280   4.138   6.288 -0.1314  0.6451 -0.1683
20827SOL    HW163059   3.238   4.070   6.236  0.6465  0.3129 -0.3789
20827SOL    HW263060   3.356   4.165   6.236  1.3697 -0.5370  1.2742
20828SOL     OW63061   2.005   3.293   0.637  0.1801 -0.0219 -0.0034
20828SOL    HW163062   2.031   3.262   0.724  1.4052 -1.1440 -0.7228
20828SOL    HW263063   1.996   3.212   0.585 -1.7247  0.5409 -0.6284
20829SOL     OW63064   4.679   9.677   6.026 -0.5123  0.1572  0.2842
20829SOL    HW163065   4.700   9.629   5.946 -3.9984 -3.2768  1.1161
20829SOL    HW263066   4.750   9.655   6.086 -0.6556 -1.9368 -0.2198
20830SOL     OW63067   1.215   8.210   4.205  0.4665  0.1901  0.1771
20830SOL    HW163068   1.153   8.241   4.271 -0.1939 -0.2654 -0.2192
20830SOL    HW263069   1.167   8.216   4.123  2.1605  3.3556 -0.7066
20831SOL     OW63070   7.044   8.124   9.898 -0.2483 -0.2834 -0.5631
20831SOL    HW163071   6.985   8.154   9.967  1.8647  1.9200  0.4405
20831SOL    HW263072   6.994   8.057   9.851 -2.8642  0.2554  1.2255
20832SOL     OW63073   0.358   5.532   8.329 -0.7099  0.4321  0.9537
20832SOL    HW163074   0.270   5.550   8.296 -0.2054  1.0482 -0.0997
20832SOL    HW263075   0.392   5.465   8.269  0.8531  2.7882 -0.9849
20833SOL     OW63076   0.088   7.986   8.385  0.3334 -0.5297  0.5822
20833SOL    HW163077   0.078   8.040   8.463 -0.1912 -1.3566  1.1063
20833SOL    HW263078  -0.001   7.965   8.357  0.5207 -0.9119  0.2469
20834SOL     OW63079   7.392   7.003   8.706  0.4451 -0.3526 -0.1551
20834SOL    HW163080   7.440   6.972   8.629  0.2011 -1.7804  0.2204
20834SOL    HW263081   7.459   7.015   8.773  0.8042  1.9337 -0.8381
20835SOL     OW63082   9.931   1.326   0.714 -0.7397  0.3732 -0.1908
20835SOL    HW163083   9.984   1.322   0.634  0.4012  2.5890  0.4046
20835SOL    HW263084   9.939   1.238   0.751  2.4708  0.5286 -0.2045
20836SOL     OW63085   3.639   3.192   5.268 -0.7385 -0.2255 -0.2010
20836SOL    HW163086   3.662   3.152   5.351  0.2781 -2.2917 -1.3840
20836SOL    HW263087   3.545   3.176   5.258 -0.8841  0.1171  0.5553
20837SOL     OW63088   3.920   3.706   7.726  0.1202 -0.2514 -1.1218
20837SOL    HW163089   3.868   3.685   7.649 -0.7774 -0.7065 -0.4072
20837SOL    HW263090   3.875   3.780   7.767  0.7436  0.1645 -1.1785
20838SOL     OW63091   8.629   7.177   2.176 -0.3603 -0.1282  0.2193
20838SOL    HW163092   8.673   7.169   2.092  0.7428 -2.9506  0.9202
20838SOL    HW263093   8.551   7.121   2.167 -1.2473  1.0346  0.5089
20839SOL     OW63094   3.823   7.117   0.570 -0.4135  0.3044  0.2346
20839SOL    HW163095   3.793   7.175   0.640  1.8165  0.2814  1.2879
20839SOL    HW263096   3.802   7.164   0.489 -0.9475  1.3885  0.9765
20840SOL     OW63097   3.245   1.240   1.334 -0.3990  0.8123  0.0518
20840SOL    HW163098   3.150   1.226   1.337 -0.2416 -1.0479 -1.5513
20840SOL    HW263099   3.262   1.304   1.404 -2.8998  1.7943 -0.1358
20841SOL     OW63100   5.693   3.260   5.931  0.0175  0.0146 -0.2609
20841SOL    HW163101   5.651   3.182   5.967 -0.1791  0.2624  0.0482
20841SOL    HW263102   5.783   3.256   5.963  0.6055 -1.1454 -1.8815
20842SOL     OW63103   7.765   8.238   6.191 -0.1724 -0.2289  0.0504
20842SOL    HW163104   7.671   8.254   6.183 -0.1971 -0.8245 -0.9536
20842SOL    HW263105   7.804   8.325   6.187 -0.7937  0.3082  3.0816
20843SOL     OW63106   3.825   4.262   2.512  0.3329  0.1411 -0.4141
20843SOL    HW163107   3.798   4.338   2.461  1.5816  1.3687  0.6925
20843SOL    HW263108   3.860   4.201   2.447 -0.1622  0.7300 -1.2546
20844SOL     OW63109   4.504   8.084   1.243  0.0966 -0.2092  0.1501
20844SOL    HW163110   4.450   8.162   1.228  0.8061  0.0776 -0.9764
20844SOL    HW263111   4.440   8.015   1.261 -0.7745 -0.1335 -2.2472
20845SOL     OW63112   0.622   9.189   9.165  0.6621  0.1907 -0.3894
20845SOL    HW163113   0.692   9.167   9.226  0.5056  0.1524 -0.2205
20845SOL    HW263114   0.560   9.240   9.217  0.7902  0.6193 -0.6562
20846SOL     OW63115   4.591   7.497   8.472 -0.1502  0.3140  0.1490
20846SOL    HW163116   4.678   7.531   8.489 -0.4193  0.7437  0.6890
20846SOL    HW263117   4.575   7.435   8.543 -0.2901  0.2457  0.0586
20847SOL     OW63118   8.129   1.183   3.747 -0.2874  0.4515 -0.1229
20847SOL    HW163119   8.172   1.102   3.721  0.4310  1.5297 -2.6239
20847SOL    HW263120   8.197   1.234   3.791  0.5379  1.2875 -2.2043
20848SOL     OW63121   0.405   4.774   4.319 -0.0963  0.5236  0.0277
20848SOL    HW163122   0.393   4.787   4.413  1.2324  0.0090  0.2835
20848SOL    HW263123   0.413   4.863   4.284  1.3491  0.6955  0.7033
20849SOL     OW63124   2.763   2.559   3.010 -0.1447  0.3730 -0.3824
20849SOL    HW163125   2.851   2.578   2.979  0.0752 -0.5869 -0.3568
20849SOL    HW263126   2.727   2.645   3.033 -0.0155  1.0356 -2.4734
20850SOL     OW63127   5.451   8.252   4.319  0.0573 -0.2750 -0.1993
20850SOL    HW163128   5.417   8.209   4.397 -0.3203  0.9644  0.3467
20850SOL    HW263129   5.373   8.279   4.270  0.2096  1.8081  0.6267
20851SOL     OW63130   4.637   3.305   4.324 -0.1820 -0.3065 -0.2762
20851SOL    HW163131   4.616   3.319   4.416  0.2715  0.7651 -0.3184
20851SOL    HW263132   4.584   3.370   4.277  0.0128 -0.4640 -0.7222
20852SOL     OW63133   0.218   1.342   4.359  0.8079 -0.2414 -0.0882
20852SOL    HW163134   0.161   1.363   4.285  0.5267 -1.1077 -0.1306
20852SOL    HW263135   0.271   1.421   4.371 -0.6965  0.7555  0.2360
20853SOL     OW63136   7.093   3.384   7.638  0.4511 -0.0703 -0.4280
20853SOL    HW163137   7.078   3.326   7.713 -0.5951 -1.7346 -1.8695
20853SOL    HW263138   7.075   3.330   7.561  3.0308  1.1126 -2.0010
20854SOL     OW63139   0.246   3.590   1.923  0.0053 -0.2851 -0.8516
20854SOL    HW163140   0.296   3.522   1.878 -1.7312 -1.5037 -0.9963
20854SOL    HW263141   0.313   3.640   1.970  1.4022 -1.6472 -1.2912
20855SOL     OW63142   9.494   8.740   1.495  0.2024  0.4534  0.5437
20855SOL    HW163143   9.478   8.649   1.468  1.9399  0.0122  0.8770
20855SOL    HW263144   9.450   8.793   1.429 -0.0712 -0.6244 -0.1662
20856SOL     OW63145   8.799   0.837   6.377  0.1211 -0.7241  0.0005
20856SOL    HW163146   8.810   0.893   6.454 -0.2730 -1.3581  0.5262
20856SOL    HW263147   8.738   0.885   6.321 -1.3043 -1.2423  1.0762
20857SOL     OW63148   7.361  -0.023   2.102 -0.1104 -0.0384  0.2397
20857SOL    HW163149   7.314   0.017   2.029 -1.2022 -0.7108  0.5542
20857SOL    HW263150   7.427   0.042   2.127  0.7637 -0.0708 -1.7850
20858SOL     OW63151   9.893   3.587   8.730 -0.3600 -0.4267 -0.2938
20858SOL    HW163152   9.937   3.579   8.646  0.2485 -1.6834  0.1238
20858SOL    HW263153   9.879   3.497   8.759 -0.5379 -0.0218  0.9598
20859SOL     OW63154   0.152   9.436   6.661  0.0147 -0.5485 -0.1696
20859SOL    HW163155   0.183   9.347   6.672  0.2472 -0.6055 -1.2224
20859SOL    HW263156   0.219   9.479   6.609  0.5087  0.5989  1.3401
20860SOL     OW63157   5.564   0.190   6.276  0.1581 -0.2338  0.1081
20860SOL    HW163158   5.525   0.115   6.232  1.0120 -0.1621 -0.8183
20860SOL    HW263159   5.502   0.262   6.264 -0.5166 -0.6992  0.7328
20861SOL     OW63160   7.064   1.307   5.127 -0.2452  0.2907 -0.1104
20861SOL    HW163161   7.043   1.399   5.139  1.7579  0.5845  1.6161
20861SOL    HW263162   7.031   1.286   5.040 -0.5350  2.6836 -0.6341
20862SOL     OW63163   3.914   8.493   5.815  0.4729  0.0908 -0.1010
20862SOL    HW163164   3.847   8.471   5.879 -1.4584  2.5190 -1.1118
20862SOL    HW263165   3.974   8.551   5.862 -0.2952  0.9463 -0.1525
20863SOL     OW63166   4.021   6.465   7.404 -0.2581 -0.2820 -0.1660
20863SOL    HW163167   3.941   6.517   7.399 -0.1077  0.1910  1.6271
20863SOL    HW263168   4.022   6.431   7.493  1.7495  0.0752 -0.0109
20864SOL     OW63169   6.054   2.877   4.379 -0.9680 -0.4592 -0.1726
20864SOL    HW163170   6.090   2.818   4.445 -0.1781 -0.0090 -0.1799
20864SOL    HW263171   5.961   2.885   4.401 -0.8486 -0.8438  0.4770
20865SOL     OW63172   6.248   5.497   1.258 -0.3489  0.9162  0.2282
20865SOL    HW163173   6.313   5.548   1.307  1.1816  0.3248 -1.0867
20865SOL    HW263174   6.184   5.561   1.229  0.7079  1.8689 -0.0740
20866SOL     OW63175   4.434   5.099   1.597  0.8359  0.3527 -0.2812
20866SOL    HW163176   4.504   5.141   1.548  0.9736 -1.2035 -1.5067
20866SOL    HW263177   4.365   5.084   1.533  0.1849  0.0698  0.4651
20867SOL     OW63178   4.088   5.775   0.516  0.1005 -0.5630 -0.9463
20867SOL    HW163179   4.176   5.766   0.481  0.1130  1.7215 -1.6765
20867SOL    HW263180   4.101   5.800   0.608  0.2366  0.0623 -1.1316
20868SOL     OW63181   5.415   3.527   2.029  0.1409 -0.4347  0.6960
20868SOL    HW163182   5.390   3.439   2.003 -0.6701 -0.4244  1.3807
20868SOL    HW263183   5.368   3.584   1.968  1.0480 -0.4791 -0.0547
20869SOL     OW63184   2.238   9.091   2.336  0.8852  0.1350 -0.4968
20869SOL    HW163185   2.242   9.157   2.267 -0.1378 -0.0067 -0.7210
20869SOL    HW263186   2.191   9.018   2.295  0.5625 -0.0791  0.2488
20870SOL     OW63187   4.296   5.940   2.053  0.2914  0.6961  0.1534
20870SOL    HW163188   4.213   5.987   2.061 -0.3798 -0.7273  2.4088
20870SOL    HW263189   4.287   5.889   1.973 -0.1890  2.0319 -0.6778
20871SOL     OW63190   3.925   1.830   6.838 -0.3061  0.6063 -0.6502
20871SOL    HW163191   3.866   1.766   6.800 -0.6637  1.0329 -0.8300
20871SOL    HW263192   3.887   1.915   6.814  0.6082  0.8956 -1.1333
20872SOL     OW63193   8.697   4.232   6.521 -0.0207  0.4881  0.1647
20872SOL    HW163194   8.792   4.220   6.513 -0.1159 -0.7842  0.7319
20872SOL    HW263195   8.668   4.250   6.432  0.6783  0.3334 -0.1040
20873SOL     OW63196   5.171   5.851   2.654 -0.0714  0.2316 -0.4827
20873SOL    HW163197   5.243   5.914   2.655  0.4349 -0.3384 -0.2851
20873SOL    HW263198   5.189   5.795   2.578 -0.3812  0.1787 -0.5163
20874SOL     OW63199   1.759   5.784   1.899  0.0236 -0.9940  0.3152
20874SOL    HW163200   1.737   5.805   1.989 -0.1643 -0.4604  0.1516
20874SOL    HW263201   1.711   5.703   1.880 -0.5628 -0.6773  0.4449
20875SOL     OW63202   6.184   0.143   4.693  0.0482  0.0924  0.2189
20875SOL    HW163203   6.210   0.094   4.772 -0.2325  0.8176  0.7644
20875SOL    HW263204   6.098   0.179   4.714  0.3223  0.9566 -0.1192
20876SOL     OW63205   5.240   7.930   0.468  0.1221 -0.6691  0.0229
20876SOL    HW163206   5.153   7.964   0.486 -0.4677 -1.1199 -1.8374
20876SOL    HW263207   5.293   7.959   0.543 -1.2850  0.7576  0.5104
20877SOL     OW63208   2.371   6.474   4.736  0.1702  0.8001  0.0995
20877SOL    HW163209   2.377   6.513   4.823  1.8786 -2.1474  1.4535
20877SOL    HW263210   2.459   6.440   4.719 -0.3948  0.3938 -2.3588
20878SOL     OW63211   4.576   9.286   4.124  0.3329  0.3596  0.2532
20878SOL    HW163212   4.671   9.278   4.120  0.2133 -1.0427 -0.7841
20878SOL    HW263213   4.552   9.328   4.041  0.1016  1.6050  0.9336
20879SOL     OW63214   7.319   4.557   9.132  0.2578 -0.0553  0.6568
20879SOL    HW163215   7.239   4.610   9.129  1.0344  1.0840 -0.2976
20879SOL    HW263216   7.362   4.583   9.213  0.1080 -0.0296  0.7294
20880SOL     OW63217   6.594   4.574   3.623  0.1343  1.0772  0.5449
20880SOL    HW163218   6.626   4.557   3.535 -0.2232 -0.0939  0.6217
20880SOL    HW263219   6.547   4.494   3.647  2.5735  0.1730  2.8609
20881SOL     OW63220   8.731   4.154   7.743  0.3824  0.7833 -0.7371
20881SOL    HW163221   8.765   4.176   7.656 -0.1211  2.9814 -0.4396
20881SOL    HW263222   8.658   4.095   7.725 -0.1866  1.7853 -1.8999
20882SOL     OW63223   5.832   0.755   6.274 -0.4916 -0.0404  0.0010
20882SOL    HW163224   5.891   0.686   6.242 -0.8720 -0.3213 -0.1085
20882SOL    HW263225   5.819   0.734   6.366 -2.8751 -1.8532 -0.6127
20883SOL     OW63226   5.879   8.254   9.803  0.1366  0.7695  0.1554
20883SOL    HW163227   5.799   8.305   9.790 -0.7592 -0.9645 -1.7258
20883SOL    HW263228   5.937   8.281   9.732 -1.1309 -2.0672 -2.1894
20884SOL     OW63229   0.597   2.417   8.857  0.1184  0.3388  0.1219
20884SOL    HW163230   0.590   2.423   8.762  0.2236 -1.9815 -0.0896
20884SOL    HW263231   0.514   2.377   8.885  0.9718 -1.1158  0.7092
20885SOL     OW63232   1.587   5.764   9.969  0.1584 -0.4349  0.1657
20885SOL    HW163233   1.637   5.833   9.925  1.8832 -1.8240 -0.1947
20885SOL    HW263234   1.496   5.792   9.963  0.8230  1.9873  0.4022
20886SOL     OW63235   9.760   5.962   6.585  0.0881  0.2144  0.2152
20886SOL    HW163236   9.856   5.960   6.593  0.0329  0.7353  1.0999
20886SOL    HW263237   9.730   6.007   6.663 -0.7707  1.8234 -0.9712
20887SOL     OW63238   8.240   3.548   9.571 -0.3461  0.4232 -0.1994
20887SOL    HW163239   8.153   3.526   9.538  0.0963  0.7910 -1.6475
20887SOL    HW263240   8.291   3.569   9.493  0.8360  0.9551  0.6929
20888SOL     OW63241   4.391   3.866   3.007 -0.2404 -0.1049 -0.2755
20888SOL    HW163242   4.449   3.855   2.932  1.3100 -1.1503  1.0125
20888SOL    HW263243   4.326   3.797   2.998 -0.4752  0.1915 -0.9778
20889SOL     OW63244   1.043   9.918   9.464  0.5408 -0.0866  0.0394
20889SOL    HW163245   1.005  10.006   9.474 -0.5340 -0.5943  0.5018
20889SOL    HW263246   1.020   9.892   9.375  0.3161 -0.1510  0.1158
20890SOL     OW63247   7.828   2.724   9.422  0.1177 -0.2101 -0.4624
20890SOL    HW163248   7.838   2.807   9.376 -1.1535  1.1065  1.4880
20890SOL    HW263249   7.734   2.707   9.420  0.3590 -1.5950 -0.7904
20891SOL     OW63250   1.920   8.255   9.171  0.0580  0.3329 -0.0662
20891SOL    HW163251   1.971   8.299   9.103  2.1925 -2.0725 -0.1435
20891SOL    HW263252   1.866   8.192   9.123  0.3805 -0.2533  0.3274
20892SOL     OW63253   7.799   0.467   0.077 -0.1362  0.2136 -0.5528
20892SOL    HW163254   7.889   0.497   0.065  0.8907 -1.5609  1.8415
20892SOL    HW263255   7.806   0.371   0.082 -1.9186  0.1065  1.0256
20893SOL     OW63256   4.759   3.035   9.672  0.7502 -1.0227  0.4990
20893SOL    HW163257   4.742   2.952   9.717 -2.1295 -1.0262 -0.3850
20893SOL    HW263258   4.730   3.019   9.582  0.3786  0.8523  0.2418
20894SOL     OW63259   0.502   7.342   0.434 -0.1927  0.1161  0.4513
20894SOL    HW163260   0.410   7.319   0.451  0.2370 -1.3215  1.0211
20894SOL    HW263261   0.514   7.324   0.341 -0.4768  0.2784  0.3802
20895SOL     OW63262   2.633   8.765   5.542  0.0712  0.1890  0.5502
20895SOL    HW163263   2.727   8.750   5.534  0.2861  1.9034 -0.5349
20895SOL    HW263264   2.608   8.806   5.459 -1.2386  1.6727  1.6405
20896SOL     OW63265   0.280   0.094   8.379  0.0227  0.2895 -0.8287
20896SOL    HW163266   0.284   0.091   8.474 -0.6958  0.5238 -0.7891
20896SOL    HW263267   0.255   0.006   8.352 -3.8287  1.1471 -0.5660
20897SOL     OW63268   4.381   2.162   6.814 -0.4092 -0.0017 -0.0415
20897SOL    HW163269   4.317   2.222   6.851 -0.6894 -1.5184  2.1177
20897SOL    HW263270   4.462   2.183   6.860  0.0820  0.2578 -0.9922
20898SOL     OW63271   9.847   0.939   6.485 -0.2427  0.2458  0.1867
20898SOL    HW163272   9.822   0.849   6.467  2.0214 -0.2424 -0.8213
20898SOL    HW263273   9.935   0.948   6.448  0.2801  2.3806  1.7290
20899SOL     OW63274   1.319   5.491   1.069 -0.3462 -0.0606  0.0254
20899SOL    HW163275   1.332   5.439   0.989  0.6792  0.8051 -0.3977
20899SOL    HW263276   1.232   5.467   1.099 -0.6190 -0.6622 -1.1739
20900SOL     OW63277   3.148   5.163   6.165  0.3503  1.1025 -0.2453
20900SOL    HW163278   3.182   5.165   6.076  1.1814  0.1384  0.0427
20900SOL    HW263279   3.196   5.232   6.211  1.3590  0.2968 -0.0538
20901SOL     OW63280   1.086   6.278   7.228  0.2304  0.0530  0.4476
20901SOL    HW163281   1.036   6.230   7.162 -0.0755  0.3788  0.4444
20901SOL    HW263282   1.035   6.357   7.245  0.6784  0.3265  0.5372
20902SOL     OW63283   7.127   8.683   3.085 -0.5519  0.3974  0.9214
20902SOL    HW163284   7.192   8.681   3.015 -1.0779  0.4313  0.4209
20902SOL    HW263285   7.121   8.775   3.110 -2.1173  0.8032 -0.6956
20903SOL     OW63286   4.203   1.069   4.965  0.3340 -0.0819 -0.3130
20903SOL    HW163287   4.276   1.061   5.026 -0.4775  0.1990  0.7045
20903SOL    HW263288   4.147   0.994   4.984 -1.1585  1.2976  0.9993
20904SOL     OW63289   5.913   7.317   8.641 -0.0039 -0.0878 -0.6081
20904SOL    HW163290   5.833   7.370   8.637 -0.1764 -0.3669 -0.8904
20904SOL    HW263291   5.977   7.365   8.589  0.4108  0.8015  0.6781
20905SOL     OW63292   9.968   9.907   0.067 -0.6304  0.7814 -0.3041
20905SOL    HW163293   9.925   9.991   0.078 -2.6274 -0.1035 -0.9249
20905SOL    HW263294   9.907   9.843   0.104 -0.2678 -0.6162 -1.9705
20906SOL     OW63295   8.352   3.188   8.404  0.1736  0.0117 -0.4002
20906SOL    HW163296   8.439   3.153   8.423  0.0228  0.4299  1.1757
20906SOL    HW263297   8.293   3.136   8.458 -0.3354  0.9875  0.0037
20907SOL     OW63298   4.711   9.256   1.895  0.3846 -0.2347 -0.2344
20907SOL    HW163299   4.717   9.171   1.938  2.2942 -0.2622 -0.4488
20907SOL    HW263300   4.724   9.236   1.802  0.2246  0.2205 -0.3572
20908SOL     OW63301   7.438   7.476   6.841  0.2483  0.1600  0.0153
20908SOL    HW163302   7.491   7.555   6.829 -1.1255  0.9237 -1.3666
20908SOL    HW263303   7.348   7.508   6.841 -0.3561 -1.4533 -0.9517
20909SOL     OW63304   7.772   9.560   2.128  0.2487  0.2311  0.2677
20909SOL    HW163305   7.771   9.547   2.033 -0.5518  0.1727  0.2768
20909SOL    HW263306   7.863   9.582   2.148  0.0513  2.1539 -0.7633
20910SOL     OW63307   3.430   8.541   9.870 -0.0896  0.1494 -0.0576
20910SOL    HW163308   3.442   8.461   9.819 -2.0681 -0.0510 -0.2809
20910SOL    HW263309   3.479   8.526   9.951 -0.8172 -1.4727  0.1091
20911SOL     OW63310   9.990   7.974   7.860 -0.7453  0.6068  0.1939
20911SOL    HW163311   9.989   7.975   7.764 -2.1573  0.6396  0.1772
20911SOL    HW263312   9.897   7.970   7.884 -0.3849 -0.2394  1.5523
20912SOL     OW63313   4.149   3.015   7.910  0.2652  0.0169  0.2884
20912SOL    HW163314   4.078   2.953   7.899  0.2423  0.0684  0.1492
20912SOL    HW263315   4.187   2.992   7.995  0.4253 -0.3592  0.1192
20913SOL     OW63316   0.823   6.246   1.417 -0.3379 -0.1955  0.2401
20913SOL    HW163317   0.870   6.297   1.351  0.5131 -0.4238  0.6464
20913SOL    HW263318   0.755   6.305   1.449  0.0897  0.3908  0.0951
20914SOL     OW63319   4.284   8.703   7.127 -0.0952  0.2556 -0.0736
20914SOL    HW163320   4.298   8.639   7.197 -1.3553  0.1464  0.1112
20914SOL    HW263321   4.254   8.782   7.172 -0.3583  0.3715 -0.4476
20915SOL     OW63322   8.283   0.456   5.460 -0.6883 -0.3126  0.2480
20915SOL    HW163323   8.351   0.479   5.523 -0.8861  0.7880  0.0919
20915SOL    HW263324   8.331   0.417   5.387 -0.2310  0.2630  0.2287
20916SOL     OW63325   2.168   4.427   1.415 -0.8561  0.0380 -0.0377
20916SOL    HW163326   2.140   4.381   1.335 -1.1807 -1.0150  0.6553
20916SOL    HW263327   2.261   4.406   1.424 -1.1966 -1.2428  0.7404
20917SOL     OW63328   6.249   4.564   8.603  0.0027  0.1900  0.3014
20917SOL    HW163329   6.320   4.624   8.578 -0.4394  0.3783 -0.5495
20917SOL    HW263330   6.210   4.605   8.680  0.0147  0.7444  0.0199
20918SOL     OW63331   0.885   1.586   7.556  0.5821 -0.3226 -0.4865
20918SOL    HW163332   0.866   1.502   7.596 -0.1072 -0.6683 -1.5200
20918SOL    HW263333   0.810   1.604   7.499  2.1303 -0.5408 -2.7321
20919SOL     OW63334   2.732   1.826   6.841  0.4625  0.0929 -0.4420
20919SOL    HW163335   2.668   1.757   6.858  1.2049 -0.5598 -0.2534
20919SOL    HW263336   2.775   1.841   6.925  0.7131  0.3763 -0.6155
20920SOL     OW63337   5.501   6.682   3.262 -0.2272 -0.0162 -0.0192
20920SOL    HW163338   5.445   6.708   3.335 -0.8313 -0.0425 -0.4721
20920SOL    HW263339   5.464   6.599   3.231 -0.7401  0.6279 -1.1635
20921SOL     OW63340   5.344   3.873   7.399  0.3532 -0.0231  0.0374
20921SOL    HW163341   5.283   3.841   7.331 -0.5359  1.0629  0.3068
20921SOL    HW263342   5.426   3.888   7.352  0.7522 -2.3756 -0.1656
20922SOL     OW63343   8.404   7.524   4.694  0.7705  0.1050 -0.4952
20922SOL    HW163344   8.368   7.515   4.782  0.3658 -1.2871 -0.7667
20922SOL    HW263345   8.359   7.600   4.657  1.0296  0.7672  0.5298
20923SOL     OW63346   1.032   8.181   0.102 -0.0923  0.2992  0.4086
20923SOL    HW163347   0.966   8.232   0.149 -0.5714 -1.7201  2.0434
20923SOL    HW263348   0.982   8.112   0.058  0.8527 -1.1297  1.4865
20924SOL     OW63349   3.090   0.223   5.504  0.2554 -0.0046 -0.0988
20924SOL    HW163350   3.106   0.264   5.589  0.4252  2.5497 -1.2693
20924SOL    HW263351   3.105   0.293   5.441 -1.9620 -1.2367 -2.1398
20925SOL     OW63352   0.931   2.832   1.114  0.3073 -0.6333 -0.0854
20925SOL    HW163353   0.976   2.832   1.198  0.8132  1.9584 -0.2741
20925SOL    HW263354   0.889   2.918   1.109 -0.1745 -0.9336 -2.2271
20926SOL     OW63355   9.397   1.075   0.610  0.1588 -0.5756  0.2441
20926SOL    HW163356   9.418   1.167   0.626 -1.4253 -0.2278  0.5897
20926SOL    HW263357   9.481   1.033   0.593  0.7522  1.2889 -1.8412
20927SOL     OW63358   8.981   3.635   2.785  0.9071 -0.0586 -0.0638
20927SOL    HW163359   8.913   3.626   2.852 -0.3220  0.5695 -1.1737
20927SOL    HW263360   9.023   3.549   2.781 -0.3829 -0.7132  0.0868
20928SOL     OW63361   0.071   7.064   1.840 -0.1852  0.5776  0.1847
20928SOL    HW163362   0.049   6.994   1.779 -0.7950 -0.7253  1.8171
20928SOL    HW263363  -0.010   7.115   1.848 -0.1361  0.6870 -0.0172
20929SOL     OW63364   1.562   0.160   7.557 -0.0460  0.2129 -0.0564
20929SOL    HW163365   1.635   0.218   7.578 -0.3210  0.1686  1.0991
20929SOL    HW263366   1.569   0.088   7.620 -1.2025  0.3213  0.2288
20930SOL     OW63367   5.730   9.351   6.266  0.0448 -0.1184 -0.0688
20930SOL    HW163368   5.776   9.350   6.350  2.4725 -0.3680 -1.3212
20930SOL    HW263369   5.734   9.260   6.235 -0.5336  0.0322 -0.6119
20931SOL     OW63370   3.473   2.504   0.433 -0.4434  0.2289 -0.4906
20931SOL    HW163371   3.462   2.589   0.391 -0.6564  1.3594  1.7208
20931SOL    HW263372   3.544   2.517   0.496 -0.5686 -1.1927 -0.0157
20932SOL     OW63373   1.473   2.605   1.117 -0.4327  0.1413  0.1376
20932SOL    HW163374   1.482   2.518   1.155 -1.7995 -0.5308 -0.9782
20932SOL    HW263375   1.433   2.657   1.187 -1.3825 -0.6391  0.1918
20933SOL     OW63376   5.341   4.711   3.260  0.1563 -0.2352 -0.5097
20933SOL    HW163377   5.253   4.681   3.238 -0.1935  2.1049 -2.7941
20933SOL    HW263378   5.341   4.804   3.238  3.2043 -0.1535 -0.6326
20934SOL     OW63379   4.157   2.014   2.019 -0.5083 -0.5079 -0.0101
20934SOL    HW163380   4.248   1.997   2.044 -0.4530 -0.6881 -0.3288
20934SOL    HW263381   4.140   2.104   2.049  0.0577 -0.1473 -0.7577
20935SOL     OW63382  10.007   1.955   0.530 -0.0442 -0.6960  0.0802
20935SOL    HW163383   9.940   2.024   0.529  0.6150  0.0471  2.0080
20935SOL    HW263384   9.961   1.878   0.563 -0.0576 -0.2850  1.0503
20936SOL     OW63385   6.533   0.205   6.078  0.1723  0.3706 -0.1593
20936SOL    HW163386   6.494   0.118   6.071 -0.0724  0.3365  1.3179
20936SOL    HW263387   6.625   0.189   6.098  0.1573  0.4547 -0.0237
20937SOL     OW63388   1.088   8.925   4.214  0.5425 -0.2928  0.0472
20937SOL    HW163389   1.137   8.864   4.270  1.4840  0.0039 -0.4346
20937SOL    HW263390   1.050   8.987   4.275  1.5637  0.0277  0.3885
20938SOL     OW63391   5.606   2.063   0.502 -0.1877  0.3701 -0.5110
20938SOL    HW163392   5.529   2.075   0.557 -0.2743  0.4875 -0.6577
20938SOL    HW263393   5.679   2.064   0.563 -0.2182  1.2936 -0.4764
20939SOL     OW63394   3.238   5.022   0.989 -0.5041 -0.7666  0.0055
20939SOL    HW163395   3.255   5.107   1.031  0.1448 -0.1825 -1.3616
20939SOL    HW263396   3.142   5.014   0.990 -0.5344 -0.4516  0.9493
20940SOL     OW63397   1.788   2.654   9.475  0.2344  0.7266  0.1480
20940SOL    HW163398   1.748   2.720   9.531 -0.7044 -0.3645  0.7907
20940SOL    HW263399   1.769   2.683   9.386 -0.1969  1.3022  0.4239
20941SOL     OW63400   2.617   2.367   6.922 -0.6459 -0.3727  0.0271
20941SOL    HW163401   2.523   2.359   6.938 -0.4775 -1.4631  0.5596
20941SOL    HW263402   2.658   2.318   6.993  0.3398  0.2237 -0.1113
20942SOL     OW63403   6.055   0.677   0.453  0.0364  0.3042  0.5146
20942SOL    HW163404   6.015   0.596   0.486  0.1026  0.5687  1.2670
20942SOL    HW263405   6.017   0.746   0.508  1.5582  0.5603  1.2891
20943SOL     OW63406   4.010   7.890   3.911 -0.1238 -0.2254  0.0807
20943SOL    HW163407   4.056   7.827   3.856  0.3374  0.9451 -0.9241
20943SOL    HW263408   3.923   7.851   3.925 -0.5438 -0.2542 -2.1289
20944SOL     OW63409   1.389   9.885   8.543  0.9522 -0.1120 -0.8511
20944SOL    HW163410   1.437   9.838   8.611 -0.7686 -0.1124  0.4323
20944SOL    HW263411   1.389   9.976   8.573  0.2509 -0.1013 -0.8727
20945SOL     OW63412   0.861   1.676   4.906  0.3618  0.2992 -0.4168
20945SOL    HW163413   0.917   1.751   4.884  1.6229 -0.7117 -0.8123
20945SOL    HW263414   0.778   1.693   4.861  0.2536  1.9343  0.3370
20946SOL     OW63415   0.043   8.287   9.451 -0.0416 -0.3763  0.0953
20946SOL    HW163416  -0.033   8.296   9.509 -1.6094 -2.4856 -1.4469
20946SOL    HW263417   0.105   8.233   9.500 -0.3273 -0.1818  0.6751
20947SOL     OW63418   1.344   5.655   7.523  0.2531  0.1484  0.2307
20947SOL    HW163419   1.322   5.647   7.430 -0.6983 -0.9425  0.5250
20947SOL    HW263420   1.409   5.587   7.539  1.2703  1.0748  0.1367
20948SOL     OW63421   1.584   8.873   9.195 -0.2645 -0.1546  0.0038
20948SOL    HW163422   1.669   8.833   9.181  0.7114  1.8663 -0.3006
20948SOL    HW263423   1.603   8.966   9.206 -2.4031  0.3046  0.3491
20949SOL     OW63424   9.525   0.927   8.961 -0.1582 -0.0980  0.1411
20949SOL    HW163425   9.458   0.865   8.933  0.6985 -0.3526 -1.5346
20949SOL    HW263426   9.595   0.873   8.998  0.4035 -0.1499 -0.9301
20950SOL     OW63427   5.165   0.999   3.728 -0.0435  0.4114 -0.3260
20950SOL    HW163428   5.166   1.095   3.723 -1.1725  0.5282  1.0744
20950SOL    HW263429   5.258   0.975   3.734  0.2434  1.4480 -0.3455
20951SOL     OW63430   4.181   6.610   3.884 -0.1759  0.0591 -1.0826
20951SOL    HW163431   4.257   6.632   3.937 -0.7108 -1.8266  0.5554
20951SOL    HW263432   4.198   6.522   3.851 -1.4704 -0.2716 -0.9513
20952SOL     OW63433   5.961   3.893   8.231  0.3389  0.1902  0.2676
20952SOL    HW163434   5.976   3.904   8.137  2.1421 -0.0748  0.5061
20952SOL    HW263435   5.993   3.974   8.270  0.9201 -0.2727  0.7713
20953SOL     OW63436   0.325   8.123   6.195  0.4882 -0.2482 -0.1177
20953SOL    HW163437   0.380   8.089   6.125  0.4765  0.5748 -0.5357
20953SOL    HW263438   0.237   8.094   6.172  0.3155  0.9643 -1.0608
20954SOL     OW63439   4.445   6.467   0.610 -0.4497 -0.3665  0.2045
20954SOL    HW163440   4.404   6.494   0.692 -0.8274  0.6390 -0.2999
20954SOL    HW263441   4.484   6.548   0.575 -0.6454 -0.6949 -0.8046
20955SOL     OW63442   2.833   0.067   6.982  0.1013  0.0036 -0.1356
20955SOL    HW163443   2.790   0.032   6.904 -0.3466  1.9153 -0.8119
20955SOL    HW263444   2.915   0.018   6.990  0.0839 -0.3095 -1.7200
20956SOL     OW63445   1.463   2.114   8.333  0.0567  0.3449 -0.3804
20956SOL    HW163446   1.486   2.074   8.417  1.4136 -3.1133 -2.2184
20956SOL    HW263447   1.371   2.090   8.320  0.3034 -0.5233 -0.5725
20957SOL     OW63448   1.978   4.048   9.495 -0.2803  0.0938 -0.1956
20957SOL    HW163449   2.001   3.995   9.418 -0.5505  1.2445 -1.1004
20957SOL    HW263450   1.896   4.010   9.526 -0.0034 -0.5869 -0.2717
20958SOL     OW63451   7.957   5.351   6.336 -0.2052 -0.4879 -0.1264
20958SOL    HW163452   7.947   5.260   6.365  1.2956 -0.6449 -0.0369
20958SOL    HW263453   8.017   5.390   6.398 -0.3901  0.4190 -0.5004
20959SOL     OW63454   3.426   3.440   1.407 -0.2216 -0.0936  0.1828
20959SOL    HW163455   3.414   3.500   1.481 -1.8181  0.2357 -0.2861
20959SOL    HW263456   3.338   3.432   1.370  0.5328 -0.2695 -1.6561
20960SOL     OW63457   3.486   1.941   3.832  0.6920 -0.6724 -0.2913
20960SOL    HW163458   3.446   2.013   3.882  0.6154  0.6799 -2.1703
20960SOL    HW263459   3.580   1.958   3.836  0.6774 -0.4864 -0.6929
20961SOL     OW63460   7.737   6.776   3.732  0.4367  0.2439 -0.4387
20961SOL    HW163461   7.807   6.824   3.778 -0.6592  0.7949  0.7304
20961SOL    HW263462   7.777   6.747   3.651  1.5821  1.8835 -0.5101
20962SOL     OW63463   3.091   0.285   1.841  0.2474  0.4550  0.0017
20962SOL    HW163464   3.097   0.380   1.850  0.1885  0.4559  0.0334
20962SOL    HW263465   3.056   0.271   1.753 -1.3285  0.5123  0.5887
20963SOL     OW63466   1.016   4.608   4.115 -0.3879 -0.5291 -0.1285
20963SOL    HW163467   1.049   4.689   4.075  0.6598 -0.1477  1.4251
20963SOL    HW263468   1.058   4.605   4.201  2.2347 -4.3450 -1.2608
20964SOL     OW63469   0.370   8.389   6.275  0.4895 -0.2103  0.3024
20964SOL    HW163470   0.453   8.413   6.316  0.7824 -0.6483 -0.0303
20964SOL    HW263471   0.374   8.294   6.266  0.1345 -0.1894 -0.1166
20965SOL     OW63472   5.228   3.985   8.235  0.8108  0.2761  0.1177
20965SOL    HW163473   5.214   3.902   8.281 -0.5728 -0.1946 -1.0419
20965SOL    HW263474   5.251   3.958   8.146  0.3937  1.1306 -0.2605
20966SOL     OW63475   6.280   6.818   5.870 -0.3805  0.5671  0.0612
20966SOL    HW163476   6.364   6.862   5.860  0.4417 -0.8823  0.3525
20966SOL    HW263477   6.218   6.889   5.887  1.0023  1.5585  1.2135
20967SOL     OW63478   9.862   8.373   5.232 -0.6250  0.0299  0.3260
20967SOL    HW163479   9.871   8.374   5.328  0.0411  2.0598  0.2731
20967SOL    HW263480   9.779   8.417   5.215  0.7738  2.7160 -0.0912
20968SOL     OW63481   6.987   9.926   2.978 -0.3246 -0.2569 -0.0483
20968SOL    HW163482   6.999   9.982   3.055  0.2490  1.7566 -1.5296
20968SOL    HW263483   6.898   9.944   2.949  0.0602  0.3991 -0.8772
20969SOL     OW63484   1.251   5.862   3.594 -0.0913  0.2500 -0.1296
20969SOL    HW163485   1.321   5.924   3.613  2.2842 -2.7197  1.7533
20969SOL    HW263486   1.292   5.797   3.536 -1.1255 -1.7119  1.2229
20970SOL     OW63487   9.655   0.943   8.393 -0.2650  0.1782  0.5609
20970SOL    HW163488   9.671   0.880   8.463  0.0438  0.2668  0.5728
20970SOL    HW263489   9.560   0.956   8.392 -0.4456 -1.0432 -0.0921
20971SOL     OW63490   9.044   8.791   1.283 -0.7103  0.2333 -0.1032
20971SOL    HW163491   8.970   8.798   1.223 -0.6231  2.6750 -0.0218
20971SOL    HW263492   9.031   8.862   1.346  1.9048  1.0438 -0.3585
20972SOL     OW63493   9.064   1.715   0.359 -0.1921  0.0117 -0.1163
20972SOL    HW163494   9.121   1.713   0.436  1.1165 -1.4894 -1.0578
20972SOL    HW263495   8.977   1.735   0.393 -0.1020 -2.7535  2.0777
20973SOL     OW63496   8.730   5.961   5.879 -0.5798 -0.5672  0.1013
20973SOL    HW163497   8.769   5.878   5.906 -0.9739 -2.3248 -3.9601
20973SOL    HW263498   8.643   5.961   5.919 -0.7403 -2.3827 -0.1621
20974SOL     OW63499   2.315   9.566   2.517 -0.4243  0.5860  0.5210
20974SOL    HW163500   2.389   9.617   2.483 -0.7018  0.5821 -0.0962
20974SOL    HW263501   2.327   9.479   2.480 -0.9412  0.6837  0.1108
20975SOL     OW63502   2.591   8.167   2.485  0.5610  0.5269 -0.2269
20975SOL    HW163503   2.591   8.098   2.419 -0.0593 -0.6233  0.9406
20975SOL    HW263504   2.620   8.245   2.437 -1.9815  0.2718 -2.3887
20976SOL     OW63505   9.512   8.182   1.961  0.1350 -0.2894 -0.1461
20976SOL    HW163506   9.567   8.261   1.967  1.4446 -1.0043 -2.0288
20976SOL    HW263507   9.450   8.191   2.034  1.1328  1.7889  0.5267
20977SOL     OW63508   2.695   4.125   2.613 -0.1714  0.3555 -0.1653
20977SOL    HW163509   2.767   4.168   2.567 -0.3303  0.1692 -0.5872
20977SOL    HW263510   2.697   4.163   2.701 -0.6911  1.6762 -0.7066
20978SOL     OW63511   9.688   2.753   9.312 -0.0246  0.2750  0.6480
20978SOL    HW163512   9.648   2.815   9.251 -1.5311 -0.7031  0.5690
20978SOL    HW263513   9.747   2.806   9.365 -1.8708  1.9741  1.1425
20979SOL     OW63514   8.576   5.963   0.341 -0.0537  0.1230 -0.1007
20979SOL    HW163515   8.536   5.960   0.428 -0.2915 -0.7159 -0.2331
20979SOL    HW263516   8.668   5.983   0.357 -0.4845  2.0173  0.2130
20980SOL     OW63517   1.284   9.231   4.115  0.1636  0.1113 -0.2076
20980SOL    HW163518   1.330   9.213   4.196  0.7353 -0.2428 -0.6050
20980SOL    HW263519   1.263   9.145   4.079  0.1076  0.2624 -0.5432
20981SOL     OW63520   1.496   2.984   1.832  0.1457 -0.0932  0.1818
20981SOL    HW163521   1.559   3.035   1.780  0.6111  0.0808  0.9064
20981SOL    HW263522   1.550   2.921   1.880 -0.2804 -0.2191  0.5008
20982SOL     OW63523   8.550   1.701   6.748  0.5729 -0.1716 -0.1354
20982SOL    HW163524   8.455   1.691   6.745  0.5696 -0.9673  1.4258
20982SOL    HW263525   8.573   1.683   6.840  1.9449  2.6344  0.1919
20983SOL     OW63526   4.275   1.771   1.790  0.3497 -0.3996  0.5824
20983SOL    HW163527   4.207   1.838   1.786 -0.3847 -1.1413  0.1765
20983SOL    HW263528   4.250   1.707   1.723  2.0030 -0.1878 -0.3039
20984SOL     OW63529   3.259   5.229   9.248  0.0945  0.1480 -0.1494
20984SOL    HW163530   3.293   5.140   9.251  0.5569  0.3086  2.2925
20984SOL    HW263531   3.228   5.246   9.338 -0.6829  2.1799 -0.7277
20985SOL     OW63532   0.852   0.830   7.803 -0.7426 -0.5103  0.0155
20985SOL    HW163533   0.833   0.910   7.753 -0.3342 -0.1358  0.4526
20985SOL    HW263534   0.871   0.764   7.736 -0.5208 -0.0942 -0.3367
20986SOL     OW63535   9.338   3.739   2.772 -0.2723  0.1673 -0.0832
20986SOL    HW163536   9.378   3.789   2.843 -1.0457  2.0239 -0.8988
20986SOL    HW263537   9.246   3.766   2.772 -0.1870  0.6478 -2.1010
20987SOL     OW63538   2.236   7.851   5.103 -0.5037  0.1405  0.2301
20987SOL    HW163539   2.260   7.764   5.071 -0.9260  0.1657 -0.1597
20987SOL    HW263540   2.243   7.907   5.026  0.0450  0.5092  0.5428
20988SOL     OW63541   5.920   5.698   8.044  0.2946  0.4104  0.3747
20988SOL    HW163542   5.920   5.792   8.027 -0.1114  0.2945 -0.3248
20988SOL    HW263543   5.861   5.687   8.119 -0.3713  0.6347 -0.1027
20989SOL     OW63544   0.716   2.168   0.036 -0.2330 -0.4487 -0.3569
20989SOL    HW163545   0.790   2.222   0.008 -0.1805 -0.1903  0.2609
20989SOL    HW263546   0.756   2.101   0.092 -0.2152 -1.5062 -1.5878
20990SOL     OW63547   5.281   5.483   9.162 -0.1294 -0.0465 -0.2731
20990SOL    HW163548   5.214   5.536   9.206 -1.0498 -2.1934  1.1069
20990SOL    HW263549   5.318   5.541   9.096 -1.0024  2.3162  1.1615
20991SOL     OW63550   7.956   5.563   2.561  0.2965  0.3272 -0.2868
20991SOL    HW163551   7.907   5.644   2.543  1.2251  0.5053 -2.3349
20991SOL    HW263552   7.889   5.500   2.587 -1.2129  0.4188 -3.4344
20992SOL     OW63553   4.123   1.274   1.915 -0.3233 -0.3116  0.5254
20992SOL    HW163554   4.071   1.289   1.836  0.1462  0.4029  0.3410
20992SOL    HW263555   4.112   1.181   1.934 -0.5299 -0.4675 -0.3279
20993SOL     OW63556   8.597   7.378   9.625  0.1142  0.3285  0.0260
20993SOL    HW163557   8.551   7.409   9.546  1.9452  0.1512 -1.1625
20993SOL    HW263558   8.528   7.336   9.677 -1.1754  0.5471 -1.4194
20994SOL     OW63559   3.971   1.088   6.715  0.4686 -0.5881 -0.1855
20994SOL    HW163560   3.989   1.167   6.665 -0.2799 -0.0155  0.4281
20994SOL    HW263561   4.032   1.092   6.789 -0.8530  0.4194  0.8948
20995SOL     OW63562   2.881   5.989   6.281  0.0645 -0.7670  0.3608
20995SOL    HW163563   2.826   5.970   6.205  0.2230  0.1841 -0.0076
20995SOL    HW263564   2.963   6.022   6.244  0.3282 -0.7601  0.9395
20996SOL     OW63565   4.964   7.550   9.687  0.1023 -0.1289 -0.4363
20996SOL    HW163566   5.054   7.581   9.682 -0.5935  2.0836 -0.3068
20996SOL    HW263567   4.957   7.511   9.775  0.2354  2.2478  0.6975
20997SOL     OW63568   3.171   2.329   7.908 -0.1833 -0.0668 -0.4191
20997SOL    HW163569   3.085   2.289   7.919  0.1339 -0.6897 -0.1103
20997SOL    HW263570   3.154   2.422   7.900 -0.8025 -0.0297  0.9556
20998SOL     OW63571   2.109   7.482   1.716  0.0727 -0.3145 -0.3938
20998SOL    HW163572   2.052   7.559   1.724  0.0670 -0.2894 -0.6604
20998SOL    HW263573   2.130   7.478   1.622 -0.2706 -0.8852 -0.4520
20999SOL     OW63574   2.095   3.751   1.227 -0.1463  0.8253  0.2567
20999SOL    HW163575   2.040   3.708   1.294  0.7310  0.5613  0.8271
20999SOL    HW263576   2.062   3.717   1.144  0.3984 -0.8671  0.6813
21000SOL     OW63577   5.963   7.324   5.736  0.0498 -0.7618 -0.1166
21000SOL    HW163578   5.874   7.338   5.769 -0.3650 -2.7722 -0.2293
21000SOL    HW263579   6.001   7.263   5.800  0.4081 -2.0017 -1.4671
21001SOL     OW63580   2.233   4.172   3.665 -1.0637  1.0831  0.4602
21001SOL    HW163581   2.268   4.228   3.734  1.0949 -0.9969  1.2271
21001SOL    HW263582   2.204   4.232   3.596  2.7120  3.1845  0.4302
21002SOL     OW63583   7.455   0.761   4.887  0.2192  0.1524 -0.0285
21002SOL    HW163584   7.512   0.837   4.888 -0.8433  0.9799  1.4540
21002SOL    HW263585   7.379   0.788   4.834  0.6587 -0.5599 -1.0705
21003SOL     OW63586   8.569   5.312   6.267  0.4688  0.3766  0.4155
21003SOL    HW163587   8.578   5.352   6.353  2.3039  0.0569  0.4267
21003SOL    HW263588   8.658   5.309   6.233  0.2398 -2.2230 -0.2274
21004SOL     OW63589   2.343   5.454   9.318 -0.4161 -0.4253 -0.0123
21004SOL    HW163590   2.380   5.462   9.406  1.6325 -0.8200 -0.7608
21004SOL    HW263591   2.250   5.435   9.331  0.1663 -2.1598  2.1022
21005SOL     OW63592   1.337   4.650   1.895  0.2658 -0.2397  0.0989
21005SOL    HW163593   1.364   4.741   1.880 -1.0181  0.1971  0.2451
21005SOL    HW263594   1.402   4.615   1.955  1.3912  0.2385 -0.7825
21006SOL     OW63595   2.962   3.824   7.163  0.1341  0.1755  0.7766
21006SOL    HW163596   2.945   3.836   7.070  0.0958  1.2988  0.9220
21006SOL    HW263597   2.972   3.912   7.198  0.9131 -0.2599  1.7032
21007SOL     OW63598   1.623   2.549   6.733  0.0362 -0.5683  0.3340
21007SOL    HW163599   1.669   2.631   6.712  0.9897 -1.1532  0.0796
21007SOL    HW263600   1.570   2.532   6.655  0.3735 -0.5520  0.0965
21008SOL     OW63601   6.372   7.628   9.460 -0.3499 -0.2801 -0.1360
21008SOL    HW163602   6.288   7.674   9.463  0.2677  0.8541  0.0400
21008SOL    HW263603   6.388   7.601   9.550 -0.3731 -0.2197 -0.1138
21009SOL     OW63604   5.476   2.858   4.598  0.4013  0.2000 -0.1111
21009SOL    HW163605   5.392   2.859   4.552  0.6600 -1.7584 -0.7157
21009SOL    HW263606   5.538   2.897   4.536 -0.0700  2.0149  0.4830
21010SOL     OW63607   6.135   9.876   4.909 -0.7947  0.0212  0.0345
21010SOL    HW163608   6.045   9.901   4.889 -0.2128  1.0456 -1.5244
21010SOL    HW263609   6.132   9.781   4.917 -1.9083 -0.0224 -0.6499
21011SOL     OW63610   9.419   2.328   9.848 -0.6099  0.2812 -0.2919
21011SOL    HW163611   9.334   2.310   9.888  0.5773  0.1838  2.4333
21011SOL    HW263612   9.470   2.249   9.865  0.0404  0.3274 -1.9143
21012SOL     OW63613   7.512   9.496   5.051  0.2631 -0.0136 -0.0119
21012SOL    HW163614   7.517   9.526   4.961  0.9446 -1.1219 -0.3667
21012SOL    HW263615   7.557   9.564   5.102  0.0985  0.4925 -0.5368
21013SOL     OW63616   1.523   5.026   2.727 -0.5660  0.0401  0.9133
21013SOL    HW163617   1.512   4.931   2.723  0.5726 -0.0652 -0.2129
21013SOL    HW263618   1.618   5.040   2.735 -0.7575  1.0723  1.6683
21014SOL     OW63619   5.412   1.569   5.762  0.3543 -0.2611  0.5599
21014SOL    HW163620   5.325   1.608   5.764  0.8644  0.9746  3.4570
21014SOL    HW263621   5.456   1.610   5.688 -1.9280 -2.0916 -1.9857
21015SOL     OW63622   0.455   2.037   0.257 -0.3141 -0.2857 -0.4107
21015SOL    HW163623   0.548   2.040   0.238 -0.5512  0.8931 -1.5366
21015SOL    HW263624   0.422   1.965   0.203 -0.4232  0.8598 -1.9364
21016SOL     OW63625   9.199   2.724  10.012 -0.3804  0.2704 -0.0464
21016SOL    HW163626   9.160   2.646   9.973 -0.4357 -0.1609  0.8472
21016SOL    HW263627   9.228   2.776   9.937 -3.7218  1.2113 -0.8506
21017SOL     OW63628   3.312   1.332   6.600  0.1739 -0.1518  0.0127
21017SOL    HW163629   3.327   1.408   6.543 -2.3251  0.6466  0.2658
21017SOL    HW263630   3.294   1.260   6.539  0.9313 -0.1531 -0.2178
21018SOL     OW63631   6.934   4.014   6.418  0.6437 -0.3692 -0.7322
21018SOL    HW163632   6.839   4.022   6.414  0.5110 -1.2788  0.4219
21018SOL    HW263633   6.953   3.986   6.507  2.1570  1.9302 -0.2410
21019SOL     OW63634   2.610   7.712   6.023 -0.2634  0.0593 -0.5021
21019SOL    HW163635   2.695   7.728   6.064  0.4853  2.7211 -2.7783
21019SOL    HW263636   2.547   7.756   6.080  0.4886  1.8932 -1.0312
21020SOL     OW63637   4.114   3.209   8.446 -0.1935  0.2928  0.0984
21020SOL    HW163638   4.152   3.255   8.522 -1.3416 -0.5824  1.2498
21020SOL    HW263639   4.021   3.233   8.448  0.1760  2.6660 -2.8569
21021SOL     OW63640   7.561   1.598   0.308  0.2045 -0.0774  0.1718
21021SOL    HW163641   7.622   1.564   0.243  0.0123 -0.2661  0.0902
21021SOL    HW263642   7.475   1.569   0.278  0.0210  0.6265  0.0011
21022SOL     OW63643   5.606   1.436   8.771  0.3118 -0.0127 -0.2366
21022SOL    HW163644   5.516   1.423   8.741  0.7958  0.8834 -2.2797
21022SOL    HW263645   5.656   1.365   8.730  0.7887  0.4703 -0.5058
21023SOL     OW63646   6.884   7.187   0.870 -0.0811  0.0668 -0.2735
21023SOL    HW163647   6.820   7.149   0.810 -0.3787  0.1829 -0.0301
21023SOL    HW263648   6.862   7.280   0.874  0.1732  0.1282 -0.2777
21024SOL     OW63649   8.909   1.875   9.944 -1.2638 -0.3836 -0.6282
21024SOL    HW163650   8.876   1.793   9.979 -1.0264  0.2790  1.2723
21024SOL    HW263651   9.003   1.874   9.963 -1.5831  1.2182  1.5185
21025SOL     OW63652   6.206   8.482   8.482 -0.1476 -0.2383  0.1812
21025SOL    HW163653   6.175   8.456   8.569 -1.9733  0.6447 -0.1722
21025SOL    HW263654   6.168   8.418   8.422 -1.1784  0.7268 -0.2319
21026SOL     OW63655   7.670   2.338   4.501 -0.1779 -0.3774 -0.1111
21026SOL    HW163656   7.693   2.420   4.546 -0.2914  0.3307 -1.3097
21026SOL    HW263657   7.730   2.335   4.426  1.7133 -2.7748  1.3488
21027SOL     OW63658   0.185   7.353   0.128  0.6596  0.1364  0.3424
21027SOL    HW163659   0.264   7.312   0.165 -0.0183 -1.1475  0.4393
21027SOL    HW263660   0.213   7.384   0.042  0.9195 -1.7235 -0.2978
21028SOL     OW63661   5.703   5.940   8.354 -0.5416  0.0289  0.2622
21028SOL    HW163662   5.631   5.998   8.379 -0.0558  0.9848 -0.4734
21028SOL    HW263663   5.735   5.976   8.271 -0.4447 -1.5147 -0.4089
21029SOL     OW63664   2.689   6.680   4.737 -0.3122 -0.3357 -0.1819
21029SOL    HW163665   2.749   6.724   4.677 -0.7350 -0.9328 -1.0802
21029SOL    HW263666   2.745   6.643   4.805  0.1676  0.4605 -0.1403
21030SOL     OW63667   3.173   3.985   8.956  0.7249  0.1454 -0.0531
21030SOL    HW163668   3.141   3.916   8.898 -0.4119 -2.3404  3.1957
21030SOL    HW263669   3.111   4.057   8.944  1.4758  0.4176 -2.9748
21031SOL     OW63670   6.118   3.872   9.507 -0.3480  0.2511  0.0657
21031SOL    HW163671   6.206   3.837   9.513 -0.7379 -0.5031  2.1099
21031SOL    HW263672   6.092   3.858   9.416  0.9871 -1.1314 -0.1279
21032SOL     OW63673   0.606   4.624   3.628  0.5681 -0.0275 -0.1626
21032SOL    HW163674   0.675   4.610   3.563 -0.3728  1.6104 -1.5937
21032SOL    HW263675   0.604   4.719   3.641 -0.4581 -0.1716  0.9286
21033SOL     OW63676   6.166   1.369   1.863 -0.3547 -0.4671 -0.3255
21033SOL    HW163677   6.184   1.297   1.924 -2.6988 -2.2746 -1.6297
21033SOL    HW263678   6.242   1.370   1.804  0.0301 -1.4190  0.1413
21034SOL     OW63679   4.281   2.829   3.361  0.3401  0.5287 -0.0342
21034SOL    HW163680   4.359   2.882   3.346  0.7162  0.0155  0.0605
21034SOL    HW263681   4.312   2.755   3.414 -0.2135  0.3306  0.0244
21035SOL     OW63682   3.249   3.316   1.098  0.1037  0.2769  0.2092
21035SOL    HW163683   3.267   3.225   1.123  0.0321 -0.3911 -1.9926
21035SOL    HW263684   3.327   3.364   1.126  1.6999 -1.1075 -1.6477
21036SOL     OW63685   6.072   0.910   6.446  0.0411  0.0878 -0.2985
21036SOL    HW163686   5.990   0.926   6.399 -0.3422  1.4168  0.7622
21036SOL    HW263687   6.046   0.908   6.538  1.1846  0.3862  0.0385
21037SOL     OW63688   3.574   6.939   7.587  0.2115 -0.6254 -0.0617
21037SOL    HW163689   3.662   6.962   7.617  0.8917 -1.2577 -1.4978
21037SOL    HW263690   3.545   6.870   7.646 -0.3262  1.1613  1.9128
21038SOL     OW63691   9.804   4.950   5.003  0.1833 -0.5904 -0.5870
21038SOL    HW163692   9.856   5.030   5.012  2.5455 -2.2281  2.1988
21038SOL    HW263693   9.851   4.898   4.938 -0.4883 -0.3659 -1.2666
21039SOL     OW63694   3.274   6.325   5.071  0.0733 -0.0117 -0.1758
21039SOL    HW163695   3.317   6.250   5.029  1.7309  0.0245  1.3433
21039SOL    HW263696   3.346   6.381   5.098 -1.0110  0.7741  1.1870
21040SOL     OW63697   0.801   2.687   2.155 -0.2491 -0.1988 -0.4545
21040SOL    HW163698   0.754   2.769   2.140 -1.3709 -1.0162 -1.5737
21040SOL    HW263699   0.783   2.635   2.077 -1.8209 -2.5826  1.3726
21041SOL     OW63700   0.427   4.929   1.209 -0.2746 -0.2630  0.4803
21041SOL    HW163701   0.502   4.874   1.232 -0.0445 -0.2764 -0.2822
21041SOL    HW263702   0.351   4.873   1.223 -0.4368  0.5686  4.0046
21042SOL     OW63703   1.487   9.384   8.489 -0.5892 -0.0480  0.3027
21042SOL    HW163704   1.397   9.378   8.456 -0.6845  2.7312 -0.2601
21042SOL    HW263705   1.533   9.437   8.424  0.9221  0.2992  1.5755
21043SOL     OW63706   3.289   7.455   2.655 -0.2544  0.2067  0.1716
21043SOL    HW163707   3.243   7.411   2.727  0.5778 -0.9509  0.0190
21043SOL    HW263708   3.350   7.514   2.698 -0.0854 -0.1406  0.4106
21044SOL     OW63709   8.718   4.551   2.950  0.1075  0.1735  0.7945
21044SOL    HW163710   8.743   4.616   2.884 -0.3275  1.1328  1.5360
21044SOL    HW263711   8.800   4.508   2.974  0.0919 -1.0909 -1.2584
21045SOL     OW63712   4.945   7.198   1.069  0.0773  0.5706 -0.0676
21045SOL    HW163713   4.931   7.131   1.002  1.2492  1.8802 -1.7035
21045SOL    HW263714   4.968   7.149   1.148  0.2064 -0.9678 -1.0271
21046SOL     OW63715   9.286   9.647   9.337 -0.0315 -0.6265 -0.2688
21046SOL    HW163716   9.339   9.716   9.297 -0.9456  1.4371  1.8528
21046SOL    HW263717   9.200   9.656   9.295 -0.5607  0.5502  0.9907
21047SOL     OW63718   1.533   0.878   1.283  0.1412  0.1364 -0.3461
21047SOL    HW163719   1.517   0.894   1.376 -0.9896 -0.0163 -0.5006
21047SOL    HW263720   1.581   0.795   1.281 -1.3575 -0.7720  0.0306
21048SOL     OW63721   4.756   3.505   2.820  0.4514  0.7433  0.1167
21048SOL    HW163722   4.662   3.521   2.807  0.6406  1.9675  0.1387
21048SOL    HW263723   4.764   3.409   2.821 -0.8560  0.6188  0.5974
21049SOL     OW63724   5.691   5.627   6.597  0.2204  0.6009 -0.3763
21049SOL    HW163725   5.780   5.631   6.633 -0.0700  0.7511  0.3478
21049SOL    HW263726   5.639   5.681   6.656 -0.3730  0.4511 -0.7496
21050SOL     OW63727   5.311   2.376   8.859  0.0289 -0.3472  0.2089
21050SOL    HW163728   5.366   2.339   8.790 -0.1654  0.1774 -0.2306
21050SOL    HW263729   5.222   2.350   8.835 -0.2228  1.1321 -0.6052
21051SOL     OW63730   3.479   9.680   8.207  0.1431  0.3430  0.1055
21051SOL    HW163731   3.433   9.747   8.156  0.6994  1.5696  1.1405
21051SOL    HW263732   3.424   9.667   8.284 -0.0943 -0.6102 -0.2172
21052SOL     OW63733   5.939   6.501   7.454 -0.0842 -0.3332 -0.1798
21052SOL    HW163734   5.921   6.432   7.518  1.5748  0.4504  1.2081
21052SOL    HW263735   5.984   6.455   7.382 -1.9944 -1.2262 -0.8661
21053SOL     OW63736   8.067   2.032   1.645 -0.1000 -0.3888  0.4462
21053SOL    HW163737   8.041   2.098   1.710  0.6294 -0.4616  0.8126
21053SOL    HW263738   8.047   1.948   1.686  1.1930 -0.4664  0.9567
21054SOL     OW63739   1.892   3.256   1.861 -0.0333  0.0284 -0.0427
21054SOL    HW163740   1.871   3.340   1.902 -2.2709 -0.0212 -0.9905
21054SOL    HW263741   1.920   3.279   1.772 -0.6523 -0.2086 -0.3044
21055SOL     OW63742   1.073   0.396   7.783  0.8922 -0.2018 -0.4387
21055SOL    HW163743   1.093   0.331   7.716 -0.8114 -1.3728  0.1169
21055SOL    HW263744   1.081   0.481   7.738  1.7483 -0.8494 -1.5561
21056SOL     OW63745   5.903   3.240   5.640 -0.3625  0.1806  0.2232
21056SOL    HW163746   5.896   3.305   5.709 -2.3634  1.1571 -0.8218
21056SOL    HW263747   5.879   3.157   5.682 -0.2379  0.5300  0.9872
21057SOL     OW63748   5.694   9.332   4.377 -0.1517 -0.0618  0.0942
21057SOL    HW163749   5.656   9.257   4.331 -1.0393 -0.2537  1.0906
21057SOL    HW263750   5.661   9.409   4.330  2.4867 -0.2437 -2.2807
21058SOL     OW63751   0.046   5.436   6.274 -0.3196 -0.3972 -0.1426
21058SOL    HW163752  -0.030   5.483   6.241 -1.5459 -0.4720  2.3038
21058SOL    HW263753   0.013   5.349   6.296  0.3181 -0.2846  1.3916
21059SOL     OW63754   7.453   4.252   1.667 -0.5110 -0.4648  0.0900
21059SOL    HW163755   7.416   4.221   1.585  1.3734 -0.2756 -0.8976
21059SOL    HW263756   7.504   4.178   1.700 -2.3687 -1.0260  1.8680
21060SOL     OW63757   5.485   2.885   6.357  0.6215 -0.0063 -0.2532
21060SOL    HW163758   5.429   2.905   6.282  1.1327 -0.4400 -0.7612
21060SOL    HW263759   5.452   2.940   6.427  1.2758  1.7676 -1.2805
21061SOL     OW63760   7.889   1.307   0.039 -0.6949 -0.7843 -1.0060
21061SOL    HW163761   7.891   1.295   0.134  0.2101  1.3878 -0.6893
21061SOL    HW263762   7.915   1.222   0.004 -1.4142 -1.7471  0.6538
21062SOL     OW63763   4.668   9.902   5.655  0.5864 -0.1474  0.3217
21062SOL    HW163764   4.628   9.904   5.742 -1.5412 -0.0503 -0.5888
21062SOL    HW263765   4.723   9.824   5.655 -1.4528 -1.6605  0.9262
21063SOL     OW63766   9.238   4.611   1.022 -0.6449 -0.2842 -0.0584
21063SOL    HW163767   9.249   4.669   1.097 -0.8121  0.4905 -0.6240
21063SOL    HW263768   9.241   4.669   0.945 -0.6637 -1.0363 -0.6425
21064SOL     OW63769   2.637   9.225   9.361 -0.2552  0.6375  0.0087
21064SOL    HW163770   2.601   9.205   9.447  0.8871 -0.5357  0.2459
21064SOL    HW263771   2.684   9.146   9.335  2.2232  2.0837 -0.2161
21065SOL     OW63772   0.011   7.575   1.425  0.1535 -0.4175 -0.1260
21065SOL    HW163773   0.037   7.663   1.453 -0.1555 -0.6007  0.7582
21065SOL    HW263774   0.026   7.520   1.501  0.0792 -1.0882 -0.5867
21066SOL     OW63775   4.619   3.820   0.867  0.0367  0.2696 -0.0323
21066SOL    HW163776   4.650   3.899   0.822  0.3375 -1.2613 -2.8030
21066SOL    HW263777   4.528   3.810   0.837 -0.3217  0.0891  1.0907
21067SOL     OW63778   1.820   6.603   6.590 -0.2486 -0.1541 -0.0359
21067SOL    HW163779   1.770   6.574   6.666  0.0757  0.5673  0.4738
21067SOL    HW263780   1.779   6.560   6.516 -2.6606  1.6130  0.1595
21068SOL     OW63781   1.755   2.358   5.908  0.2414  0.1151  0.1240
21068SOL    HW163782   1.801   2.295   5.962 -1.8867  0.5742  2.6779
21068SOL    HW263783   1.822   2.423   5.884  1.8550 -1.6340 -0.3005
21069SOL     OW63784   4.215   0.650   0.002 -0.0833 -0.0682  0.0498
21069SOL    HW163785   4.280   0.593   0.043  1.1351  0.3047 -1.2837
21069SOL    HW263786   4.133   0.603   0.011  0.4775 -0.8797  1.1592
21070SOL     OW63787   5.870   8.509   8.231  0.1367  0.5959 -0.2528
21070SOL    HW163788   5.908   8.597   8.224  1.8171 -0.0536  0.0711
21070SOL    HW263789   5.830   8.506   8.318 -0.2051  1.1332 -0.3897
21071SOL     OW63790   7.549   9.686   9.330 -0.2269  0.0700  0.1313
21071SOL    HW163791   7.509   9.673   9.244 -0.1095  0.6098 -0.0114
21071SOL    HW263792   7.635   9.723   9.311  0.1612 -0.6478  0.4564
21072SOL     OW63793   7.059   2.182   2.005 -0.1298 -0.4427 -0.1201
21072SOL    HW163794   7.149   2.203   1.980 -0.5969  2.4332  0.2456
21072SOL    HW263795   7.020   2.143   1.927  0.7188  0.7884 -1.1911
21073SOL     OW63796   0.415   7.929   1.423 -0.0440 -0.1319  0.2708
21073SOL    HW163797   0.337   7.955   1.374  0.0112  1.0868  0.7830
21073SOL    HW263798   0.388   7.850   1.470 -0.2090 -1.1003 -1.3800
21074SOL     OW63799   1.252   1.679   4.722  0.1109  0.4635  0.0493
21074SOL    HW163800   1.323   1.662   4.784  0.9971 -1.2278 -1.3265
21074SOL    HW263801   1.288   1.745   4.663  0.4245 -0.1197 -0.4238
21075SOL     OW63802   1.182   8.223   6.563  0.0820 -0.3535 -0.0260
21075SOL    HW163803   1.256   8.189   6.614  0.7986  0.4164 -0.5133
21075SOL    HW263804   1.166   8.310   6.599 -0.9294 -0.7081  0.4028
21076SOL     OW63805   5.926   6.553   1.594 -0.7468  0.6453  0.0425
21076SOL    HW163806   5.896   6.544   1.684 -2.3918 -0.8759 -0.5790
21076SOL    HW263807   5.984   6.629   1.595 -0.1298  0.2445  2.5006
21077SOL     OW63808   9.173   0.096   0.723  0.0739 -0.0856 -0.4778
21077SOL    HW163809   9.111   0.035   0.763  0.6146 -1.1194 -1.1854
21077SOL    HW263810   9.122   0.176   0.711 -0.8860 -0.6463 -0.2870
21078SOL     OW63811   8.903   0.383   5.176  0.1516 -0.4755 -0.3569
21078SOL    HW163812   8.822   0.429   5.152 -0.8597 -1.9563  0.1009
21078SOL    HW263813   8.959   0.392   5.098 -1.0030 -0.6202 -1.2344
21079SOL     OW63814   3.633   7.938   8.343 -0.4213 -0.9621  0.2592
21079SOL    HW163815   3.622   7.901   8.255  1.9050  1.2129 -1.0772
21079SOL    HW263816   3.620   8.032   8.331  0.3423 -0.5824  2.1717
21080SOL     OW63817   8.931   4.069   2.794 -0.2044  0.3614 -0.2882
21080SOL    HW163818   8.860   4.113   2.840 -0.0290 -0.1255  0.4666
21080SOL    HW263819   8.988   4.036   2.863  0.1907 -0.1820 -0.8605
21081SOL     OW63820   7.637   0.952   4.853 -0.5806 -0.3814  0.2251
21081SOL    HW163821   7.677   0.889   4.792  0.1229 -1.7870  2.0603
21081SOL    HW263822   7.689   1.032   4.840  0.6540 -1.1596  0.1504
21082SOL     OW63823   8.459   4.996   7.540  0.0246  0.1031  0.1911
21082SOL    HW163824   8.534   5.037   7.497  0.7378 -1.0529  0.2670
21082SOL    HW263825   8.489   4.907   7.560 -1.1352 -0.1606  0.8603
21083SOL     OW63826   3.455   2.041   1.593  0.3777 -0.4053  0.2330
21083SOL    HW163827   3.434   1.947   1.588 -0.0039 -0.2622 -1.1743
21083SOL    HW263828   3.545   2.047   1.562  0.8552 -0.4245  1.5300
21084SOL     OW63829   6.804   3.274   2.042 -0.0825  0.0654 -0.0342
21084SOL    HW163830   6.811   3.193   2.093 -0.2156 -1.9236 -2.9324
21084SOL    HW263831   6.716   3.271   2.005  1.3469 -0.9264 -3.7932
21085SOL     OW63832   2.357   5.346   0.690  0.1173  0.3466 -0.2518
21085SOL    HW163833   2.390   5.297   0.614 -1.4742  2.3429 -2.3713
21085SOL    HW263834   2.420   5.416   0.703 -0.7293  1.3396 -1.2548
21086SOL     OW63835   5.741   7.484   4.847  0.2378 -0.5295  0.4307
21086SOL    HW163836   5.743   7.390   4.864  1.5897 -0.4200  1.0141
21086SOL    HW263837   5.802   7.496   4.774  0.1727 -0.0956  0.4449
21087SOL     OW63838   5.808   6.131   6.651 -0.1607 -0.7408  0.5919
21087SOL    HW163839   5.902   6.119   6.637 -0.2269 -0.0363 -0.6399
21087SOL    HW263840   5.793   6.102   6.741  0.8708 -2.8344  0.1554
21088SOL     OW63841   6.575   7.037   1.462 -0.3201 -0.5041 -0.0906
21088SOL    HW163842   6.629   6.980   1.407 -0.3551 -0.0185 -0.6452
21088SOL    HW263843   6.633   7.109   1.487 -0.4853 -0.3897 -0.0310
21089SOL     OW63844   1.752   1.938   6.342  0.2319  0.4434  0.6864
21089SOL    HW163845   1.848   1.932   6.341  0.2151  0.1937  0.4710
21089SOL    HW263846   1.726   1.890   6.421  0.2456 -0.1044  0.3612
21090SOL     OW63847   1.096   8.885   4.655  0.0149  0.6514  0.5991
21090SOL    HW163848   1.100   8.836   4.573  0.6826  0.9320  0.4638
21090SOL    HW263849   1.018   8.940   4.646 -0.6948 -0.3090  0.7148
21091SOL     OW63850   4.132   1.405   5.469  0.5810 -0.1559  0.1597
21091SOL    HW163851   4.048   1.438   5.440  0.2797 -0.6111  0.4978
21091SOL    HW263852   4.131   1.416   5.564  1.3989  0.9660  0.0635
21092SOL     OW63853   4.934   1.409   2.977  0.4933  0.4475  0.4266
21092SOL    HW163854   4.853   1.454   2.956  0.7472  1.6178  1.7979
21092SOL    HW263855   4.972   1.386   2.892 -0.9342  0.4445 -0.2407
21093SOL     OW63856   8.166   2.273   1.491  0.4797  0.3613  0.3644
21093SOL    HW163857   8.103   2.278   1.418  1.1337  1.7920 -0.1288
21093SOL    HW263858   8.163   2.181   1.518 -0.0219 -0.1379 -1.2602
21094SOL     OW63859   0.585   0.516   2.699  1.1262  0.2343  0.0229
21094SOL    HW163860   0.569   0.458   2.625 -1.1225  0.4861  0.2505
21094SOL    HW263861   0.558   0.603   2.669  0.6388  0.4240  0.9742
21095SOL     OW63862   1.560   8.630   0.089 -0.0693  0.1326  0.9590
21095SOL    HW163863   1.599   8.637   0.177  1.0965 -0.0568  0.4688
21095SOL    HW263864   1.469   8.607   0.106  0.3816 -0.9555  2.1013
21096SOL     OW63865   9.070   3.927   8.866  0.2759  0.0006 -0.1728
21096SOL    HW163866   9.140   3.980   8.904 -0.1146  0.3492  0.0667
21096SOL    HW263867   9.076   3.843   8.912  0.3861  0.1108  0.0180
21097SOL     OW63868   8.616   9.404   2.423 -1.0625  0.1085 -0.2471
21097SOL    HW163869   8.581   9.332   2.477  0.0962 -0.5728 -0.3725
21097SOL    HW263870   8.595   9.483   2.473 -2.0066 -0.3356  0.0903
21098SOL     OW63871   4.945   4.067   8.412  0.3047 -0.4136 -0.2754
21098SOL    HW163872   4.884   4.031   8.476 -1.3280  2.7766  0.1804
21098SOL    HW263873   5.001   4.126   8.463  0.8766  0.0112 -1.3625
21099SOL     OW63874   9.735   5.477   8.119 -0.2085  0.4900 -0.2002
21099SOL    HW163875   9.722   5.567   8.151 -0.6335  0.3829 -0.0575
21099SOL    HW263876   9.803   5.484   8.052  2.1527  0.4583  2.0293
21100SOL     OW63877   7.648   1.181   5.629  0.4760 -0.3808 -0.0827
21100SOL    HW163878   7.675   1.224   5.547  0.0246  0.1706  0.0485
21100SOL    HW263879   7.656   1.088   5.611 -2.8400 -0.4687 -1.9403
21101SOL     OW63880   3.745   5.602   8.941 -0.0536  0.1528 -0.2732
21101SOL    HW163881   3.680   5.664   8.910 -1.9701 -1.4472  0.3416
21101SOL    HW263882   3.759   5.625   9.033  0.9627  1.0365 -0.6246
21102SOL     OW63883   3.039   9.114   9.426  0.1023 -0.4290  0.2014
21102SOL    HW163884   3.016   9.202   9.456 -1.8169 -0.8143 -0.0444
21102SOL    HW263885   3.116   9.128   9.370 -1.6661  1.5310 -1.9873
21103SOL     OW63886   8.598   7.123   8.023 -0.1339 -0.5905 -0.1654
21103SOL    HW163887   8.675   7.070   8.003  1.0153  1.6708 -2.2742
21103SOL    HW263888   8.633   7.209   8.045 -1.9957 -0.1549  1.3620
21104SOL     OW63889   0.240   4.572   4.597  0.0403 -0.2248 -0.0326
21104SOL    HW163890   0.239   4.519   4.517  1.0255 -2.8183  1.5536
21104SOL    HW263891   0.158   4.551   4.641  0.8015 -1.1117  0.9995
21105SOL     OW63892   7.770   8.424   0.992 -0.5867  0.5288 -0.3687
21105SOL    HW163893   7.743   8.516   0.999 -0.7742  0.4183  0.3584
21105SOL    HW263894   7.762   8.404   0.898  0.5143  1.5781 -0.7213
21106SOL     OW63895   6.017   4.501   3.493  0.1149 -0.7602  0.0083
21106SOL    HW163896   5.954   4.543   3.551  0.4076 -2.1065  1.3654
21106SOL    HW263897   5.996   4.408   3.497 -0.2075 -0.8721 -2.5276
21107SOL     OW63898   8.646   7.438   6.424 -0.9233 -0.2298 -0.3827
21107SOL    HW163899   8.676   7.528   6.425  0.0463 -0.5488  0.0091
21107SOL    HW263900   8.638   7.414   6.517  1.2281 -1.3077 -0.4253
21108SOL     OW63901   0.632   3.112   7.199  0.0813 -0.2799 -0.5990
21108SOL    HW163902   0.569   3.043   7.218  1.0901 -1.1926 -0.4297
21108SOL    HW263903   0.646   3.155   7.284  2.2168 -2.3174  0.2024
21109SOL     OW63904   4.137   5.528   2.563  0.2599 -0.4264 -0.1930
21109SOL    HW163905   4.136   5.436   2.590 -0.2618 -0.6526 -0.9566
21109SOL    HW263906   4.151   5.525   2.468  0.5895  0.2991 -0.1749
21110SOL     OW63907   3.921   6.956   3.815 -0.1080  0.3558  0.5395
21110SOL    HW163908   3.914   6.969   3.909  1.1206 -0.0939  0.7192
21110SOL    HW263909   3.909   6.861   3.804  0.6162  0.2860  0.3440
21111SOL     OW63910   2.764   4.047   3.532 -0.5581 -0.3577 -0.1730
21111SOL    HW163911   2.825   4.082   3.597 -0.0143  1.7091 -1.6826
21111SOL    HW263912   2.677   4.076   3.562 -0.6219 -1.6772  0.9793
21112SOL     OW63913   6.098   8.687   1.382  0.0400  0.2289 -0.6183
21112SOL    HW163914   6.165   8.670   1.316  1.2513 -0.3688  0.7187
21112SOL    HW263915   6.106   8.614   1.444 -1.0330  0.7955  0.2223
21113SOL     OW63916   2.974   7.860   8.417 -0.7141  0.1165 -0.3569
21113SOL    HW163917   2.936   7.936   8.373 -0.4614  0.7582  0.5021
21113SOL    HW263918   2.943   7.785   8.367 -1.3926  0.7540 -0.9135
21114SOL     OW63919   9.862   1.420   0.965  0.3143  0.4517  0.7560
21114SOL    HW163920   9.846   1.398   0.873  1.2743  0.0232  0.6779
21114SOL    HW263921   9.886   1.336   1.005  3.2132  1.1212  0.6423
21115SOL     OW63922   6.084   1.261   0.120  0.5278  0.0203  0.8475
21115SOL    HW163923   6.059   1.173   0.149  0.3991 -0.3093 -0.2367
21115SOL    HW263924   6.141   1.294   0.190  1.7789 -1.5002  0.6054
21116SOL     OW63925   2.562   4.569   1.746 -0.3613  0.3293 -0.1327
21116SOL    HW163926   2.554   4.598   1.837  0.7366  1.6491 -0.4220
21116SOL    HW263927   2.649   4.531   1.740  0.6012  2.5358 -1.1806
21117SOL     OW63928   7.588   6.470   0.884 -0.7638  0.0465 -0.0329
21117SOL    HW163929   7.598   6.377   0.903 -0.9221 -0.2805 -1.4342
21117SOL    HW263930   7.569   6.473   0.790  1.2437  1.6053 -0.4539
21118SOL     OW63931   1.239   3.730   7.515 -0.5061 -0.2619 -0.1810
21118SOL    HW163932   1.266   3.638   7.515 -0.3994 -0.3522 -3.5806
21118SOL    HW263933   1.310   3.776   7.470 -1.4591  1.1643 -0.2956
21119SOL     OW63934   0.217   8.572   6.402 -0.0920 -0.0325 -0.7633
21119SOL    HW163935   0.202   8.642   6.338 -1.7913 -0.2530 -0.6731
21119SOL    HW263936   0.259   8.502   6.353  0.4003  0.5343 -1.1644
21120SOL     OW63937   9.194   6.533   7.906 -0.3306  0.2500 -0.3115
21120SOL    HW163938   9.130   6.558   7.972 -0.5611 -0.3792 -0.2930
21120SOL    HW263939   9.242   6.614   7.887  0.0989  0.3330  1.0137
21121SOL     OW63940   3.283   5.924   8.061 -0.0495 -0.1581  0.1654
21121SOL    HW163941   3.295   5.952   7.970 -1.6045 -0.4002 -0.1548
21121SOL    HW263942   3.244   5.836   8.054  2.4285 -1.4198  1.1235
21122SOL     OW63943   4.395   4.814   3.716  0.5972 -0.3290 -0.2032
21122SOL    HW163944   4.480   4.839   3.751  0.4319 -0.5647  0.3642
21122SOL    HW263945   4.381   4.725   3.747  0.8545 -0.8863 -1.6182
21123SOL     OW63946   5.324   3.288   1.974 -0.0352 -0.3913  0.1169
21123SOL    HW163947   5.363   3.203   1.993  0.7814 -0.1843 -0.5706
21123SOL    HW263948   5.232   3.278   1.996  0.0347 -1.4885 -0.0676
21124SOL     OW63949   4.428   5.486   6.358 -0.6413  0.1294  0.0605
21124SOL    HW163950   4.413   5.391   6.351 -1.3811  0.1008  1.6205
21124SOL    HW263951   4.340   5.524   6.360 -0.3555  0.8076 -0.0973
21125SOL     OW63952   4.466   3.996   1.727 -0.4196  0.0524  0.0278
21125SOL    HW163953   4.503   3.931   1.667 -1.3473  0.0179 -0.5177
21125SOL    HW263954   4.532   4.004   1.797 -0.6159 -2.0104  0.5115
21126SOL     OW63955   7.823   9.155   5.278  0.6839  0.0691  0.3754
21126SOL    HW163956   7.892   9.156   5.344 -0.3922 -2.6814  1.6932
21126SOL    HW263957   7.750   9.109   5.319 -0.5546 -0.5829 -2.2918
21127SOL     OW63958   0.082   6.843   9.827  0.4884  0.0872 -0.3873
21127SOL    HW163959   0.030   6.913   9.866  0.8823  0.1804 -0.0113
21127SOL    HW263960   0.053   6.838   9.737 -1.2256 -0.8594  0.1816
21128SOL     OW63961   0.346   7.455   2.674  0.2947  0.0644 -0.4399
21128SOL    HW163962   0.322   7.363   2.679  0.1578 -0.0374 -2.3911
21128SOL    HW263963   0.358   7.473   2.581  2.4867  1.4690  0.0164
21129SOL     OW63964   5.253   0.462   2.107  0.6242 -0.1366 -0.7425
21129SOL    HW163965   5.223   0.514   2.032  1.2480 -0.9511 -1.5779
21129SOL    HW263966   5.315   0.519   2.152  0.1608  0.4022 -0.7819
21130SOL     OW63967   2.029   5.044   4.221  0.3628  0.1602  0.7816
21130SOL    HW163968   2.015   4.964   4.271 -0.1637  0.5725  1.3116
21130SOL    HW263969   1.941   5.079   4.207  0.2397 -1.1819 -2.5681
21131SOL     OW63970   9.931   1.665   0.239  0.2290  0.1782 -0.0539
21131SOL    HW163971   9.876   1.662   0.317  2.9250  0.8756  2.0569
21131SOL    HW263972   9.871   1.682   0.167 -2.4545 -0.9839  1.7732
21132SOL     OW63973   4.091   9.141   3.721 -0.2356 -0.1051 -1.1874
21132SOL    HW163974   3.998   9.119   3.733  0.2409 -1.7398 -0.2509
21132SOL    HW263975   4.138   9.065   3.755  1.4740  1.0034 -0.9868
21133SOL     OW63976   9.775   6.941   4.918 -0.1523 -0.0622 -0.2739
21133SOL    HW163977   9.720   7.018   4.934 -0.8026 -0.3189 -1.2185
21133SOL    HW263978   9.737   6.872   4.972 -0.0007  0.0877  0.0260
21134SOL     OW63979   2.655   5.851   2.701  0.5864  0.6095 -0.0920
21134SOL    HW163980   2.676   5.786   2.768  0.8710  0.8157  0.0160
21134SOL    HW263981   2.594   5.911   2.744 -0.5039 -0.1696 -0.5001
21135SOL     OW63982   9.952   0.530   9.672 -0.2627  0.4728  0.3931
21135SOL    HW163983  10.046   0.546   9.661 -0.2557  0.6493  0.7083
21135SOL    HW263984   9.920   0.608   9.717 -0.2916 -0.2150  1.6042
21136SOL     OW63985   6.002   7.724   3.062 -0.3090 -0.2966 -0.2208
21136SOL    HW163986   6.018   7.633   3.037 -0.1248  0.0511 -1.4240
21136SOL    HW263987   5.982   7.720   3.156 -1.6226 -1.7297 -0.5303
21137SOL     OW63988   5.456   8.546   3.386 -0.1151  0.3206  0.2478
21137SOL    HW163989   5.539   8.506   3.363 -0.2687  0.3367 -0.3773
21137SOL    HW263990   5.447   8.533   3.480  0.7272  0.5758  0.3660
21138SOL     OW63991   6.807   0.279   5.454  0.2621 -0.1406  0.2947
21138SOL    HW163992   6.807   0.263   5.548 -0.7514  0.0417  0.3412
21138SOL    HW263993   6.796   0.193   5.415  1.0576 -0.2621  0.3204
21139SOL     OW63994   0.181   6.563   3.345 -0.8287 -0.1104 -0.5764
21139SOL    HW163995   0.220   6.542   3.259  1.4802  1.7055 -0.0838
21139SOL    HW263996   0.253   6.550   3.407 -1.5187  1.5971  0.6531
21140SOL     OW63997   4.383   1.755   7.755  0.1501  0.2155 -0.7461
21140SOL    HW163998   4.319   1.821   7.784  1.3982  0.8229  0.7983
21140SOL    HW263999   4.420   1.721   7.837  2.7061  0.8234 -1.5480
21141SOL     OW64000   0.440   7.699   2.843 -0.0760 -0.3726  0.2164
21141SOL    HW164001   0.426   7.635   2.774 -2.3054 -0.9891  1.1502
21141SOL    HW264002   0.368   7.761   2.834  1.8171  1.9137 -0.4365
21142SOL     OW64003   5.880   1.600   3.314  0.5453  0.4186  0.6371
21142SOL    HW164004   5.894   1.645   3.398 -0.2146  1.0101  0.4524
21142SOL    HW264005   5.821   1.657   3.265  0.1126 -0.4485  0.1202
21143SOL     OW64006   0.853   8.530   5.269 -0.1397  0.6626  0.5257
21143SOL    HW164007   0.941   8.492   5.277  0.3530  1.8678  1.0116
21143SOL    HW264008   0.794   8.460   5.298  0.8026  0.5035  2.1789
21144SOL     OW64009   8.391   1.941   4.059  0.1324  0.3771  0.4171
21144SOL    HW164010   8.470   1.950   4.006  0.0883 -0.7657  0.1276
21144SOL    HW264011   8.395   2.014   4.120  1.1601  0.6236  0.0831
21145SOL     OW64012   6.781   0.329   4.191 -0.4872 -0.7524 -0.4390
21145SOL    HW164013   6.721   0.277   4.245 -0.0777  0.9484  1.7685
21145SOL    HW264014   6.765   0.298   4.102 -0.3346 -4.5438  0.6999
21146SOL     OW64015   1.091   2.513   4.580  0.1744  0.5565  0.8716
21146SOL    HW164016   1.155   2.558   4.525  1.2596 -1.3693  0.4635
21146SOL    HW264017   1.007   2.525   4.536  1.0045 -0.8791 -1.2559
21147SOL     OW64018   8.593   0.177   2.225 -0.3311  0.0051  0.2340
21147SOL    HW164019   8.502   0.162   2.199 -0.1126  0.9761 -1.1948
21147SOL    HW264020   8.641   0.182   2.143  1.1643 -1.2403  0.9838
21148SOL     OW64021   4.794   2.284   6.530  0.3984  0.2693  0.2257
21148SOL    HW164022   4.705   2.318   6.540 -0.4760 -1.8089 -0.0317
21148SOL    HW264023   4.850   2.361   6.539 -1.4856  1.9752 -1.4779
21149SOL     OW64024   4.231   1.312   1.275  0.0762 -0.3213 -0.2462
21149SOL    HW164025   4.260   1.297   1.365  1.4645  0.3316 -0.5500
21149SOL    HW264026   4.247   1.405   1.260  0.1051 -0.4763 -1.2407
21150SOL     OW64027   8.169   9.186   0.853 -0.1263 -0.4054 -0.0165
21150SOL    HW164028   8.137   9.105   0.813  0.5112 -0.1809 -1.0317
21150SOL    HW264029   8.185   9.244   0.778 -1.2186  0.9099  0.7254
21151SOL     OW64030   8.711   9.379   5.128  0.4342  0.2502 -0.1127
21151SOL    HW164031   8.691   9.467   5.095 -0.6906 -0.1644 -0.5835
21151SOL    HW264032   8.753   9.335   5.055  1.4425  0.5310  0.2799
21152SOL     OW64033   1.350   6.036   0.972 -0.0246  0.4087 -0.3145
21152SOL    HW164034   1.353   6.009   0.880 -0.5792 -0.0897 -0.1844
21152SOL    HW264035   1.370   5.957   1.021  2.1635  1.0477 -0.0353
21153SOL     OW64036   1.703   4.650   9.184  0.2057  0.1404  0.2911
21153SOL    HW164037   1.706   4.582   9.117 -0.0765  0.4772 -0.0711
21153SOL    HW264038   1.776   4.630   9.243 -1.8519 -2.5008  2.1696
21154SOL     OW64039   1.783   1.226   7.535 -0.4030  0.3850 -0.4704
21154SOL    HW164040   1.853   1.161   7.526 -0.4225 -0.4225  3.3935
21154SOL    HW264041   1.710   1.189   7.486  0.3125 -1.3785 -0.2944
21155SOL     OW64042   4.401   0.918   0.286 -0.1073  0.1469 -0.2108
21155SOL    HW164043   4.355   0.932   0.368 -2.1206 -0.1349 -1.2210
21155SOL    HW264044   4.332   0.897   0.223  1.3183  0.7360 -2.0746
21156SOL     OW64045   1.971   6.001   4.800 -0.1486  0.4980  1.1105
21156SOL    HW164046   1.906   6.053   4.845  0.2130  1.4602  0.5584
21156SOL    HW264047   1.928   5.972   4.719 -0.4759 -0.4075  1.5934
21157SOL     OW64048   6.263   8.639   7.852 -0.1008 -0.0470  0.2173
21157SOL    HW164049   6.314   8.698   7.907 -0.2415  0.8342 -0.5614
21157SOL    HW264050   6.187   8.616   7.906 -0.0058  0.4310  0.5624
21158SOL     OW64051   6.077   4.122   2.093  0.5229 -0.0135  0.2855
21158SOL    HW164052   5.981   4.119   2.093  0.5333 -0.7350 -0.5991
21158SOL    HW264053   6.103   4.063   2.022  1.5910  1.2252 -0.3932
21159SOL     OW64054   7.483   7.059   9.637 -0.6096 -0.3879 -0.1366
21159SOL    HW164055   7.508   6.997   9.568 -0.7254 -0.1418 -0.3995
21159SOL    HW264056   7.390   7.073   9.624 -0.5687 -0.1021 -0.1225
21160SOL     OW64057   9.590   5.039   4.145 -0.2323 -0.1705  0.3490
21160SOL    HW164058   9.507   5.038   4.098  0.0756 -1.8530 -0.2112
21160SOL    HW264059   9.591   4.957   4.195  0.2582  0.7285  1.8878
21161SOL     OW64060   0.566   9.127   8.361 -0.0501 -0.1743  0.4229
21161SOL    HW164061   0.618   9.131   8.281  0.0084 -0.1618  0.4617
21161SOL    HW264062   0.475   9.125   8.330 -0.0351  0.0711  0.3640
21162SOL     OW64063   1.174   3.308   1.133 -0.1743 -0.5848  0.3001
21162SOL    HW164064   1.100   3.329   1.190 -0.2811 -0.7974  0.2374
21162SOL    HW264065   1.200   3.393   1.095  1.3731 -0.0328  2.4216
21163SOL     OW64066   9.053   9.494   4.267  0.1823 -0.6056 -0.1733
21163SOL    HW164067   9.129   9.550   4.254  1.9585 -3.1322 -1.4037
21163SOL    HW264068   9.001   9.505   4.187  0.1140 -0.1895 -0.0763
21164SOL     OW64069   5.638   2.291   1.143  0.0741 -0.7340 -0.1684
21164SOL    HW164070   5.616   2.334   1.060  1.3819 -1.9093 -1.1785
21164SOL    HW264071   5.709   2.345   1.179 -0.0795 -0.5648 -0.1190
21165SOL     OW64072   1.306   1.977   4.958  0.4852  0.3995 -0.0068
21165SOL    HW164073   1.253   2.057   4.963 -0.5872 -0.3455  1.1656
21165SOL    HW264074   1.274   1.931   4.881 -1.1032 -0.3553  1.0445
21166SOL     OW64075   1.073   5.979   0.153  0.5422 -0.6143 -0.1257
21166SOL    HW164076   1.046   5.924   0.227 -0.8578 -0.4899 -0.5159
21166SOL    HW264077   1.168   5.982   0.160  0.5250 -1.5598  0.9909
21167SOL     OW64078   7.549   7.478   8.270  0.7643 -0.2590 -0.1925
21167SOL    HW164079   7.494   7.410   8.308  0.3876  0.5565  0.7539
21167SOL    HW264080   7.487   7.544   8.237  1.1433  0.4275  0.4331
21168SOL     OW64081   5.964   0.246   3.550 -0.2766 -0.0372  0.0505
21168SOL    HW164082   5.911   0.208   3.620 -1.3148 -0.2092 -0.8174
21168SOL    HW264083   6.032   0.295   3.596 -0.6884 -0.4987  1.1786
21169SOL     OW64084   8.287   8.561   1.895 -0.1144 -0.4112  0.4042
21169SOL    HW164085   8.199   8.594   1.874 -1.1043 -2.4418  1.1104
21169SOL    HW264086   8.310   8.606   1.976 -1.5309 -1.4787  1.4652
21170SOL     OW64087   9.149   2.788   5.653  0.5369  0.2153 -0.0341
21170SOL    HW164088   9.065   2.832   5.665  0.2157 -0.4333  0.1221
21170SOL    HW264089   9.214   2.855   5.676  0.1818  1.4973 -2.4180
21171SOL     OW64090   7.804   4.389   0.510 -0.2986 -0.5598 -0.4433
21171SOL    HW164091   7.844   4.366   0.426 -1.2686 -2.5532 -0.4066
21171SOL    HW264092   7.752   4.467   0.491 -0.8554 -1.2293 -1.8257
21172SOL     OW64093   7.144   5.060   9.091 -0.8705 -0.0965 -1.2570
21172SOL    HW164094   7.189   5.111   9.158  0.8583 -0.4781 -2.0818
21172SOL    HW264095   7.055   5.048   9.126 -0.2438  0.3440  0.6107
21173SOL     OW64096   0.170   1.627   1.644 -0.1741  0.2707  0.3891
21173SOL    HW164097   0.166   1.559   1.710 -0.6073  0.6587  0.7700
21173SOL    HW264098   0.079   1.636   1.613  0.1819 -0.6287 -1.0102
21174SOL     OW64099   6.250   4.298   4.001  0.0602 -0.3096  0.4061
21174SOL    HW164100   6.205   4.340   4.075  0.3602  1.3295 -0.3176
21174SOL    HW264101   6.343   4.311   4.019  0.1655 -0.8230  0.2480
21175SOL     OW64102   6.027   8.624   0.535  0.2662  0.4154  0.5057
21175SOL    HW164103   5.980   8.579   0.466  1.6971  0.0413 -0.2775
21175SOL    HW264104   5.978   8.606   0.615 -0.5153 -0.5007 -0.1687
21176SOL     OW64105   9.588   2.963   6.989 -0.4541 -0.5507 -0.1135
21176SOL    HW164106   9.559   2.886   6.939 -0.0286 -0.0558 -1.1581
21176SOL    HW264107   9.665   2.995   6.942 -0.6263  0.5182  0.2954
21177SOL     OW64108   1.662   2.948   9.982  0.2309 -0.0223  0.2548
21177SOL    HW164109   1.608   2.880   9.940  0.3400 -0.4409  0.7853
21177SOL    HW264110   1.745   2.905  10.000 -0.1496 -0.1639  1.8205
21178SOL     OW64111   0.109   0.509   7.995  0.1369 -0.5266 -0.0845
21178SOL    HW164112   0.018   0.479   7.995  0.4033 -1.4419 -1.3247
21178SOL    HW264113   0.106   0.594   7.950 -0.3384  0.3729  1.5791
21179SOL     OW64114   5.629   8.038   3.583 -0.0522 -0.2364  0.1144
21179SOL    HW164115   5.554   7.981   3.600  0.4063 -0.5743  1.0501
21179SOL    HW264116   5.685   7.986   3.525  0.4219 -0.8135  1.0621
21180SOL     OW64117   5.874   3.676   6.873 -0.3181  0.3791  0.8221
21180SOL    HW164118   5.866   3.752   6.932 -0.0978  1.8051 -0.8906
21180SOL    HW264119   5.968   3.661   6.866 -0.3785 -0.4595  1.6041
21181SOL     OW64120   2.794   2.498   6.164  0.3140  0.1903  0.5425
21181SOL    HW164121   2.766   2.419   6.119  1.0062 -1.2923  2.5798
21181SOL    HW264122   2.872   2.472   6.213 -0.7161  1.4621  3.0664
21182SOL     OW64123   9.131   9.819   9.063  0.3328  0.0465 -0.1777
21182SOL    HW164124   9.217   9.842   9.100  0.3110  1.4088 -0.8672
21182SOL    HW264125   9.150   9.746   9.004  1.0891  0.5150 -0.5418
21183SOL     OW64126   4.717   4.932   2.047 -0.2081 -0.2088 -0.6486
21183SOL    HW164127   4.719   4.930   2.142  0.8372 -1.4142 -0.6715
21183SOL    HW264128   4.675   4.849   2.022 -0.9665  0.3388 -1.2320
21184SOL     OW64129   5.036   5.850   3.114  0.1389 -0.2878 -0.0819
21184SOL    HW164130   5.058   5.819   3.027 -0.4799  1.4645 -0.9184
21184SOL    HW264131   4.947   5.884   3.106  0.0646 -0.1153  1.2334
21185SOL     OW64132   6.202   8.407   0.502  0.1356 -0.7194 -0.6447
21185SOL    HW164133   6.147   8.342   0.545 -0.4204  0.9880  1.3714
21185SOL    HW264134   6.146   8.484   0.493  1.6948  0.5650  0.0794
21186SOL     OW64135   2.462   1.106   7.882 -0.1391  0.2585 -0.3657
21186SOL    HW164136   2.530   1.055   7.925 -0.0875  0.4273 -0.2455
21186SOL    HW264137   2.505   1.143   7.805 -0.2815 -0.1960 -0.6706
21187SOL     OW64138   0.240   0.849   0.507  0.0522  0.2008  0.1382
21187SOL    HW164139   0.261   0.943   0.503 -0.6398  0.3935  0.8156
21187SOL    HW264140   0.323   0.806   0.487  0.3532  0.9551 -0.3130
21188SOL     OW64141   0.972   8.500   6.291 -0.0933 -0.4223 -0.7638
21188SOL    HW164142   1.065   8.522   6.302  0.1084 -0.8806 -1.5205
21188SOL    HW264143   0.928   8.550   6.360  0.6017  0.6015 -1.0358
21189SOL     OW64144   5.719   1.154   0.463 -0.9542  0.1731  0.1269
21189SOL    HW164145   5.804   1.199   0.460 -0.9264  0.1035 -0.1401
21189SOL    HW264146   5.656   1.222   0.439 -0.9374  0.1347 -0.0273
21190SOL     OW64147   5.304   4.287   2.138  0.5192 -0.5409 -0.1210
21190SOL    HW164148   5.314   4.240   2.055  1.0712 -0.4484 -0.1098
21190SOL    HW264149   5.306   4.380   2.114 -0.3770 -0.5092 -0.1195
21191SOL     OW64150   9.518   3.534   8.718  0.4396 -0.3025 -0.1095
21191SOL    HW164151   9.444   3.591   8.701  0.9074  0.3465 -0.0326
21191SOL    HW264152   9.583   3.558   8.652  1.2841  0.4480  0.9431
21192SOL     OW64153   2.791   7.443   8.536 -0.0637  0.0734 -0.0101
21192SOL    HW164154   2.813   7.392   8.458  0.7727 -1.6107  1.2558
21192SOL    HW264155   2.700   7.422   8.554  0.0142 -0.2628 -0.0089
21193SOL     OW64156   2.982   4.789   4.404  0.6498  0.1898 -0.3779
21193SOL    HW164157   3.034   4.834   4.470  0.3178  2.4233 -1.5611
21193SOL    HW264158   2.909   4.751   4.453  0.8167  1.1373  0.6334
21194SOL     OW64159   1.068   3.933   9.935  0.4684 -0.4539 -0.4370
21194SOL    HW164160   1.046   3.840   9.942 -1.2170 -0.0457  0.2791
21194SOL    HW264161   1.101   3.943   9.846  2.6755 -2.0926  0.1230
21195SOL     OW64162   5.884   1.012   6.271  0.5771  0.1412  0.4655
21195SOL    HW164163   5.865   0.919   6.259  0.7582  0.3558 -1.9607
21195SOL    HW264164   5.807   1.057   6.237  1.7443  0.8860 -1.3417
21196SOL     OW64165   9.232   8.183   6.994 -0.0909  0.3551 -0.0027
21196SOL    HW164166   9.194   8.203   7.080  1.9309 -1.1946  1.3443
21196SOL    HW264167   9.313   8.234   6.991 -0.2347  0.5441 -1.0967
21197SOL     OW64168   9.620   2.353   7.514  0.2015 -0.2396  0.0122
21197SOL    HW164169   9.608   2.263   7.483  0.4999  0.0243 -0.8962
21197SOL    HW264170   9.537   2.376   7.554 -0.0024 -0.7918 -0.0895
21198SOL     OW64171   5.102   2.435   1.684  0.8146 -0.1221  0.2065
21198SOL    HW164172   5.180   2.431   1.739 -0.5957  1.2901  2.4410
21198SOL    HW264173   5.057   2.352   1.698  1.0785 -0.2684  0.1865
21199SOL     OW64174   6.057   8.311   1.714 -0.7460 -0.6357  0.1950
21199SOL    HW164175   6.105   8.235   1.682 -0.6960 -0.6361  0.2713
21199SOL    HW264176   6.050   8.368   1.637  0.7654  0.0825  0.5575
21200SOL     OW64177   8.924   6.871   4.264 -0.3063 -0.0279  0.3498
21200SOL    HW164178   8.983   6.889   4.337  0.8882 -0.8297 -0.3956
21200SOL    HW264179   8.878   6.954   4.251 -0.7639  0.0542  2.1736
21201SOL     OW64180   7.649   0.698   4.172  0.2674 -0.5987  0.3522
21201SOL    HW164181   7.691   0.762   4.230 -0.7179 -0.4639  0.9319
21201SOL    HW264182   7.685   0.614   4.200 -0.8817 -0.6377  1.8112
21202SOL     OW64183   0.138   4.903   4.030  0.0216  0.7382  0.1857
21202SOL    HW164184   0.183   4.827   4.067  0.5206  0.6537 -0.5582
21202SOL    HW264185   0.141   4.969   4.099  1.1035  0.6561  0.2390
21203SOL     OW64186   5.203   6.559   9.206  0.4693 -0.3867  0.0146
21203SOL    HW164187   5.199   6.653   9.225 -0.0443 -0.1914 -0.9814
21203SOL    HW264188   5.251   6.522   9.280  2.8026  0.9718 -0.7157
21204SOL     OW64189   2.400   6.825   0.759 -0.2945 -0.0287  0.1956
21204SOL    HW164190   2.345   6.898   0.789 -2.0150 -0.6007 -1.3968
21204SOL    HW264191   2.465   6.866   0.703  0.0290  0.4951  0.9343
21205SOL     OW64192   9.308   9.752   0.492 -0.2546 -0.7717  0.8232
21205SOL    HW164193   9.378   9.760   0.556 -0.9870 -1.0100  1.6769
21205SOL    HW264194   9.254   9.679   0.524 -0.8969 -0.5923  0.1923
21206SOL     OW64195   6.150   6.221   8.061  0.3286 -0.3876 -0.2056
21206SOL    HW164196   6.210   6.296   8.060 -0.8731  0.6226 -1.9299
21206SOL    HW264197   6.182   6.163   7.993  1.0406 -1.2974  0.8795
21207SOL     OW64198   0.226   9.463   5.922 -0.2557 -0.2598 -0.1722
21207SOL    HW164199   0.302   9.429   5.875 -0.6159 -0.2818 -0.7398
21207SOL    HW264200   0.240   9.558   5.924 -0.4896 -0.2105 -0.7639
21208SOL     OW64201   3.127   7.756   0.303 -0.1376 -0.7411  0.4982
21208SOL    HW164202   3.111   7.850   0.303  0.7816 -0.5791  0.1764
21208SOL    HW264203   3.075   7.723   0.377 -1.1905 -0.1224  0.0492
21209SOL     OW64204   4.329   5.928   7.347 -0.6427  0.5680  0.1993
21209SOL    HW164205   4.311   5.898   7.437 -1.0604  1.0324  0.2743
21209SOL    HW264206   4.395   5.996   7.358 -1.2746  1.1838  0.2331
21210SOL     OW64207   0.473   4.021   0.303 -0.0374 -0.4260  0.2582
21210SOL    HW164208   0.523   3.972   0.238 -1.0309 -0.8517 -0.2123
21210SOL    HW264209   0.446   3.954   0.367 -1.5883 -0.5720 -0.5030
21211SOL     OW64210   3.948   7.947   0.331 -0.1712 -0.0440 -0.2467
21211SOL    HW164211   3.858   7.976   0.321 -0.4693 -0.7200  0.3377
21211SOL    HW264212   3.941   7.854   0.354  0.6996 -0.2669 -0.8493
21212SOL     OW64213   9.454   4.397   1.272  0.2327 -0.9447  0.5253
21212SOL    HW164214   9.406   4.368   1.349 -2.0205  0.0441 -0.4382
21212SOL    HW264215   9.504   4.473   1.303 -1.1261 -0.1740  0.9040
21213SOL     OW64216   6.240   4.895   4.320  0.2630  0.0509  0.6172
21213SOL    HW164217   6.277   4.861   4.239  0.7627 -0.8192  1.1910
21213SOL    HW264218   6.292   4.972   4.340  1.4869 -0.8796  1.1564
21214SOL     OW64219   1.464   4.165   4.214 -0.0826  0.3199  0.3701
21214SOL    HW164220   1.479   4.250   4.173 -1.4354  0.1831 -0.4707
21214SOL    HW264221   1.478   4.102   4.144 -1.1153 -0.0131  0.4583
21215SOL     OW64222   3.080   9.760   5.167 -0.0259 -0.5386  0.1789
21215SOL    HW164223   3.037   9.790   5.087 -0.7847  0.6065  0.9945
21215SOL    HW264224   3.119   9.839   5.204  0.8664 -1.1719  0.6213
21216SOL     OW64225   7.039   6.598   1.631  0.3636 -1.1321  0.7275
21216SOL    HW164226   6.970   6.550   1.584  0.3844  0.8183 -1.5456
21216SOL    HW264227   7.024   6.578   1.723 -2.2526 -2.0768  0.2001
21217SOL     OW64228   7.198   2.160   4.834 -0.0484  0.2405 -0.0801
21217SOL    HW164229   7.291   2.165   4.813 -0.4401 -0.3903 -2.1751
21217SOL    HW264230   7.171   2.072   4.808 -1.8592  1.4121 -2.5859
21218SOL     OW64231   7.675   9.635   0.927  0.9912 -0.1846 -0.2189
21218SOL    HW164232   7.715   9.549   0.915 -0.0388 -0.6303 -0.5326
21218SOL    HW264233   7.727   9.693   0.872  0.7416 -0.8944 -1.2454
21219SOL     OW64234   8.676   1.983   9.536  0.0235  0.5753  0.0924
21219SOL    HW164235   8.674   1.943   9.623 -0.1345  0.5373  0.0716
21219SOL    HW264236   8.704   1.913   9.477 -0.0602  0.5492  0.0842
21220SOL     OW64237   1.705   0.878   8.925 -0.0853  0.5186 -0.1485
21220SOL    HW164238   1.612   0.878   8.902 -0.1107  0.0434 -0.0502
21220SOL    HW264239   1.706   0.890   9.020 -0.1383 -1.6376  0.1656
21221SOL     OW64240   9.832   4.364   2.726 -0.2009 -0.4146  0.7181
21221SOL    HW164241   9.805   4.273   2.717 -1.0872 -0.0334 -0.8503
21221SOL    HW264242   9.927   4.362   2.716 -0.2760 -1.1064  0.0949
21222SOL     OW64243   7.086   7.230   1.889 -0.7797  0.1806 -0.3632
21222SOL    HW164244   7.083   7.143   1.850 -1.5321  0.1300 -0.2032
21222SOL    HW264245   7.032   7.284   1.832 -0.1391  0.6025 -0.5851
21223SOL     OW64246   2.163   4.647   5.339  0.3907 -0.5653 -0.7379
21223SOL    HW164247   2.139   4.604   5.421  1.2809  0.3109  0.0049
21223SOL    HW264248   2.081   4.686   5.308 -0.0820 -1.4121 -0.5974
21224SOL     OW64249   2.079   9.908   7.977  0.2180  0.1266  0.5532
21224SOL    HW164250   2.089   9.845   7.905  0.1778  1.1619 -0.3887
21224SOL    HW264251   2.056   9.990   7.933 -2.4176  0.2122  1.9119
21225SOL     OW64252   9.777   8.520   0.483  0.2503  0.2623  0.1490
21225SOL    HW164253   9.767   8.595   0.424  0.0960 -0.1050 -0.2980
21225SOL    HW264254   9.696   8.519   0.534  1.5589  2.3780  2.5235
21226SOL     OW64255   8.420   7.563   5.766  0.1587 -0.0801 -0.1383
21226SOL    HW164256   8.429   7.498   5.697 -1.2644  0.4878 -0.9094
21226SOL    HW264257   8.404   7.645   5.719 -0.0231  0.4715  0.8607
21227SOL     OW64258   4.491   0.423   0.029 -0.1218  0.6428 -0.3023
21227SOL    HW164259   4.536   0.500  -0.004 -1.3663  0.6981 -2.0236
21227SOL    HW264260   4.526   0.350  -0.023  1.3023 -0.0565  1.5458
21228SOL     OW64261   2.619   3.482   1.325 -0.7096  0.0477 -0.1688
21228SOL    HW164262   2.546   3.419   1.329 -1.4484  0.7706 -1.5403
21228SOL    HW264263   2.650   3.476   1.235  1.4517 -0.7778  0.5834
21229SOL     OW64264   0.754   4.352   2.147  0.0038  0.3009  0.0449
21229SOL    HW164265   0.705   4.278   2.184 -0.3972  0.9992  0.9412
21229SOL    HW264266   0.748   4.340   2.053 -1.1920 -0.0818  0.1594
21230SOL     OW64267   9.604   0.970   1.421 -0.1954  0.4327  0.4406
21230SOL    HW164268   9.608   1.062   1.444  4.4065 -0.0990  3.0842
21230SOL    HW264269   9.670   0.959   1.352 -0.4531 -0.9027  0.3795
21231SOL     OW64270   6.134   7.676   0.198 -0.8925  0.4883 -0.1811
21231SOL    HW164271   6.052   7.633   0.220 -0.9846  0.5419 -0.4156
21231SOL    HW264272   6.163   7.717   0.279 -0.1073 -1.1589  0.4151
21232SOL     OW64273   4.841   2.108   5.919 -0.1933 -0.4172 -0.3719
21232SOL    HW164274   4.751   2.104   5.886  0.5200  0.9483 -2.7280
21232SOL    HW264275   4.832   2.143   6.008 -1.9454  0.8686 -0.9829
21233SOL     OW64276   1.017   5.439   4.204 -0.1829  0.6281  0.6016
21233SOL    HW164277   1.091   5.484   4.163 -0.0436  1.6171  1.8842
21233SOL    HW264278   1.057   5.369   4.255 -0.1821  0.7231  0.7324
21234SOL     OW64279   1.284   1.707   3.750  0.5295 -0.0529  0.1495
21234SOL    HW164280   1.286   1.634   3.811 -0.2524  0.5711  0.9398
21234SOL    HW264281   1.201   1.696   3.702 -0.1892  0.9671  1.1141
21235SOL     OW64282   7.340   6.738   7.967  0.3662 -0.5377 -0.3192
21235SOL    HW164283   7.306   6.652   7.946 -2.4757  1.0794 -3.0369
21235SOL    HW264284   7.281   6.771   8.035  0.9802 -0.4184  0.1651
21236SOL     OW64285   3.331   1.314   1.064  1.0493 -0.5093  0.0480
21236SOL    HW164286   3.301   1.285   1.149  0.8296 -1.5865 -0.3835
21236SOL    HW264287   3.369   1.400   1.080 -2.9548  1.4036  0.5196
21237SOL     OW64288   3.323   5.476   5.744 -0.1704 -0.4388  0.5109
21237SOL    HW164289   3.265   5.526   5.801 -0.6150  0.0587 -0.3489
21237SOL    HW264290   3.293   5.498   5.655  2.2408  0.9293 -0.0365
21238SOL     OW64291   7.873   7.575   0.700 -0.1495  0.9711 -0.2698
21238SOL    HW164292   7.841   7.485   0.705 -0.5547  1.0370 -1.3851
21238SOL    HW264293   7.936   7.582   0.772  1.1408 -0.6900 -1.1600
21239SOL     OW64294   2.289   1.509   3.059 -0.0689 -0.0618  0.2132
21239SOL    HW164295   2.220   1.571   3.038 -0.6978 -0.9233 -0.3423
21239SOL    HW264296   2.243   1.431   3.090  0.7177 -0.1034  1.3726
21240SOL     OW64297   2.820   8.534   2.858  0.0744  0.3475 -0.1708
21240SOL    HW164298   2.778   8.619   2.873  2.2326  1.2562  1.2601
21240SOL    HW264299   2.888   8.529   2.925 -0.2911 -2.7754  0.1108
21241SOL     OW64300   8.762   8.435   6.273 -0.2343 -0.2279  0.8728
21241SOL    HW164301   8.713   8.355   6.292  0.0832 -0.0692  2.5122
21241SOL    HW264302   8.713   8.478   6.203 -0.2459 -1.9925 -0.2537
21242SOL     OW64303   3.088   3.331   3.275  0.1727  0.1062 -0.2234
21242SOL    HW164304   3.157   3.313   3.340  0.1807  1.4345  0.1687
21242SOL    HW264305   3.015   3.276   3.302  0.7713 -0.6568 -0.1168
21243SOL     OW64306   9.608   8.321   8.006  0.0631  0.2008  0.1027
21243SOL    HW164307   9.514   8.328   8.024 -0.1236 -0.6079 -0.5339
21243SOL    HW264308   9.648   8.376   8.074 -0.8711  0.7757  0.2240
21244SOL     OW64309   4.132   3.230   6.049 -0.2440 -0.4111 -0.7904
21244SOL    HW164310   4.107   3.322   6.052  0.0388 -0.3506  0.8559
21244SOL    HW264311   4.056   3.183   6.085  0.3004 -0.6183  0.1446
21245SOL     OW64312   5.568   6.984   6.838  0.2710 -0.1646 -0.3513
21245SOL    HW164313   5.571   6.894   6.806 -0.2902 -0.2950 -0.0479
21245SOL    HW264314   5.506   6.982   6.911  1.0059  0.2679  0.3082
21246SOL     OW64315   6.471   2.336   9.508 -0.5919  0.0068  0.3121
21246SOL    HW164316   6.558   2.358   9.539  1.2004 -4.0567 -1.1602
21246SOL    HW264317   6.480   2.328   9.413 -2.4142 -0.9364  0.1601
21247SOL     OW64318   6.543   6.665   6.432 -0.0854 -0.3432 -0.2720
21247SOL    HW164319   6.505   6.612   6.362 -1.6134  0.6856 -0.2812
21247SOL    HW264320   6.473   6.673   6.497 -0.9601  3.6058 -1.3662
21248SOL     OW64321   7.687   6.042   9.802  0.2290  0.6755 -0.2327
21248SOL    HW164322   7.768   6.093   9.795 -0.6085  2.4024  1.4096
21248SOL    HW264323   7.629   6.098   9.854 -1.8227 -0.7573 -0.8668
21249SOL     OW64324   4.384   8.185   2.374 -0.1643 -0.2783 -0.1290
21249SOL    HW164325   4.433   8.146   2.447  2.4510  0.0192 -1.5889
21249SOL    HW264326   4.397   8.124   2.302  0.7929  1.3972 -1.4324
21250SOL     OW64327   2.265   8.388   3.620  0.5035 -0.1378 -0.0583
21250SOL    HW164328   2.292   8.319   3.681  2.3069  0.0175 -0.6271
21250SOL    HW264329   2.199   8.438   3.669 -0.7427 -2.1382  0.4222
21251SOL     OW64330   8.449   6.109   3.765 -0.1273  0.3499  0.2135
21251SOL    HW164331   8.526   6.055   3.749 -1.0505 -0.6534 -0.9939
21251SOL    HW264332   8.441   6.164   3.687 -1.4985 -0.6748 -0.4279
21252SOL     OW64333   3.383   9.218   2.093  0.0528  0.4846  0.1749
21252SOL    HW164334   3.390   9.237   2.187  1.1312  1.3613 -0.0658
21252SOL    HW264335   3.436   9.285   2.051  0.8382 -0.7987 -0.9590
21253SOL     OW64336   2.211   0.232   8.869  0.4160 -0.0213 -0.1438
21253SOL    HW164337   2.279   0.296   8.848 -0.3681  0.7574 -0.3738
21253SOL    HW264338   2.181   0.198   8.785  0.2274 -0.0444 -0.0703
21254SOL     OW64339   8.267   6.657   5.096 -0.6127  0.0729 -0.1187
21254SOL    HW164340   8.346   6.673   5.044 -0.6786  0.3303 -0.1408
21254SOL    HW264341   8.264   6.562   5.106 -0.5741  0.0232 -0.5500
21255SOL     OW64342   0.431   8.257   8.961  0.0769  0.1585  0.3090
21255SOL    HW164343   0.491   8.331   8.951 -0.0359 -0.0165 -2.0433
21255SOL    HW264344   0.346   8.298   8.980  0.7705  0.4076  3.6481
21256SOL     OW64345   9.414   1.494   4.014  0.3956 -0.3647  0.3126
21256SOL    HW164346   9.351   1.483   4.084 -0.8725 -0.0744 -0.7411
21256SOL    HW264347   9.364   1.532   3.942  1.4311 -1.4875 -1.0643
21257SOL     OW64348   8.957   0.910   9.032 -0.6990  0.7898  0.2686
21257SOL    HW164349   8.873   0.948   9.007 -1.1564  0.1555  0.8060
21257SOL    HW264350   8.992   0.969   9.099 -0.8415  0.9130  0.2347
21258SOL     OW64351   8.723   4.192   2.291 -0.2067 -0.9081 -0.1808
21258SOL    HW164352   8.644   4.243   2.308  1.5874  1.6622  1.1103
21258SOL    HW264353   8.738   4.143   2.372  0.7712  0.5320  0.5653
21259SOL     OW64354   0.920   1.362   2.523 -0.2212 -0.3525  0.4281
21259SOL    HW164355   0.885   1.430   2.467  0.5204  0.0718  0.4602
21259SOL    HW264356   0.884   1.280   2.488 -0.2182 -0.0413 -0.3169
21260SOL     OW64357   1.619   2.402   2.700  0.2709  0.3668 -0.5345
21260SOL    HW164358   1.689   2.396   2.635 -0.7076 -3.0709 -1.5318
21260SOL    HW264359   1.543   2.365   2.655 -0.4289 -2.3503  2.5018
21261SOL     OW64360   6.996   6.267   8.341 -0.3675 -0.0893  0.0121
21261SOL    HW164361   7.008   6.237   8.251  1.0273  0.4443  0.0083
21261SOL    HW264362   6.906   6.242   8.362 -0.4547 -0.9313 -1.2523
21262SOL     OW64363   0.831   5.857   3.694 -0.0226 -0.6214  0.1226
21262SOL    HW164364   0.787   5.774   3.675 -0.5367 -0.6427  1.3009
21262SOL    HW264365   0.775   5.900   3.759  1.9002 -0.9121  2.1267
21263SOL     OW64366   6.389   8.934   0.961 -0.0847  0.5653  0.4271
21263SOL    HW164367   6.364   8.936   0.869  1.5632 -0.6104 -0.0802
21263SOL    HW264368   6.483   8.921   0.961 -0.1361 -0.1594  2.2951
21264SOL     OW64369   2.497   5.405   1.960  0.0388 -0.1615  0.1025
21264SOL    HW164370   2.573   5.353   1.986  0.8695  0.8270 -0.2613
21264SOL    HW264371   2.429   5.383   2.024  1.5450  1.0863  2.2693
21265SOL     OW64372   0.212   6.033   0.807 -0.3604  0.1207 -0.3508
21265SOL    HW164373   0.266   5.954   0.806 -0.6990 -0.1182 -0.2299
21265SOL    HW264374   0.229   6.074   0.892 -2.2395 -1.2945  0.8051
21266SOL     OW64375   9.912   9.589   8.153  0.1739  0.4871 -0.6450
21266SOL    HW164376   9.983   9.615   8.211  0.3374 -1.2260 -0.0114
21266SOL    HW264377   9.955   9.566   8.071  0.5034 -1.2760 -0.0273
21267SOL     OW64378   5.998   3.579   3.254 -0.2294 -0.6957 -0.3162
21267SOL    HW164379   6.032   3.512   3.194  0.5256 -0.1534 -0.5137
21267SOL    HW264380   6.045   3.562   3.336  1.3212  0.6512 -0.8580
21268SOL     OW64381   2.376   1.839   4.361 -0.0788  0.1601 -0.5529
21268SOL    HW164382   2.446   1.900   4.383 -0.4913  0.5207 -0.2047
21268SOL    HW264383   2.382   1.770   4.426 -2.4657  2.1619  2.0244
21269SOL     OW64384   0.688   4.287   7.409 -0.4138  0.5191  0.0480
21269SOL    HW164385   0.610   4.254   7.363 -0.3186  2.5373 -1.7052
21269SOL    HW264386   0.762   4.244   7.364 -0.4303 -0.6920  1.1149
21270SOL     OW64387   6.437   5.134   1.821 -0.5506 -0.0122  0.2276
21270SOL    HW164388   6.504   5.203   1.814 -0.6923  0.0148 -1.1799
21270SOL    HW264389   6.362   5.178   1.861 -0.0871  0.2120  0.8818
21271SOL     OW64390   5.985   7.436   7.715 -0.0846 -0.3791  0.0976
21271SOL    HW164391   5.931   7.488   7.776 -1.9976 -0.2041 -1.6428
21271SOL    HW264392   5.975   7.481   7.631  1.7846 -1.1157 -0.5509
21272SOL     OW64393   3.876   5.214   5.575 -0.1156  0.0501 -0.5714
21272SOL    HW164394   3.856   5.288   5.517 -1.6061 -0.4468 -0.7293
21272SOL    HW264395   3.843   5.137   5.528 -0.3041 -0.4988  0.4346
21273SOL     OW64396   4.590   4.107   7.481 -0.2966 -0.5277 -0.3310
21273SOL    HW164397   4.496   4.097   7.472 -0.5477  1.4163 -0.2722
21273SOL    HW264398   4.624   4.101   7.392 -0.6464  0.1483 -0.5151
21274SOL     OW64399   3.373   6.702   5.851  0.3635  0.2800 -0.5326
21274SOL    HW164400   3.350   6.671   5.939  0.0017  0.3949 -0.5843
21274SOL    HW264401   3.441   6.768   5.866  0.0168  0.5913 -0.3059
21275SOL     OW64402   9.149   4.811   2.910 -0.4958  0.1077  0.3906
21275SOL    HW164403   9.126   4.724   2.878 -1.0813  0.3383  0.1657
21275SOL    HW264404   9.136   4.806   3.005  2.7287 -1.0444  0.9136
21276SOL     OW64405   1.382   7.396   6.595 -0.2432  0.2945  0.3329
21276SOL    HW164406   1.456   7.346   6.630  1.0261  1.4109 -0.6370
21276SOL    HW264407   1.343   7.338   6.530  0.3477  0.0316  0.2045
21277SOL     OW64408   0.261   2.367   4.373 -0.0488  0.6445  0.0543
21277SOL    HW164409   0.316   2.312   4.428 -1.5369  0.4623  1.4303
21277SOL    HW264410   0.299   2.455   4.382  0.0429  0.5172  0.9176
21278SOL     OW64411   8.804   5.423   9.323 -0.3843 -0.0252  1.7590
21278SOL    HW164412   8.824   5.340   9.280  0.3210  1.5543 -1.1880
21278SOL    HW264413   8.714   5.443   9.296  0.7890  2.0428 -1.0996
21279SOL     OW64414   3.088   3.198   5.081 -0.1072  0.1902  0.0063
21279SOL    HW164415   3.039   3.223   5.003 -0.0809  1.2252  0.2985
21279SOL    HW264416   3.024   3.155   5.138 -0.9920  2.3990  0.8086
21280SOL     OW64417   1.311   9.580   2.663  0.5960  0.4104  0.3035
21280SOL    HW164418   1.404   9.597   2.650  0.3056  1.6571 -0.3385
21280SOL    HW264419   1.305   9.543   2.751  1.6054  1.1886  0.7120
21281SOL     OW64420   7.980   0.787   6.201  0.3499 -0.6135  0.1497
21281SOL    HW164421   7.994   0.882   6.192  0.8069 -0.7277 -0.4194
21281SOL    HW264422   7.983   0.754   6.111 -2.6176 -0.8201  0.0051
21282SOL     OW64423   6.971   3.616   3.254 -0.2531  0.2270  0.4099
21282SOL    HW164424   6.906   3.576   3.196 -1.8658  0.3626  2.0556
21282SOL    HW264425   6.936   3.605   3.342  1.3868  1.3893  1.2702
21283SOL     OW64426   7.118   5.071   1.819  0.2923 -0.5608 -0.3752
21283SOL    HW164427   7.048   5.017   1.783 -0.5909  0.1123  0.2815
21283SOL    HW264428   7.123   5.045   1.911  0.0513  0.2740 -0.1214
21284SOL     OW64429   5.520   4.459   9.813  1.1283  0.1510  0.2629
21284SOL    HW164430   5.448   4.401   9.839  1.6273 -0.5124  0.2030
21284SOL    HW264431   5.518   4.458   9.718 -0.8253  2.7420  0.1714
21285SOL     OW64432   9.925   0.848   5.546 -0.2682 -0.2859 -0.1573
21285SOL    HW164433   9.849   0.793   5.532 -0.2729 -0.0202 -1.2852
21285SOL    HW264434   9.894   0.919   5.602 -1.3267  0.7151 -1.9033
21286SOL     OW64435   4.328   5.102   8.617  0.4964  0.1948 -0.0766
21286SOL    HW164436   4.358   5.092   8.708  2.7126  2.1067 -0.4994
21286SOL    HW264437   4.236   5.127   8.625 -0.2707 -2.7175  1.4568
21287SOL     OW64438   9.752   4.587   0.118  0.1650  0.0275 -0.0152
21287SOL    HW164439   9.668   4.632   0.107  0.1874  0.1766  0.4196
21287SOL    HW264440   9.729   4.494   0.116 -0.1671  0.0655  1.2051
21288SOL     OW64441   7.386   3.649   1.939 -0.0763  0.7449 -0.0573
21288SOL    HW164442   7.308   3.658   1.995  0.2033  1.2649  0.2596
21288SOL    HW264443   7.454   3.697   1.986  0.4995  0.0951 -0.2158
21289SOL     OW64444   2.014   6.191   7.506 -0.4279 -0.6484  0.2619
21289SOL    HW164445   1.952   6.147   7.565  0.4591 -0.3880  1.4386
21289SOL    HW264446   1.979   6.175   7.418 -2.5416  0.0837  0.8926
21290SOL     OW64447  -0.025   7.216   9.362 -0.0012 -0.9112 -0.1818
21290SOL    HW164448   0.031   7.292   9.380 -1.9118  0.1825  1.5332
21290SOL    HW264449  -0.004   7.192   9.271  0.6994  1.6416 -0.7703
21291SOL     OW64450   5.905   8.351   9.210 -0.5574 -0.1006 -0.3813
21291SOL    HW164451   5.884   8.358   9.303  0.8479 -0.1194 -0.0298
21291SOL    HW264452   5.984   8.297   9.208 -0.2279  0.4014 -1.5378
21292SOL     OW64453   2.934   6.566   7.688 -0.0634  0.0726  0.6503
21292SOL    HW164454   2.862   6.502   7.683  0.1561 -0.0731 -2.2925
21292SOL    HW264455   2.894   6.644   7.725 -1.0804 -0.7974  1.4658
21293SOL     OW64456   7.054   1.135   5.353  0.3990 -0.0861 -0.6070
21293SOL    HW164457   7.097   1.192   5.417  3.2898 -1.8191 -0.8349
21293SOL    HW264458   7.040   1.191   5.277  0.4396  1.0304  0.1828
21294SOL     OW64459   9.463   7.772   3.960 -0.1783 -0.0071  0.1352
21294SOL    HW164460   9.429   7.686   3.936 -2.7932  0.5707  1.4181
21294SOL    HW264461   9.463   7.772   4.056 -2.3995  2.1197  0.2212
21295SOL     OW64462   4.443   4.043   7.762  0.4265 -0.1276 -0.0580
21295SOL    HW164463   4.396   4.003   7.835 -0.6823  0.3205 -0.5034
21295SOL    HW264464   4.454   4.135   7.788  0.0421  0.0290 -0.4339
21296SOL     OW64465   3.933   0.709   5.831  0.0357  0.1079 -0.2299
21296SOL    HW164466   3.995   0.637   5.842 -0.6306 -0.4568 -0.0329
21296SOL    HW264467   3.921   0.716   5.737  0.4224  0.2300 -0.2669
21297SOL     OW64468   4.971   9.836   5.060  0.0446 -0.0895 -0.4618
21297SOL    HW164469   5.040   9.902   5.064 -0.1705  0.0874  1.1572
21297SOL    HW264470   4.894   9.879   5.098 -0.5844 -0.7176 -0.9889
21298SOL     OW64471   2.129   0.511   9.608 -0.2359 -0.0066 -0.1452
21298SOL    HW164472   2.057   0.448   9.608  0.1284 -0.4664  1.6448
21298SOL    HW264473   2.157   0.516   9.699  0.8704  1.4782 -0.5263
21299SOL     OW64474   1.993   9.758   1.609 -0.0261  0.0503 -0.3101
21299SOL    HW164475   1.998   9.693   1.680  0.2958  0.3280 -0.0739
21299SOL    HW264476   2.083   9.765   1.578  0.1025  0.9962  0.2232
21300SOL     OW64477   0.440   7.095   4.538  0.2362  0.3196  0.2114
21300SOL    HW164478   0.410   7.139   4.459  0.3099 -2.3125 -1.4032
21300SOL    HW264479   0.519   7.048   4.511 -1.1025 -2.6892  1.0390
21301SOL     OW64480   9.559   3.629   1.241  0.9406 -0.0681  0.0317
21301SOL    HW164481   9.505   3.681   1.181  1.6153 -0.8475 -1.2759
21301SOL    HW264482   9.534   3.539   1.224  0.4797 -0.2641  1.6069
21302SOL     OW64483   6.875   1.769   6.634  0.1336 -0.3716  0.2513
21302SOL    HW164484   6.934   1.695   6.645  0.8702  0.0886 -0.4082
21302SOL    HW264485   6.873   1.812   6.719 -0.3618 -1.1879  0.6570
21303SOL     OW64486   1.369   2.657   7.854  0.1729 -0.2451  0.6330
21303SOL    HW164487   1.336   2.715   7.923  1.0797  0.5651  0.4073
21303SOL    HW264488   1.458   2.635   7.882 -0.3690 -2.1332  1.0675
21304SOL     OW64489   4.393   1.091   5.885 -0.0417 -0.2175  0.1032
21304SOL    HW164490   4.426   1.018   5.832  0.2559 -1.0289  1.3498
21304SOL    HW264491   4.299   1.092   5.869 -0.0124 -0.7099 -0.1361
21305SOL     OW64492   6.115   5.225   0.309  0.3436  0.7186  1.1874
21305SOL    HW164493   6.034   5.187   0.275  0.3337  1.1796  0.6735
21305SOL    HW264494   6.131   5.301   0.253  0.7040  1.0991  1.7850
21306SOL     OW64495   3.376   4.380   7.931 -0.1666  0.4998  0.4946
21306SOL    HW164496   3.382   4.467   7.971  0.8032 -0.3664  2.3605
21306SOL    HW264497   3.465   4.362   7.901 -0.5036  0.3993 -0.4489
21307SOL     OW64498   5.363   6.366   7.747 -0.7260 -0.2775  0.0538
21307SOL    HW164499   5.344   6.457   7.724 -0.4392 -0.3136 -0.3305
21307SOL    HW264500   5.440   6.372   7.804  0.0786 -0.3586 -0.9829
21308SOL     OW64501   0.233   7.706   0.033 -0.8901  0.3303  0.2037
21308SOL    HW164502   0.248   7.668   0.120  0.2052 -0.7780 -0.4258
21308SOL    HW264503   0.191   7.635  -0.017  0.6831  0.0856 -0.8401
21309SOL     OW64504   6.041   9.052   3.968  0.3225 -0.8236  0.4047
21309SOL    HW164505   6.084   9.034   3.884  2.2161 -1.6803  1.4964
21309SOL    HW264506   6.048   9.147   3.979 -0.7354 -0.5838 -0.7885
21310SOL     OW64507   2.821   4.260   3.952 -0.3637  0.0785  0.0399
21310SOL    HW164508   2.742   4.207   3.946  0.8368 -1.6015 -2.6619
21310SOL    HW264509   2.812   4.325   3.882  0.6473 -0.1730 -0.3421
21311SOL     OW64510   4.819   8.208   9.667 -0.4442 -0.0160  0.5791
21311SOL    HW164511   4.847   8.152   9.595  0.3497  2.6500 -1.3280
21311SOL    HW264512   4.737   8.169   9.697 -0.6663 -1.3801 -1.6006
21312SOL     OW64513   4.381   3.214   6.304  0.0779 -0.1348 -0.0728
21312SOL    HW164514   4.341   3.137   6.263  0.4365 -0.4501  0.1661
21312SOL    HW264515   4.375   3.282   6.237  0.4132 -0.5706 -0.5527
21313SOL     OW64516   7.113   2.127   8.938 -0.1678  0.7039  0.4179
21313SOL    HW164517   7.119   2.218   8.967  0.8622  0.5704  0.6534
21313SOL    HW264518   7.192   2.086   8.972 -0.1525 -0.0537 -0.5131
21314SOL     OW64519   7.557   0.125   5.114  0.6497 -0.5426  0.1787
21314SOL    HW164520   7.510   0.049   5.079 -0.3805  0.9367 -1.8544
21314SOL    HW264521   7.490   0.174   5.161  1.0635 -0.3544  0.5665
21315SOL     OW64522   6.218   1.702   8.273 -0.4458 -0.2097 -0.0207
21315SOL    HW164523   6.146   1.721   8.334 -1.1648  0.4310 -1.0354
21315SOL    HW264524   6.176   1.654   8.202  0.6391 -2.2366  0.6306
21316SOL     OW64525   2.604   4.301   1.522  0.1597  0.0806  0.1110
21316SOL    HW164526   2.632   4.388   1.497 -2.0413  1.3025  1.4889
21316SOL    HW264527   2.524   4.315   1.574 -1.4801 -2.8557 -1.3110
21317SOL     OW64528   7.261   1.395   3.448 -0.4670 -0.0286  0.5676
21317SOL    HW164529   7.173   1.392   3.410  0.5461  2.3320 -2.3005
21317SOL    HW264530   7.249   1.443   3.530 -1.9685 -0.8627  0.8947
21318SOL     OW64531   9.748   9.441   3.299  0.3224 -0.4254 -0.3460
21318SOL    HW164532   9.708   9.358   3.322  2.0533 -0.7181  1.9052
21318SOL    HW264533   9.841   9.421   3.286  1.4285  1.4896  3.2857
21319SOL     OW64534   0.866   4.035   0.144  0.3437 -0.2909  0.3389
21319SOL    HW164535   0.933   3.985   0.097  0.8558  1.3184 -0.7233
21319SOL    HW264536   0.904   4.049   0.231 -0.0089 -2.0685  0.8376
21320SOL     OW64537   8.074   1.360   8.263  0.1393 -0.2847 -0.4022
21320SOL    HW164538   8.090   1.269   8.289  0.1929  0.0515  0.7899
21320SOL    HW264539   7.980   1.371   8.271  0.1689 -0.1496 -0.2199
21321SOL     OW64540   5.212   4.250   6.275  0.9082 -0.2157 -0.5312
21321SOL    HW164541   5.196   4.159   6.298  1.1953 -1.6181 -4.9769
21321SOL    HW264542   5.144   4.272   6.212  1.7922  2.1154 -0.8064
21322SOL     OW64543   0.521   7.468   3.307  0.2644 -0.0134  0.0613
21322SOL    HW164544   0.470   7.463   3.388  1.5057  0.0765  0.8607
21322SOL    HW264545   0.504   7.556   3.274 -0.3125 -0.0791  0.1600
21323SOL     OW64546   8.051   9.942   7.721 -0.3230 -0.1225 -0.7857
21323SOL    HW164547   7.957   9.929   7.718 -0.5102  0.2346  1.4703
21323SOL    HW264548   8.085   9.864   7.765  0.2914  0.2294 -0.6242
21324SOL     OW64549   9.022   8.654   6.844 -0.3134 -0.0240 -0.0948
21324SOL    HW164550   9.020   8.564   6.810 -1.1056 -0.8502  1.9555
21324SOL    HW264551   9.045   8.644   6.936  0.6973  2.0037 -0.0826
21325SOL     OW64552   9.302   0.106   9.456 -0.0991 -0.3727  0.5155
21325SOL    HW164553   9.209   0.124   9.438  0.2221  0.3396 -0.5278
21325SOL    HW264554   9.300   0.032   9.516 -1.3330 -1.0494 -0.3037
21326SOL     OW64555   5.185   5.612   7.436 -0.1780 -0.1133  0.0228
21326SOL    HW164556   5.168   5.627   7.343  0.1064  0.0275 -0.0079
21326SOL    HW264557   5.108   5.566   7.468 -0.3513 -0.0084 -0.2457
21327SOL     OW64558   3.894   7.093   9.718  0.2565 -0.1660  0.0112
21327SOL    HW164559   3.972   7.040   9.701 -0.3271 -1.3577  0.8736
21327SOL    HW264560   3.916   7.143   9.797 -0.3255 -1.5773  1.1102
21328SOL     OW64561   4.394   9.711   7.233  0.1502  0.3112  0.1340
21328SOL    HW164562   4.319   9.652   7.246 -3.8094  4.6490 -0.3268
21328SOL    HW264563   4.398   9.762   7.313  1.6252  1.2106 -0.4857
21329SOL     OW64564   0.278   3.183   7.338  0.1156  0.1934  0.1470
21329SOL    HW164565   0.227   3.258   7.369 -2.4638 -1.1486 -0.5180
21329SOL    HW264566   0.322   3.150   7.416 -1.8145  0.1439  1.2768
21330SOL     OW64567   6.245   7.701   6.218 -0.3167 -0.1198 -0.2620
21330SOL    HW164568   6.222   7.792   6.200  1.0670 -0.0110 -1.7949
21330SOL    HW264569   6.317   7.707   6.281 -1.0986 -0.2363  0.6642
21331SOL     OW64570   3.146   9.496   9.562 -0.0251 -0.2448  0.0419
21331SOL    HW164571   3.218   9.437   9.539 -0.1848 -1.1297  1.6348
21331SOL    HW264572   3.168   9.527   9.650 -0.8325  0.6974 -0.0739
21332SOL     OW64573   4.034   8.264   9.246 -0.3252 -0.0236 -0.5539
21332SOL    HW164574   3.964   8.315   9.205 -0.4057 -0.4184 -0.9105
21332SOL    HW264575   4.076   8.218   9.174 -0.7844 -1.1174 -0.1593
21333SOL     OW64576   5.783   0.124   3.003  0.7173  0.4081  0.4696
21333SOL    HW164577   5.774   0.031   3.019 -0.2005  0.3385 -0.3943
21333SOL    HW264578   5.860   0.132   2.946  1.3575  0.2868  1.2832
21334SOL     OW64579   2.763   2.573   5.901 -0.4613  0.5221  0.2241
21334SOL    HW164580   2.830   2.574   5.969  0.4907  0.1663 -0.6790
21334SOL    HW264581   2.752   2.666   5.877  1.4241  0.4508 -1.2061
21335SOL     OW64582   7.541   0.051   7.720  0.5716 -0.2180 -0.2686
21335SOL    HW164583   7.533   0.137   7.678 -0.9008  0.3044  0.9890
21335SOL    HW264584   7.454   0.033   7.755  1.1365 -1.7323  0.4548
21336SOL     OW64585   9.491   3.548   3.027  0.8958 -0.0744  0.3939
21336SOL    HW164586   9.428   3.482   2.997 -0.1394  0.9931  0.1149
21336SOL    HW264587   9.464   3.567   3.117  0.6014  0.6195  0.1659
21337SOL     OW64588   8.836   3.302   5.650  0.2556  0.1895  0.2849
21337SOL    HW164589   8.856   3.254   5.730  1.5830 -1.2461 -0.8443
21337SOL    HW264590   8.764   3.361   5.674 -1.2533 -2.1142  1.8348
21338SOL     OW64591   2.220   9.815   2.701  0.3620  0.4750 -0.2483
21338SOL    HW164592   2.280   9.806   2.628  1.2192  0.5106  0.4344
21338SOL    HW264593   2.251   9.751   2.766 -0.9069 -0.1801 -0.2530
21339SOL     OW64594   0.146   9.455   2.266 -0.5146  0.6361  0.0917
21339SOL    HW164595   0.112   9.381   2.318  0.0109  0.9476  0.8852
21339SOL    HW264596   0.147   9.421   2.176 -2.0855  0.3133  0.1525
21340SOL     OW64597   5.270   4.108   5.981 -0.2991  0.0025  0.4284
21340SOL    HW164598   5.215   4.070   6.050  1.2599 -2.0507  0.6485
21340SOL    HW264599   5.256   4.052   5.905  0.6062  0.1406  0.1463
21341SOL     OW64600   9.188   1.734   8.941 -0.3274  0.2108  0.2350
21341SOL    HW164601   9.250   1.664   8.962 -1.2796 -0.3506  1.2599
21341SOL    HW264602   9.114   1.689   8.901 -1.0266  0.6001  1.0689
21342SOL     OW64603   2.779   0.762   6.805 -0.2051 -0.0144 -0.1044
21342SOL    HW164604   2.722   0.781   6.731 -1.4269 -1.3486  0.4602
21342SOL    HW264605   2.857   0.723   6.766 -0.5658 -0.1245 -0.7283
21343SOL     OW64606   5.968   7.534   6.596 -0.6093  0.9204  0.0917
21343SOL    HW164607   5.956   7.513   6.504  0.6936 -2.4251  0.5519
21343SOL    HW264608   5.892   7.496   6.640  0.2727 -0.2750  0.6526
21344SOL     OW64609   5.062   3.155   0.563  0.2035  0.1204 -0.1697
21344SOL    HW164610   4.969   3.136   0.551  0.1637 -0.6077  1.0397
21344SOL    HW264611   5.076   3.239   0.520 -0.6606 -0.4983 -1.7239
21345SOL     OW64612   6.875   7.405   3.651 -0.7099  0.1282 -0.2124
21345SOL    HW164613   6.872   7.327   3.707 -0.0595 -0.7000 -1.2800
21345SOL    HW264614   6.907   7.475   3.708  2.7411 -1.3015 -0.1294
21346SOL     OW64615   1.494   2.443   1.589  0.4731 -0.0085  0.0644
21346SOL    HW164616   1.428   2.395   1.640 -0.2568  1.2002  0.2953
21346SOL    HW264617   1.443   2.504   1.535  1.4253  2.1092  1.4292
21347SOL     OW64618   3.154   8.040   1.939  0.0483 -0.4830  0.8050
21347SOL    HW164619   3.110   7.971   1.989  2.5986 -1.6507  1.5829
21347SOL    HW264620   3.225   7.994   1.893 -0.0319  1.1655 -1.0854
21348SOL     OW64621   9.559   4.060   0.635  0.2670 -0.6235 -0.4197
21348SOL    HW164622   9.647   4.083   0.665 -0.0445  0.0485  0.0066
21348SOL    HW264623   9.503   4.128   0.671 -0.3627 -0.7603 -1.1193
21349SOL     OW64624   1.651   9.119   7.679 -0.1564  0.2562  0.3471
21349SOL    HW164625   1.709   9.176   7.629  0.5667  0.7494  1.7071
21349SOL    HW264626   1.700   9.099   7.759 -1.9273  0.8543  1.6304
21350SOL     OW64627   7.586   0.617   2.044  0.0929  0.0082 -0.1226
21350SOL    HW164628   7.500   0.638   2.081  0.4399  1.3817 -0.0069
21350SOL    HW264629   7.599   0.525   2.063 -1.8324 -0.5424 -1.1292
21351SOL     OW64630   0.525   8.452   9.594 -0.2742 -0.8263 -0.1631
21351SOL    HW164631   0.577   8.374   9.578  1.7465 -0.0022  1.8309
21351SOL    HW264632   0.480   8.435   9.676 -0.5370 -0.2433 -0.1781
21352SOL     OW64633   4.263   7.931   0.911 -0.2938 -0.1583  1.0224
21352SOL    HW164634   4.236   8.022   0.901 -0.0909 -0.1693  0.2585
21352SOL    HW264635   4.252   7.912   1.004 -2.9770 -0.1850  0.7607
21353SOL     OW64636   6.581   0.214   4.383 -0.2082  0.6386 -0.2717
21353SOL    HW164637   6.623   0.136   4.419 -1.1020  0.1840 -0.1801
21353SOL    HW264638   6.594   0.281   4.451 -1.3424 -0.0456  0.6719
21354SOL     OW64639   3.022   1.720   7.209  0.4568 -0.2911 -0.5497
21354SOL    HW164640   3.113   1.749   7.204  0.5483 -0.7655 -2.8726
21354SOL    HW264641   3.017   1.670   7.290  2.2841 -0.2895 -0.3883
21355SOL     OW64642   6.692   0.061   0.241 -0.2533 -0.0311 -0.5099
21355SOL    HW164643   6.686   0.154   0.221  0.4747  0.1086 -0.1146
21355SOL    HW264644   6.607   0.025   0.214 -0.4312  0.6888 -0.9370
21356SOL     OW64645   0.012   0.812   6.110  0.5053  0.0371  0.0279
21356SOL    HW164646   0.005   0.776   6.198 -0.3908 -2.2472 -0.9092
21356SOL    HW264647   0.027   0.905   6.124 -1.6146  0.1331  2.6144
21357SOL     OW64648   0.451   7.063   8.030  0.4304 -0.7930  0.1476
21357SOL    HW164649   0.512   7.062   7.956 -0.1334 -1.3067 -0.3134
21357SOL    HW264650   0.400   6.983   8.021  0.4122 -0.9089  1.1489
21358SOL     OW64651   1.866   8.986   7.494 -0.2609 -0.1215 -0.0090
21358SOL    HW164652   1.841   8.942   7.413  0.6500 -0.0558 -0.3367
21358SOL    HW264653   1.917   8.921   7.542  0.6136  0.3746 -0.2445
21359SOL     OW64654   3.255   8.531   3.466  0.0488  0.1050  0.2041
21359SOL    HW164655   3.252   8.435   3.457  0.7222 -0.0302  1.1871
21359SOL    HW264656   3.333   8.557   3.418  0.6976 -0.0222  1.1608
21360SOL     OW64657   0.955   5.493   9.873  0.0219  0.4606  0.2365
21360SOL    HW164658   0.940   5.545   9.952  0.4614  1.5729 -0.3907
21360SOL    HW264659   0.898   5.533   9.807 -0.8552 -0.8800  0.1343
21361SOL     OW64660   5.213   9.060   6.801  0.0192 -0.1151  0.3032
21361SOL    HW164661   5.297   9.068   6.756 -0.5020 -0.0324 -0.6795
21361SOL    HW264662   5.231   9.002   6.875  0.6823 -1.0832 -0.5908
21362SOL     OW64663   1.556   3.955   6.207  0.1890 -0.4172 -0.1555
21362SOL    HW164664   1.605   3.928   6.284  0.1139 -0.8112 -0.2422
21362SOL    HW264665   1.503   4.029   6.237  0.5600 -0.2254  0.0299
21363SOL     OW64666   9.902   3.604   7.857  0.3187 -0.0298 -0.4560
21363SOL    HW164667   9.823   3.550   7.864 -0.0115  0.5902  1.4203
21363SOL    HW264668   9.874   3.691   7.886  2.1443 -0.3494  2.8405
21364SOL     OW64669   0.476   4.622   1.671  0.0384 -0.0289  0.5000
21364SOL    HW164670   0.504   4.559   1.604 -1.3818 -0.1610 -0.0109
21364SOL    HW264671   0.555   4.669   1.694  0.6842 -0.3971 -0.8486
21365SOL     OW64672   4.318   8.458   7.309 -0.3499 -0.0006 -0.3082
21365SOL    HW164673   4.378   8.385   7.289  0.1157 -0.4196  2.3089
21365SOL    HW264674   4.232   8.427   7.279  0.1805 -0.7520 -1.1108
21366SOL     OW64675   1.065   1.980   1.839 -0.1926  0.1836 -0.3159
21366SOL    HW164676   1.069   1.891   1.874  0.2564  0.4778  0.4212
21366SOL    HW264677   0.980   2.013   1.867 -0.0274  0.2543  0.1224
21367SOL     OW64678   1.046   6.244   2.374  0.0531  0.0566  0.5003
21367SOL    HW164679   1.027   6.334   2.350 -2.9602 -0.3643  0.8970
21367SOL    HW264680   1.022   6.238   2.466 -0.0574 -1.1854  0.4107
21368SOL     OW64681   0.218   2.415   4.107  1.1237 -0.2061  0.1473
21368SOL    HW164682   0.296   2.387   4.059  0.4336 -1.0527 -0.5103
21368SOL    HW264683   0.245   2.414   4.199  1.9696 -0.2104 -0.0961
21369SOL     OW64684   6.489   5.558   0.609 -0.3446 -0.3282  0.0794
21369SOL    HW164685   6.483   5.650   0.635  0.0785 -0.7176  1.7109
21369SOL    HW264686   6.399   5.525   0.614 -0.3541 -0.2445  0.5385
21370SOL     OW64687   7.248   7.944   1.144  0.5256  0.7151  0.2007
21370SOL    HW164688   7.337   7.936   1.111  0.8068  1.3921  0.7534
21370SOL    HW264689   7.222   7.854   1.166  1.3253  0.5865  0.6711
21371SOL     OW64690   1.585   6.536   2.517 -0.2275  0.1239  0.3954
21371SOL    HW164691   1.495   6.531   2.552 -0.1371 -0.0266  0.6083
21371SOL    HW264692   1.593   6.459   2.462  0.2215 -0.6042  1.4491
21372SOL     OW64693   8.351   0.686   3.248 -0.5351  0.1010  0.0596
21372SOL    HW164694   8.310   0.752   3.192 -0.7313 -0.2208 -0.1755
21372SOL    HW264695   8.427   0.656   3.197  0.8839  1.7341  1.0781
21373SOL     OW64696   0.123   3.022   4.319 -0.4592  0.0346  0.1444
21373SOL    HW164697   0.115   3.042   4.226  2.6786 -1.0084 -0.4891
21373SOL    HW264698   0.081   2.937   4.329  0.2044 -0.3982 -0.6219
21374SOL     OW64699   9.081   5.589   1.686  0.1471  0.2022  0.1132
21374SOL    HW164700   9.088   5.507   1.735 -1.0143  0.5358  0.8742
21374SOL    HW264701   9.165   5.633   1.700  1.2047 -1.2893 -1.1751
21375SOL     OW64702   1.113   5.599   3.050 -0.1092 -0.1713  0.1081
21375SOL    HW164703   1.021   5.573   3.045 -0.5252  1.0052  1.0426
21375SOL    HW264704   1.121   5.673   2.991  0.7137 -1.4153 -1.4088
21376SOL     OW64705   5.213   9.580   8.023 -0.2501 -0.1072  0.1165
21376SOL    HW164706   5.241   9.498   8.064 -0.1623  0.2007  0.6803
21376SOL    HW264707   5.172   9.553   7.942  1.5304 -0.5909 -0.6765
21377SOL     OW64708   7.004   3.682   1.009 -0.1346 -0.2890 -0.3265
21377SOL    HW164709   6.933   3.742   1.035 -0.1823 -1.3435  2.2789
21377SOL    HW264710   7.056   3.733   0.947 -1.7105  1.4526 -0.3242
21378SOL     OW64711   2.984   4.673   6.418  0.4704 -0.0365  0.2369
21378SOL    HW164712   3.057   4.690   6.359  1.5805  0.2523  1.6417
21378SOL    HW264713   3.024   4.665   6.505 -1.0945 -0.5311  0.9583
21379SOL     OW64714   3.945   2.604   0.488 -0.2244  0.0680 -0.0783
21379SOL    HW164715   4.038   2.620   0.505 -0.0184 -0.3301 -0.7921
21379SOL    HW264716   3.937   2.611   0.393 -1.2908  2.0304  0.1124
21380SOL     OW64717   0.895   3.108   2.246 -0.2625  0.1405  0.5666
21380SOL    HW164718   0.951   3.158   2.186 -1.7328  2.7904  1.2086
21380SOL    HW264719   0.954   3.050   2.293  1.8575  2.2263  0.6369
21381SOL     OW64720   0.985   5.206   0.839 -0.3904  0.0452  0.2547
21381SOL    HW164721   1.057   5.199   0.902  0.3204 -0.3316 -0.5662
21381SOL    HW264722   1.029   5.203   0.753 -1.3303  0.5043 -0.2565
21382SOL     OW64723   6.512   0.784   3.391 -0.3652 -0.2768  0.5573
21382SOL    HW164724   6.453   0.840   3.439 -0.8312 -1.1119  0.9877
21382SOL    HW264725   6.590   0.777   3.446 -0.4582 -0.3519  0.6789
21383SOL     OW64726   9.845   2.888   9.489  0.0665 -0.1114 -0.0657
21383SOL    HW164727   9.863   2.917   9.578 -1.2371  2.7147 -0.6134
21383SOL    HW264728   9.925   2.843   9.461  2.0678  2.4332  1.1908
21384SOL     OW64729   2.647   7.054   3.333  0.7241 -0.1450 -0.2263
21384SOL    HW164730   2.669   7.145   3.317 -0.7484  0.5232  1.2934
21384SOL    HW264731   2.583   7.032   3.265  1.0647 -0.0626 -0.5783
21385SOL     OW64732   6.553   1.406   1.864 -0.0595 -0.1104  0.4794
21385SOL    HW164733   6.639   1.367   1.883 -0.6666 -0.9182  1.6190
21385SOL    HW264734   6.573   1.498   1.845  1.0938 -0.3496  0.4309
21386SOL     OW64735   2.828   4.646   0.947 -0.1421  0.2040  0.1108
21386SOL    HW164736   2.774   4.607   0.878 -0.7511 -0.1077  0.7579
21386SOL    HW264737   2.903   4.586   0.955  1.1977  1.4906 -1.9252
21387SOL     OW64738   4.938   9.893   3.756 -0.1403  0.2546  0.1174
21387SOL    HW164739   4.917   9.933   3.840  0.5823 -0.8301  0.8305
21387SOL    HW264740   5.022   9.932   3.731 -0.0829  0.1612  0.1657
21388SOL     OW64741   1.856   0.790   6.538  0.0110 -0.5077 -0.2468
21388SOL    HW164742   1.950   0.803   6.525 -0.1927  1.1800 -0.2067
21388SOL    HW264743   1.843   0.801   6.633 -0.3619  0.2657 -0.3842
21389SOL     OW64744   4.067   6.793   0.826  0.2335 -0.0024 -0.2178
21389SOL    HW164745   3.992   6.782   0.768  1.7158 -1.0532 -2.0556
21389SOL    HW264746   4.061   6.720   0.887 -0.2863 -0.0149 -0.2795
21390SOL     OW64747   5.559   2.708   8.448  0.4351  0.7017 -0.0890
21390SOL    HW164748   5.617   2.727   8.375  2.0121 -0.1982  0.8816
21390SOL    HW264749   5.614   2.663   8.512 -1.0844  0.7493  1.3271
21391SOL     OW64750   6.774   8.555   4.189  0.2027 -0.1548  0.2467
21391SOL    HW164751   6.853   8.602   4.161  0.4873 -0.0070  1.2246
21391SOL    HW264752   6.721   8.546   4.110 -0.0942  2.2681  0.1129
21392SOL     OW64753   1.607   6.663   9.686  0.1779  0.4650 -0.0745
21392SOL    HW164754   1.543   6.670   9.757 -1.0401 -0.7383 -1.0069
21392SOL    HW264755   1.619   6.753   9.656  1.7081  1.2136  2.4138
21393SOL     OW64756   2.550   3.789   1.177  0.3832  0.3084  0.0311
21393SOL    HW164757   2.502   3.762   1.256  0.9272 -0.0591  0.2419
21393SOL    HW264758   2.542   3.885   1.175  0.1957  0.3013  0.4184
21394SOL     OW64759   7.897   4.261   9.335 -0.2875  0.0207  0.3267
21394SOL    HW164760   7.966   4.200   9.308  0.4241  1.8216 -2.2884
21394SOL    HW264761   7.937   4.312   9.406 -0.0443 -0.9394  0.8970
21395SOL     OW64762   9.949   3.348   5.112 -0.1932 -0.0946  0.2936
21395SOL    HW164763   9.953   3.440   5.137 -1.9955 -0.3356  1.6832
21395SOL    HW264764   9.928   3.302   5.193 -3.5059 -1.2531 -1.0525
21396SOL     OW64765   3.115   0.344   6.364  0.4460  0.2330  0.0736
21396SOL    HW164766   3.177   0.371   6.432  1.1116 -1.5276  0.2253
21396SOL    HW264767   3.169   0.294   6.302 -0.5953 -0.2021 -0.5046
21397SOL     OW64768   6.267   9.515   8.252  0.0879  0.0401  0.0064
21397SOL    HW164769   6.211   9.455   8.202 -0.2754  0.2723  0.1423
21397SOL    HW264770   6.214   9.542   8.327  0.7998 -0.6881  0.8005
21398SOL     OW64771   7.448   4.152   3.403 -0.0235  0.1713 -0.3055
21398SOL    HW164772   7.484   4.164   3.490  0.1764  3.7244 -0.7231
21398SOL    HW264773   7.524   4.151   3.345 -0.2330  2.6258 -0.7457
21399SOL     OW64774   1.675   4.699   8.548 -0.2724 -0.2396  0.0154
21399SOL    HW164775   1.604   4.749   8.588 -1.7102 -0.5678 -2.0351
21399SOL    HW264776   1.638   4.613   8.530  0.9595 -0.7590 -0.1673
21400SOL     OW64777   0.940   6.956   0.887  0.1079 -0.0187  0.1844
21400SOL    HW164778   0.994   7.031   0.909 -0.7057  0.2481  1.3512
21400SOL    HW264779   0.999   6.881   0.891  0.7521  0.4596 -0.2231
21401SOL     OW64780   9.897   8.923   1.162 -0.1149  0.5911 -0.4998
21401SOL    HW164781   9.971   8.882   1.207 -0.7000  0.4543  0.3758
21401SOL    HW264782   9.937   8.971   1.089  0.8805  0.8892  0.2126
21402SOL     OW64783   9.204   2.749   6.515 -0.2985  0.1632 -0.2283
21402SOL    HW164784   9.214   2.844   6.507 -2.6775  0.5288  0.4140
21402SOL    HW264785   9.119   2.730   6.476 -0.0747 -1.6613  0.0599
21403SOL     OW64786   3.885   2.302   0.506  0.0966 -0.1129 -0.1243
21403SOL    HW164787   3.893   2.370   0.573 -0.4603  0.6678 -0.8343
21403SOL    HW264788   3.948   2.326   0.439  1.7772 -1.7541  0.8008
21404SOL     OW64789   2.810   7.710   2.935  0.0063  0.4855 -0.5145
21404SOL    HW164790   2.847   7.637   2.984 -4.3700 -1.3813  0.5688
21404SOL    HW264791   2.809   7.679   2.844 -0.3877 -0.1561 -0.2976
21405SOL     OW64792   6.188   4.043   6.186  0.4184  0.2203 -0.2561
21405SOL    HW164793   6.116   4.101   6.159  0.8347  0.8903  0.0420
21405SOL    HW264794   6.176   3.964   6.133 -1.4442 -0.3259  0.8901
21406SOL     OW64795   7.023   0.992   2.487 -0.0208  0.4467  0.8852
21406SOL    HW164796   7.031   0.911   2.436 -2.1940  0.0966  0.9976
21406SOL    HW264797   7.071   0.974   2.568  0.7068 -0.1964  0.3237
21407SOL     OW64798   7.169   8.922   3.831  0.0640  0.5402  0.4456
21407SOL    HW164799   7.233   8.860   3.864  0.0127  0.8594  1.1525
21407SOL    HW264800   7.217   8.973   3.765 -0.2701 -1.1401 -1.1627
21408SOL     OW64801   7.416   3.649   9.122  0.3498  0.0394  0.1792
21408SOL    HW164802   7.341   3.628   9.177  1.5894 -0.0343  1.8872
21408SOL    HW264803   7.377   3.688   9.043 -1.4262  0.8898  1.4209
21409SOL     OW64804   3.552   3.354   7.339 -0.2098  0.0802  0.0618
21409SOL    HW164805   3.528   3.304   7.417 -0.3513  1.1937  0.7567
21409SOL    HW264806   3.539   3.445   7.365  3.0837  0.7064 -0.0724
21410SOL     OW64807   0.682   4.175   1.131  0.1139 -0.1271  0.3665
21410SOL    HW164808   0.592   4.194   1.159  0.1264 -0.3200  0.5426
21410SOL    HW264809   0.736   4.238   1.178 -0.0200  0.6934 -0.5401
21411SOL     OW64810   1.833   9.186   5.279 -0.1626 -0.6182  0.3241
21411SOL    HW164811   1.881   9.126   5.337  1.1191  1.7364  1.8752
21411SOL    HW264812   1.880   9.269   5.287 -2.1404  0.7466 -1.3160
21412SOL     OW64813   3.867   7.733   4.541  0.5448 -0.1165  0.8018
21412SOL    HW164814   3.950   7.722   4.588  1.2177 -1.0967 -0.5504
21412SOL    HW264815   3.805   7.676   4.587  1.5777 -2.2642 -0.3438
21413SOL     OW64816   8.711   2.615   5.355 -0.2098 -0.2442  0.0096
21413SOL    HW164817   8.722   2.526   5.322 -0.1355 -0.5114  0.7304
21413SOL    HW264818   8.633   2.610   5.411 -0.0606  0.0799  0.2480
21414SOL     OW64819   1.361   7.702   6.574  0.0670 -0.4075 -0.0652
21414SOL    HW164820   1.357   7.611   6.603 -0.9269  0.3436  2.4779
21414SOL    HW264821   1.449   7.731   6.601 -0.3614 -0.0852  1.0377
21415SOL     OW64822   7.372   1.890   4.856 -0.2185 -0.0111  0.2719
21415SOL    HW164823   7.376   1.806   4.811 -1.1252 -0.6193  1.2725
21415SOL    HW264824   7.454   1.934   4.832  0.5276 -1.4022  0.1662
21416SOL     OW64825   4.039   4.209   0.292 -0.4839 -0.5790 -0.4324
21416SOL    HW164826   3.962   4.231   0.343 -0.5087  0.0866 -0.7366
21416SOL    HW264827   4.006   4.187   0.205 -0.4061 -1.2554 -0.2954
21417SOL     OW64828   1.916   9.072   0.314  0.8004 -0.0768  0.0953
21417SOL    HW164829   1.988   9.064   0.252 -0.7552 -0.8788 -1.6882
21417SOL    HW264830   1.900   8.983   0.344 -0.1837 -0.0684 -0.3968
21418SOL     OW64831   9.770   4.234   7.650  0.3365 -0.3868 -0.9213
21418SOL    HW164832   9.831   4.305   7.672  1.2185 -1.2103 -0.6341
21418SOL    HW264833   9.714   4.226   7.727 -2.6242  2.7729 -2.4901
21419SOL     OW64834   9.432   2.849   8.720 -0.5545  0.2759  0.1380
21419SOL    HW164835   9.360   2.882   8.666 -1.5076 -0.3455  0.9916
21419SOL    HW264836   9.419   2.754   8.722  0.6988  0.0906 -0.2612
21420SOL     OW64837   2.970   9.373   9.111 -0.4117 -0.8243  0.4186
21420SOL    HW164838   2.976   9.325   9.193 -0.3449 -0.8142  0.4194
21420SOL    HW264839   2.923   9.454   9.134  0.5528 -0.3267  0.6663
21421SOL     OW64840   1.213   4.017   6.087 -0.1934  0.2437  0.0589
21421SOL    HW164841   1.283   4.043   6.148 -0.6516 -1.2997  1.3054
21421SOL    HW264842   1.248   4.038   6.000  0.0718  3.4471  0.8432
21422SOL     OW64843   3.590   5.610   1.034  0.3404  0.1422 -0.1709
21422SOL    HW164844   3.575   5.691   0.986  0.2710  0.9653  1.1823
21422SOL    HW264845   3.561   5.540   0.975 -2.1329  1.2359 -0.3644
21423SOL     OW64846   2.270   7.275   0.642  0.5839  0.0747 -0.6122
21423SOL    HW164847   2.358   7.248   0.665  0.8220  1.2726 -0.0325
21423SOL    HW264848   2.212   7.221   0.697  1.0761  1.5114  1.4295
21424SOL     OW64849   5.482   0.046   3.727  0.1114 -0.2670 -0.2052
21424SOL    HW164850   5.391   0.021   3.741  0.5221 -0.8210  1.6443
21424SOL    HW264851   5.484   0.140   3.743 -0.2687 -0.0845 -1.1236
21425SOL     OW64852   4.659   6.839   4.141 -0.3983 -0.0709  0.3024
21425SOL    HW164853   4.703   6.767   4.096 -0.0126 -0.5607  1.4083
21425SOL    HW264854   4.722   6.868   4.207 -1.6501 -0.7607  1.8997
21426SOL     OW64855   7.675   6.006   2.150  0.0914 -0.1154 -0.2946
21426SOL    HW164856   7.588   6.041   2.172  0.4214 -0.7595  2.3839
21426SOL    HW264857   7.735   6.078   2.169  0.2002  0.2728 -1.9857
21427SOL     OW64858   0.529   5.411   2.833 -0.2089 -0.1010  0.5095
21427SOL    HW164859   0.537   5.485   2.893 -1.1336  0.8705 -0.5352
21427SOL    HW264860   0.581   5.436   2.757  0.6914 -1.1882  0.7300
21428SOL     OW64861   7.329   6.439   5.841 -0.7403  0.1027 -0.4183
21428SOL    HW164862   7.248   6.412   5.883 -0.8492  1.5115  0.3508
21428SOL    HW264863   7.344   6.374   5.772 -1.8539 -0.8702  0.2241
21429SOL     OW64864   2.728   6.929   5.546  0.7044 -0.8102  0.6291
21429SOL    HW164865   2.795   6.982   5.502 -0.3486 -1.0431 -1.3844
21429SOL    HW264866   2.703   6.981   5.623  1.4483  0.4538  0.0581
21430SOL     OW64867   4.904   3.856   7.429 -0.7711 -0.3765 -0.4732
21430SOL    HW164868   4.953   3.891   7.354  0.7761  1.5749  1.3346
21430SOL    HW264869   4.938   3.767   7.439  0.8748  0.2034 -0.5828
21431SOL     OW64870   2.013   8.281   9.416  0.0468 -0.0561 -0.2920
21431SOL    HW164871   2.095   8.234   9.429  2.2702  3.2458 -1.0150
21431SOL    HW264872   1.986   8.257   9.327 -0.7499 -2.3920  0.5136
21432SOL     OW64873   0.558   5.154   1.086  0.9488  0.1107  0.2951
21432SOL    HW164874   0.574   5.209   1.162 -0.9885  0.5369  0.4628
21432SOL    HW264875   0.512   5.077   1.120  2.1364 -0.8241 -0.1584
21433SOL     OW64876   5.696   9.773   5.563  0.1819 -0.1607  0.2691
21433SOL    HW164877   5.678   9.795   5.654  0.8899 -0.6095  0.5267
21433SOL    HW264878   5.728   9.854   5.524 -0.5690  0.1559  0.2851
21434SOL     OW64879   3.090   7.842   9.840 -0.1661 -0.1688  0.5755
21434SOL    HW164880   3.097   7.813   9.749 -0.5272  0.2216  0.4252
21434SOL    HW264881   3.014   7.900   9.842  0.5319  0.7624  0.8833
21435SOL     OW64882   8.779   2.864   4.348  0.0069 -0.1641 -0.7076
21435SOL    HW164883   8.859   2.880   4.398 -0.6366  0.6382  0.1100
21435SOL    HW264884   8.807   2.809   4.275  1.7079  1.8438 -1.6803
21436SOL     OW64885   9.886   0.066   2.233  0.2102  0.1959  0.4171
21436SOL    HW164886   9.968   0.076   2.184 -0.2024 -1.2418 -0.6535
21436SOL    HW264887   9.821   0.044   2.166 -0.6413 -0.6325  1.4780
21437SOL     OW64888   1.585   9.357   1.994  0.1838  0.2070  0.4500
21437SOL    HW164889   1.512   9.295   2.003 -1.2423  1.8131  0.4670
21437SOL    HW264890   1.543   9.440   1.971  1.8997  1.4938  1.7000
21438SOL     OW64891   5.581   7.740   8.863  0.0076 -0.5327  0.3950
21438SOL    HW164892   5.545   7.757   8.776  0.7991 -1.2961 -0.1046
21438SOL    HW264893   5.653   7.803   8.872  1.9898 -2.4408 -0.8559
21439SOL     OW64894   2.555   2.968   1.693  0.1549  0.3802 -0.2749
21439SOL    HW164895   2.572   3.016   1.775 -1.7075  1.6226 -0.5448
21439SOL    HW264896   2.539   3.037   1.628  0.0813 -0.6130 -1.3329
21440SOL     OW64897   6.876   9.825   6.702 -0.5124 -0.5566 -0.6847
21440SOL    HW164898   6.791   9.786   6.685 -0.8663 -0.3449  0.5221
21440SOL    HW264899   6.883   9.829   6.797  0.5046  0.1681 -0.7646
21441SOL     OW64900   5.485   5.784   4.153 -0.4380  0.1654 -0.2516
21441SOL    HW164901   5.531   5.709   4.116  0.4902  0.6816 -0.1922
21441SOL    HW264902   5.493   5.773   4.248 -0.4553  0.2465 -0.2404
21442SOL     OW64903   3.976   4.176   2.025  0.0785  0.4756 -0.1219
21442SOL    HW164904   3.956   4.255   1.975  2.6311 -0.4924 -3.0317
21442SOL    HW264905   3.967   4.105   1.961 -1.4314 -1.5788  2.2107
21443SOL     OW64906   4.549   7.503   5.577  0.2019  0.5262 -0.0470
21443SOL    HW164907   4.534   7.484   5.484  2.4524  1.3833 -0.6623
21443SOL    HW264908   4.524   7.594   5.587  0.0697  0.4661  0.1629
21444SOL     OW64909   9.565   7.112   3.735 -0.2963  0.2046  0.1414
21444SOL    HW164910   9.612   7.068   3.806  0.5857  0.3932 -0.3127
21444SOL    HW264911   9.475   7.080   3.742 -0.3806  0.7405  1.7579
21445SOL     OW64912   3.738   1.014   6.852  0.0338  0.6937 -0.3331
21445SOL    HW164913   3.724   0.920   6.837 -1.3747  0.6652  0.9579
21445SOL    HW264914   3.817   1.034   6.801  0.1929 -1.1142 -0.8909
21446SOL     OW64915   9.390   8.284   3.863 -0.5916 -0.6249  0.0550
21446SOL    HW164916   9.396   8.380   3.869 -0.1626 -0.5428 -1.2479
21446SOL    HW264917   9.297   8.267   3.852 -0.6723 -0.3575  0.3043
21447SOL     OW64918   0.467   9.026   3.241 -0.7575  0.8367 -0.0406
21447SOL    HW164919   0.389   8.999   3.289 -0.3535  1.5231  1.0562
21447SOL    HW264920   0.436   9.046   3.153 -1.5374 -0.3966 -0.0733
21448SOL     OW64921   0.316   2.890   6.291 -0.1767 -0.2776  0.4078
21448SOL    HW164922   0.347   2.862   6.377 -1.1173  1.9763  1.5586
21448SOL    HW264923   0.223   2.868   6.290 -0.8287  2.1580  1.1546
21449SOL     OW64924   7.947   7.494   7.425 -0.0108  0.5629  0.3250
21449SOL    HW164925   8.019   7.557   7.418  0.0714  0.4311 -0.0385
21449SOL    HW264926   7.905   7.515   7.508 -1.0647  2.2429 -0.5903
21450SOL     OW64927   3.892   3.031   4.055 -0.0521 -0.0073 -0.1678
21450SOL    HW164928   3.805   3.023   4.094 -0.2089 -0.6124 -0.6265
21450SOL    HW264929   3.879   3.008   3.963  0.4671  0.5821 -0.3986
21451SOL     OW64930   1.810   8.206   4.478  0.0007  0.4595 -0.7046
21451SOL    HW164931   1.905   8.208   4.489  0.1657  0.5894 -1.9433
21451SOL    HW264932   1.785   8.298   4.466  0.2527  0.2430 -3.9276
21452SOL     OW64933  -0.009   1.604   4.495  0.1143  0.1653 -0.2047
21452SOL    HW164934   0.080   1.641   4.490  0.2935 -0.3631 -1.3645
21452SOL    HW264935  -0.007   1.548   4.573  1.2543 -0.9343 -0.9822
21453SOL     OW64936   5.494   2.935   4.087 -0.1042  0.3911 -0.1163
21453SOL    HW164937   5.454   2.995   4.149 -4.0605 -2.1635  0.1776
21453SOL    HW264938   5.518   2.858   4.139 -2.1889 -1.2332 -1.3815
21454SOL     OW64939   3.140   9.304   3.759  0.0446  0.3247 -0.1422
21454SOL    HW164940   3.049   9.287   3.783  0.3958 -3.4563 -0.8227
21454SOL    HW264941   3.191   9.268   3.831  1.0738  2.4351  0.2474
21455SOL     OW64942   7.452   1.842   8.587 -0.0864 -0.2542  0.2302
21455SOL    HW164943   7.500   1.759   8.586 -0.6049 -0.5611 -0.6150
21455SOL    HW264944   7.395   1.836   8.664 -0.1799 -0.7206  0.1261
21456SOL     OW64945   2.559   9.242   2.231 -0.0607  0.0473 -0.4727
21456SOL    HW164946   2.587   9.153   2.213  0.9671 -0.1017  1.5948
21456SOL    HW264947   2.633   9.296   2.204 -0.1886  0.1793 -0.5649
21457SOL     OW64948   0.403   5.057   5.495  0.2354 -0.7448 -0.0259
21457SOL    HW164949   0.444   5.060   5.582 -0.8886  1.5929  0.4959
21457SOL    HW264950   0.326   5.112   5.503 -2.0287 -3.4419 -1.5110
21458SOL     OW64951   2.128   4.028   5.249 -0.1120 -0.4097 -0.6559
21458SOL    HW164952   2.084   4.076   5.178  0.2544 -0.5507 -0.9808
21458SOL    HW264953   2.061   4.018   5.316  0.1554  1.7402 -0.0029
21459SOL     OW64954   2.676   8.705   6.800  0.1328  0.3335  0.0598
21459SOL    HW164955   2.677   8.800   6.789  1.4813  0.3493  0.1276
21459SOL    HW264956   2.597   8.676   6.754  0.6345  1.3198 -1.5153
21460SOL     OW64957   8.204   4.689   3.317 -0.0617  0.2478 -0.1382
21460SOL    HW164958   8.231   4.737   3.396 -1.0341 -1.1098  1.0737
21460SOL    HW264959   8.229   4.599   3.335  0.2261  0.0059 -1.6611
21461SOL     OW64960   9.486   1.134   8.107  0.3692  0.2353 -0.3086
21461SOL    HW164961   9.525   1.069   8.049  0.6842  1.5263 -1.6048
21461SOL    HW264962   9.560   1.186   8.138  0.3473 -1.0515  2.1447
21462SOL     OW64963   6.358   9.897   1.762  0.6158 -0.1282 -0.7241
21462SOL    HW164964   6.344   9.989   1.782 -0.0085 -0.6912  1.6622
21462SOL    HW264965   6.452   9.891   1.742  1.3709  0.5659  2.2051
21463SOL     OW64966   6.615   0.196   7.892  0.0452  0.1024 -0.1399
21463SOL    HW164967   6.691   0.218   7.838  1.4953  1.0300  2.1259
21463SOL    HW264968   6.571   0.126   7.845  3.3769 -1.8289 -0.6406
21464SOL     OW64969   5.523   0.188   4.593 -0.1273  0.2194  0.2882
21464SOL    HW164970   5.555   0.226   4.675  0.0675  0.0528  0.2889
21464SOL    HW264971   5.583   0.222   4.526  0.3787 -0.5103  0.3567
21465SOL     OW64972   7.528   4.973   0.569  0.6114 -0.9054 -0.0382
21465SOL    HW164973   7.537   4.967   0.664  1.7696 -1.4700 -0.1586
21465SOL    HW264974   7.457   5.035   0.555  1.3155  0.2172  1.1867
21466SOL     OW64975   8.762   9.655   6.661 -0.4336 -0.5925  0.1098
21466SOL    HW164976   8.708   9.587   6.622  0.2117  0.2193 -2.3801
21466SOL    HW264977   8.702   9.705   6.716 -2.0847 -0.1884 -1.9516
21467SOL     OW64978   1.043   4.906   8.261  0.0196 -0.9138  0.5462
21467SOL    HW164979   1.003   4.890   8.347 -0.9214  0.1880  0.3404
21467SOL    HW264980   0.969   4.909   8.200  0.3079  1.4992  0.2051
21468SOL     OW64981   3.955   3.934   7.557  0.1402 -0.0498  0.1609
21468SOL    HW164982   4.042   3.909   7.589  0.0723  0.2173  0.5646
21468SOL    HW264983   3.924   3.999   7.620 -0.1166  0.2844 -0.3047
21469SOL     OW64984   8.530   2.870   8.863 -0.1396 -0.0498  0.2507
21469SOL    HW164985   8.435   2.858   8.865 -0.4289  1.6838 -0.9938
21469SOL    HW264986   8.566   2.783   8.881 -1.9825 -1.3363 -1.8376
21470SOL     OW64987   5.692   5.107   8.713 -0.8368  0.2978 -0.0919
21470SOL    HW164988   5.601   5.114   8.685 -1.0827 -1.2237  0.2805
21470SOL    HW264989   5.726   5.031   8.665 -0.4828 -0.6620  1.6060
21471SOL     OW64990   0.431   5.022   2.783 -0.0372 -0.0302  0.4812
21471SOL    HW164991   0.480   5.045   2.863  1.4799 -2.6938  0.4297
21471SOL    HW264992   0.344   5.060   2.797  0.7612  1.2563  2.4969
21472SOL     OW64993   0.096   6.645   1.573 -0.0954  0.0910 -0.0488
21472SOL    HW164994   0.045   6.712   1.619 -0.0778  1.0365 -1.3544
21472SOL    HW264995   0.100   6.572   1.634  1.3474  1.8662  2.1654
21473SOL     OW64996   0.852   5.117   5.398 -0.0391  0.1047  0.4332
21473SOL    HW164997   0.890   5.175   5.332 -0.8917 -0.4018 -0.5561
21473SOL    HW264998   0.769   5.159   5.421  0.0352  0.0365  0.8217
21474SOL     OW64999   1.332   1.815   3.196 -0.0364 -0.5572  0.2965
21474SOL    HW165000   1.272   1.742   3.212 -1.8618  0.8066  0.0067
21474SOL    HW265001   1.278   1.882   3.155  1.6590  0.8504  0.2319
21475SOL     OW65002   8.005   5.871   8.630  0.1025  0.2093  0.0018
21475SOL    HW165003   7.974   5.954   8.594 -1.1578  0.6594  2.0267
21475SOL    HW265004   8.096   5.865   8.601  0.1280  2.1625 -0.4054
21476SOL     OW65005   3.116   3.661   7.306  0.5644  0.2860 -0.4634
21476SOL    HW165006   3.067   3.713   7.242 -1.8215 -1.1194  0.1275
21476SOL    HW265007   3.164   3.727   7.357 -2.2924  2.0335  0.2250
21477SOL     OW65008   9.590   0.318   7.087 -0.0182  0.4703  0.1796
21477SOL    HW165009   9.564   0.309   7.179  0.6505  0.4388  0.3711
21477SOL    HW265010   9.661   0.382   7.088  0.8784 -0.4787 -0.1394
21478SOL     OW65011   7.392   4.641   6.670  0.0637  0.3732 -0.0464
21478SOL    HW165012   7.382   4.552   6.637  0.0096  1.4609 -3.3410
21478SOL    HW265013   7.303   4.669   6.691  0.1326 -0.4479  1.4596
21479SOL     OW65014   7.759   8.855   2.475  0.5165  0.4624 -0.0791
21479SOL    HW165015   7.677   8.904   2.474  0.9376  1.2435  1.1988
21479SOL    HW265016   7.809   8.893   2.547  1.8979 -0.1815 -0.6558
21480SOL     OW65017   8.673   6.496   6.735 -0.1126  0.1550 -0.2254
21480SOL    HW165018   8.614   6.558   6.778  1.1002 -0.0491  1.8321
21480SOL    HW265019   8.755   6.543   6.725  0.4005 -0.6489  0.0706
21481SOL     OW65020   3.603   3.954   7.488 -0.8575  0.3507 -0.3502
21481SOL    HW165021   3.593   3.928   7.396  1.3711  0.0032 -0.5491
21481SOL    HW265022   3.565   4.041   7.492  1.5020  1.5965 -2.3357
21482SOL     OW65023   0.255   9.741   1.124  0.3411 -0.2752 -0.0530
21482SOL    HW165024   0.336   9.764   1.077  0.6604 -0.3090  0.4723
21482SOL    HW265025   0.270   9.651   1.154  0.4073 -0.0259  0.6733
21483SOL     OW65026   4.657   3.812   6.934 -0.3530 -0.0658 -0.8109
21483SOL    HW165027   4.656   3.733   6.881  0.9616  0.1583 -1.2050
21483SOL    HW265028   4.650   3.884   6.870  0.2352  0.1750 -0.6119
21484SOL     OW65029   6.105   7.758   6.882 -0.1147  0.0301 -0.9034
21484SOL    HW165030   6.106   7.711   6.966 -1.4056 -0.0963 -0.9258
21484SOL    HW265031   6.152   7.839   6.899 -0.7995  0.2394  0.1130
21485SOL     OW65032   2.078   5.751   0.261 -0.1819 -0.2094 -0.5855
21485SOL    HW165033   2.070   5.785   0.172 -4.1605  0.3564 -0.1744
21485SOL    HW265034   2.060   5.657   0.252  0.8225 -0.4164 -0.5143
21486SOL     OW65035   4.129   1.796   7.053  0.2042 -0.2211 -1.1629
21486SOL    HW165036   4.080   1.830   6.979  0.0564 -1.1747 -1.5163
21486SOL    HW265037   4.084   1.715   7.078  0.1968  0.1269  0.0298
21487SOL     OW65038   4.787   3.069   4.296  0.2867  0.3536 -0.1868
21487SOL    HW165039   4.794   3.064   4.200 -2.1018  2.6006 -0.5850
21487SOL    HW265040   4.760   3.159   4.313  1.7165  0.3292  2.7474
21488SOL     OW65041   2.081   2.213   8.291  0.0269 -0.2928  0.2624
21488SOL    HW165042   2.045   2.268   8.361 -0.6169  2.2751 -1.9594
21488SOL    HW265043   2.138   2.151   8.337 -0.5849  1.0584  3.0717
21489SOL     OW65044   7.768   1.603   1.237  0.1353 -0.1197 -0.3614
21489SOL    HW165045   7.730   1.691   1.228  1.9762  0.8827  0.9615
21489SOL    HW265046   7.730   1.553   1.165 -1.4603  1.5690 -0.7717
21490SOL     OW65047   6.184   5.090   3.071 -0.0629  0.2224 -0.3100
21490SOL    HW165048   6.260   5.034   3.055 -0.8776 -1.4191  1.2039
21490SOL    HW265049   6.112   5.028   3.085 -1.5175  1.7137 -0.8596
21491SOL     OW65050   6.934   9.666   0.922  0.4540  0.1942 -0.1117
21491SOL    HW165051   6.898   9.726   0.988  1.4346  0.5103  0.1617
21491SOL    HW265052   7.009   9.624   0.966  0.2182 -0.7007 -0.5394
21492SOL     OW65053   3.840   9.464   9.906 -0.1708 -0.7218 -0.0121
21492SOL    HW165054   3.930   9.497   9.913  0.4017 -1.6165 -2.3345
21492SOL    HW265055   3.825   9.419   9.989  1.4940 -0.4728  0.4599
21493SOL     OW65056   5.591   2.407   8.366 -0.2388 -0.8095  0.3423
21493SOL    HW165057   5.623   2.342   8.303  2.4033  1.4167 -0.8045
21493SOL    HW265058   5.669   2.441   8.409 -1.0890  3.3644 -0.9446
21494SOL     OW65059   1.516   7.403   7.655  0.9042  0.3246 -0.3903
21494SOL    HW165060   1.561   7.474   7.701  0.8859  1.2774 -1.7789
21494SOL    HW265061   1.520   7.428   7.563  0.7069 -1.3895 -0.9015
21495SOL     OW65062   3.216   3.566   8.406  0.4298  0.0383  0.3512
21495SOL    HW165063   3.252   3.644   8.362 -1.0062  1.0380  0.8459
21495SOL    HW265064   3.209   3.501   8.336 -3.5500  2.1737 -1.6110
21496SOL     OW65065   1.123   2.846   0.189 -0.1077 -0.1729  0.0686
21496SOL    HW165066   1.055   2.830   0.255  0.3559  1.2930  0.9711
21496SOL    HW265067   1.183   2.908   0.232  0.9508 -0.2277 -1.2648
21497SOL     OW65068   5.616   8.397   6.281  0.2489 -0.2694 -0.2419
21497SOL    HW165069   5.644   8.456   6.211 -0.7626 -0.6602 -1.0181
21497SOL    HW265070   5.654   8.312   6.257  0.9382 -0.1438  0.3736
21498SOL     OW65071   5.710   7.388   6.666 -0.1100  0.5562  0.7233
21498SOL    HW165072   5.628   7.357   6.704 -0.5046  0.9954  0.2656
21498SOL    HW265073   5.771   7.316   6.676 -0.7509 -0.0318  0.4648
21499SOL     OW65074   7.674   9.927   2.814  0.1240  0.1717 -0.4814
21499SOL    HW165075   7.582   9.900   2.816  0.8198 -2.6604  2.4468
21499SOL    HW265076   7.718   9.858   2.764  0.8690  0.6368 -0.4843
21500SOL     OW65077   2.842   4.863   2.032  0.2650 -0.3323  0.1736
21500SOL    HW165078   2.757   4.835   2.064  0.5021 -2.4509 -0.8634
21500SOL    HW265079   2.822   4.931   1.968 -0.8148 -1.7693 -1.0940
21501SOL     OW65080   5.727   4.846   0.638  0.1561  0.4256  0.7847
21501SOL    HW165081   5.813   4.839   0.598  1.1033 -0.6783  2.8359
21501SOL    HW265082   5.667   4.802   0.577  1.6217 -1.7889  0.8361
21502SOL     OW65083   3.567   0.130   2.015 -0.4558  0.1398  0.6402
21502SOL    HW165084   3.499   0.173   1.963 -0.7146  0.6445  1.3799
21502SOL    HW265085   3.538   0.040   2.023 -0.2470 -0.0264 -0.3603
21503SOL     OW65086   1.109   5.582   5.863 -0.1087 -0.3375 -0.3659
21503SOL    HW165087   1.023   5.624   5.871 -0.0342 -0.0421 -1.0837
21503SOL    HW265088   1.106   5.536   5.780 -0.5635 -2.6927  0.8616
21504SOL     OW65089   8.305   5.512   5.234 -0.6722  0.0132 -0.9548
21504SOL    HW165090   8.337   5.552   5.315 -1.1868  0.7999 -1.1247
21504SOL    HW265091   8.384   5.485   5.188 -0.3774 -0.4751 -0.1738
21505SOL     OW65092   9.536   9.405   0.647 -0.0443  0.3434 -0.4934
21505SOL    HW165093   9.586   9.400   0.728  0.0521  1.4562 -0.4760
21505SOL    HW265094   9.479   9.328   0.650 -0.2239  0.5091  0.7426
21506SOL     OW65095   5.012   5.343   4.805 -0.4195 -0.7490  0.1994
21506SOL    HW165096   5.041   5.363   4.895  1.0330 -2.3040  0.1332
21506SOL    HW265097   4.933   5.396   4.793 -0.7949 -0.6837  2.4833
21507SOL     OW65098   7.202   0.703   6.032 -0.2405 -0.4594  0.1109
21507SOL    HW165099   7.140   0.642   5.993 -0.1400  0.2272 -1.1797
21507SOL    HW265100   7.163   0.727   6.117 -2.7404  1.4192 -1.4363
21508SOL     OW65101   3.953   0.489   9.744 -0.8576 -0.1771 -0.3424
21508SOL    HW165102   3.997   0.574   9.738 -0.7391 -0.3082 -3.7270
21508SOL    HW265103   3.934   0.478   9.837  0.0887  3.0376  0.3763
21509SOL     OW65104   2.909   2.507   0.360  0.3084 -0.2047  0.1133
21509SOL    HW165105   2.940   2.426   0.401 -0.6026 -0.2915  0.6650
21509SOL    HW265106   2.988   2.550   0.330  0.7725 -1.6971 -0.9456
21510SOL     OW65107   7.278   6.731   0.850 -0.2016 -0.0791  0.5478
21510SOL    HW165108   7.371   6.754   0.849 -0.1061 -0.4510  0.5440
21510SOL    HW265109   7.275   6.646   0.894 -0.5255 -0.1244  0.4411
21511SOL     OW65110   0.366   9.341   4.657  0.0813  0.1662  1.0986
21511SOL    HW165111   0.445   9.317   4.706  0.0180 -0.2661  0.9941
21511SOL    HW265112   0.315   9.392   4.720  0.1969 -0.0169  1.3474
21512SOL     OW65113   5.255   3.387   4.088  0.3447  0.2263 -0.5221
21512SOL    HW165114   5.325   3.322   4.082  0.1110  0.0458 -1.4008
21512SOL    HW265115   5.219   3.392   4.000 -1.0746 -0.0418  0.0065
21513SOL     OW65116   0.087   1.064   8.561 -0.2018 -0.4308  0.6585
21513SOL    HW165117   0.030   1.064   8.484 -0.5528 -0.0645  0.9125
21513SOL    HW265118   0.038   1.115   8.626  0.1985 -0.5382  1.0418
21514SOL     OW65119   0.221   8.334   3.921 -0.2174 -0.4621 -0.0124
21514SOL    HW165120   0.195   8.295   3.836 -0.6941  0.0428 -0.1050
21514SOL    HW265121   0.150   8.394   3.941  0.6196  0.5253  0.0321
21515SOL     OW65122   6.965   8.056   1.458  0.0461 -0.3340  0.3947
21515SOL    HW165123   6.993   7.964   1.454  0.1355 -0.3358  1.0137
21515SOL    HW265124   7.027   8.098   1.517 -0.5419 -0.0737  0.8392
21516SOL     OW65125   1.161   6.897   2.009  0.3719  0.0402 -0.2726
21516SOL    HW165126   1.235   6.890   1.948 -1.2095 -1.1564 -2.1541
21516SOL    HW265127   1.124   6.808   2.011 -0.5344  0.4146  1.3038
21517SOL     OW65128   2.681   0.426   1.802  0.0213 -0.0718 -0.0425
21517SOL    HW165129   2.687   0.506   1.749  0.0156 -0.2095 -0.2537
21517SOL    HW265130   2.648   0.456   1.887 -1.5440 -0.0713 -0.6271
21518SOL     OW65131   9.479   4.609   4.660 -0.4172 -0.1681  0.6585
21518SOL    HW165132   9.397   4.562   4.677  0.2160 -0.6579  2.6109
21518SOL    HW265133   9.518   4.563   4.585 -0.3196 -2.1251  1.8518
21519SOL     OW65134   1.841   9.937   8.176 -0.0817 -0.5445  0.1593
21519SOL    HW165135   1.905   9.914   8.108  1.0428 -0.8641  1.2823
21519SOL    HW265136   1.807  10.022   8.149 -1.9808 -1.9510 -2.4228
21520SOL     OW65137   5.127   4.785   4.376 -0.1791  0.1949 -0.1200
21520SOL    HW165138   5.117   4.812   4.284 -1.1687 -0.1986 -0.1306
21520SOL    HW265139   5.045   4.742   4.398  0.5520 -0.9066  0.5511
21521SOL     OW65140   3.992   5.290   8.438 -0.3908  0.4052 -0.2716
21521SOL    HW165141   3.978   5.226   8.369  0.0210  0.4499 -0.3995
21521SOL    HW265142   3.976   5.375   8.396 -0.3627  0.4183 -0.2559
21522SOL     OW65143   1.831   6.747   4.293  0.5041  0.5061  0.2037
21522SOL    HW165144   1.892   6.677   4.269  1.4634  0.6846  1.9651
21522SOL    HW265145   1.816   6.735   4.387 -1.9378  0.6966 -0.0958
21523SOL     OW65146   8.441   8.377   4.563 -0.6119 -0.6789 -0.4288
21523SOL    HW165147   8.496   8.454   4.550 -0.3722 -0.5804  0.9750
21523SOL    HW265148   8.446   8.329   4.481 -0.7857  0.8070 -1.3462
21524SOL     OW65149   2.474   0.676   4.495 -0.1359  0.1311 -0.0095
21524SOL    HW165150   2.415   0.692   4.422  0.0669  0.8431 -0.0239
21524SOL    HW265151   2.455   0.745   4.558 -0.0891 -0.2910  0.4780
21525SOL     OW65152  -0.035   9.712   9.357 -0.3341 -0.2453  0.1485
21525SOL    HW165153   0.010   9.658   9.291 -0.1285  1.1326 -0.8790
21525SOL    HW265154   0.026   9.783   9.375 -0.6250 -0.2986  1.4491
21526SOL     OW65155   4.500   2.878   3.927  0.4050 -0.8834  0.2484
21526SOL    HW165156   4.447   2.896   4.005 -0.3498  0.7073 -0.5941
21526SOL    HW265157   4.541   2.962   3.907  1.7305 -1.6283 -0.2622
21527SOL     OW65158   0.592   9.970   3.088  0.1102  0.4093 -0.1799
21527SOL    HW165159   0.643   9.904   3.040  0.8968  0.8642  0.0135
21527SOL    HW265160   0.600   9.944   3.180  0.0472  0.5171 -0.1450
21528SOL     OW65161   1.191   2.089   3.877  0.3042 -0.0621  0.0144
21528SOL    HW165162   1.187   2.124   3.966  1.2225  0.9740 -0.3223
21528SOL    HW265163   1.163   1.998   3.885 -3.2700  0.9712  0.7695
21529SOL     OW65164   5.694   9.090   3.248  0.0300  0.2202 -0.0571
21529SOL    HW165165   5.740   9.116   3.328  0.1160 -2.2033  0.7407
21529SOL    HW265166   5.763   9.062   3.188 -0.1981 -0.8898  0.1742
21530SOL     OW65167   9.796   4.136   0.773 -0.6773 -0.2652  0.1158
21530SOL    HW165168   9.835   4.139   0.860  1.1956  0.8331 -0.7277
21530SOL    HW265169   9.791   4.227   0.744 -1.0172 -0.6207 -1.0330
21531SOL     OW65170   2.142   4.620   9.094  0.3771 -0.2480  0.0269
21531SOL    HW165171   2.098   4.684   9.037  1.8995  1.4475  0.6437
21531SOL    HW265172   2.085   4.543   9.092 -1.1500  0.8356 -1.3771
21532SOL     OW65173   3.552   3.188   7.102  0.4326 -0.1456  0.2401
21532SOL    HW165174   3.553   3.240   7.182 -0.4204 -2.4725  1.8657
21532SOL    HW265175   3.641   3.152   7.096  1.1192  1.6116 -1.0564
21533SOL     OW65176   4.339   1.439   1.942 -0.0531  0.0516  0.2358
21533SOL    HW165177   4.342   1.418   2.035  1.9153 -3.0894 -0.3640
21533SOL    HW265178   4.267   1.386   1.907  0.5599 -0.4576 -0.2951
21534SOL     OW65179   5.139   5.189   2.850 -0.4388  0.5392 -0.6386
21534SOL    HW165180   5.161   5.278   2.825  0.5076  0.1134 -1.4061
21534SOL    HW265181   5.128   5.192   2.945 -3.8065  2.1515 -0.9191
21535SOL     OW65182   3.391   7.070   6.706 -0.1218 -0.4479  0.1172
21535SOL    HW165183   3.402   7.077   6.611  0.2626  2.8843  0.3093
21535SOL    HW265184   3.472   7.105   6.743 -1.6328  1.8046  1.5884
21536SOL     OW65185   1.658   6.171   5.521 -0.0881  0.3475  0.2237
21536SOL    HW165186   1.671   6.244   5.461 -1.5752 -0.2439 -0.8735
21536SOL    HW265187   1.723   6.106   5.495 -0.1025  0.4746 -0.1250
21537SOL     OW65188   8.181   8.511   3.461 -0.5859  0.1278 -0.2003
21537SOL    HW165189   8.152   8.428   3.424  0.4466  0.1224 -1.0540
21537SOL    HW265190   8.261   8.532   3.413 -0.1159  0.9694  0.9132
21538SOL     OW65191   5.785   9.503   9.308 -0.1124  0.0730  0.3366
21538SOL    HW165192   5.784   9.466   9.397 -1.2187  1.3039  0.8720
21538SOL    HW265193   5.857   9.458   9.265  0.9153 -0.0598  2.0819
21539SOL     OW65194   9.080   6.556   6.431 -0.4848 -0.0896  0.3452
21539SOL    HW165195   9.140   6.490   6.464  1.4887  1.3104 -0.3037
21539SOL    HW265196   9.057   6.526   6.343  1.2693  0.5700 -0.3759
21540SOL     OW65197   3.757   2.365   3.538  0.0967  0.6948 -0.0639
21540SOL    HW165198   3.666   2.385   3.561 -0.3894  0.2148 -1.4628
21540SOL    HW265199   3.804   2.370   3.621 -0.9337  2.3514  0.4634
21541SOL     OW65200   3.330   0.256   8.707 -0.1735  0.5259  0.1323
21541SOL    HW165201   3.398   0.259   8.774  0.7632  0.9972 -0.7938
21541SOL    HW265202   3.248   0.262   8.755  0.3727 -1.2915  1.3659
21542SOL     OW65203   5.174   4.218   3.748  0.1518  0.3323 -0.1091
21542SOL    HW165204   5.114   4.230   3.821  0.1509 -0.1842 -0.0247
21542SOL    HW265205   5.152   4.131   3.713 -0.0434  0.6895 -0.8968
21543SOL     OW65206   2.569   0.187   6.845 -0.1254  0.2196 -0.4088
21543SOL    HW165207   2.531   0.169   6.931  1.9147  0.4077  0.5917
21543SOL    HW265208   2.625   0.262   6.859 -2.1255  2.3035 -2.6679
21544SOL     OW65209   5.863   1.440   4.786 -0.4666  0.4265 -0.7274
21544SOL    HW165210   5.940   1.385   4.802  0.1168  1.5247  0.4029
21544SOL    HW265211   5.893   1.529   4.802 -2.1660  0.8208  0.5102
21545SOL     OW65212   1.534   2.954   4.952 -0.4796 -0.1897 -0.0930
21545SOL    HW165213   1.460   2.991   5.000 -0.4884 -1.1961  0.6800
21545SOL    HW265214   1.494   2.891   4.892 -0.3150 -0.1520 -0.2418
21546SOL     OW65215   0.807   2.098   9.375  0.3611 -0.7656  0.3213
21546SOL    HW165216   0.854   2.145   9.444 -1.1924  0.7081  0.4560
21546SOL    HW265217   0.862   2.023   9.355  1.4769 -0.5329  2.2642
21547SOL     OW65218   2.228   5.003   1.134 -0.0117  0.3457 -0.1488
21547SOL    HW165219   2.212   5.083   1.185  0.9396  0.2309  0.3409
21547SOL    HW265220   2.254   4.938   1.199 -2.7855 -0.9986 -0.2597
21548SOL     OW65221   7.575   8.584   4.429  0.2966 -0.4049  1.1024
21548SOL    HW165222   7.533   8.504   4.395 -0.5940  0.6732 -0.4288
21548SOL    HW265223   7.529   8.656   4.387 -0.3565  1.0613  4.0325
21549SOL     OW65224   4.171   3.134   1.267 -0.2298 -0.5566 -0.3616
21549SOL    HW165225   4.157   3.165   1.357  3.6061 -0.5946  0.4263
21549SOL    HW265226   4.124   3.195   1.212 -1.4735  0.3526  1.6152
21550SOL     OW65227   0.545   1.867   9.193 -0.2793  0.2198 -0.2164
21550SOL    HW165228   0.583   1.953   9.212 -0.4330  0.0141  1.1973
21550SOL    HW265229   0.619   1.807   9.195 -0.2801  0.2151 -0.3654
21551SOL     OW65230   5.338   3.285   1.195  0.4312 -0.3205  0.2209
21551SOL    HW165231   5.334   3.221   1.124 -0.7122  1.8995 -1.8494
21551SOL    HW265232   5.278   3.251   1.262 -0.3238 -1.3042 -0.9149
21552SOL     OW65233   6.566   7.101   0.788 -0.0615  0.1464 -0.4996
21552SOL    HW165234   6.509   7.175   0.808 -1.9959 -1.0538 -1.2659
21552SOL    HW265235   6.509   7.038   0.745  2.0700 -0.7999 -2.1171
21553SOL     OW65236   1.176   2.455   7.961 -0.1378  0.6211 -0.7898
21553SOL    HW165237   1.237   2.521   7.930  0.3842  0.2399 -0.5991
21553SOL    HW265238   1.093   2.475   7.918 -0.5938  2.7093  0.9099
21554SOL     OW65239   6.928   7.114   1.683 -0.0397  0.7347  0.3650
21554SOL    HW165240   6.887   7.117   1.770 -1.1723  2.7508 -0.1628
21554SOL    HW265241   6.925   7.022   1.659 -2.0475  0.4400  1.4295
21555SOL     OW65242   8.552   6.755   2.126 -0.1305 -0.1613 -0.2695
21555SOL    HW165243   8.526   6.847   2.117  2.9942  0.7492 -1.1589
21555SOL    HW265244   8.621   6.743   2.061 -1.3626 -3.5906 -1.1544
21556SOL     OW65245   4.676   7.428   3.606  0.0116 -0.2494 -0.4499
21556SOL    HW165246   4.751   7.479   3.576 -0.9807  2.1808  0.9727
21556SOL    HW265247   4.635   7.396   3.525  2.8039 -2.1915 -1.2556
21557SOL     OW65248   7.048   8.000   2.018 -0.0135  0.6837  0.1426
21557SOL    HW165249   6.966   7.955   1.995  0.2295  1.4400 -2.5775
21557SOL    HW265250   7.114   7.958   1.963  0.6952  2.5268 -0.4744
21558SOL     OW65251   6.608   6.224   0.465  0.1521  0.2953  0.4433
21558SOL    HW165252   6.535   6.280   0.441 -0.6290 -0.6379  0.5775
21558SOL    HW265253   6.686   6.271   0.435 -0.5546  0.9103 -0.4622
21559SOL     OW65254   5.247   1.814   9.232  0.0158  0.2636 -0.5819
21559SOL    HW165255   5.207   1.897   9.205 -1.1574 -0.4067 -1.0104
21559SOL    HW265256   5.330   1.810   9.184  0.0774  1.1849 -0.5625
21560SOL     OW65257   4.472   4.716   8.276  0.2499 -0.1720 -0.4995
21560SOL    HW165258   4.557   4.677   8.297  0.9240  1.5042 -0.0161
21560SOL    HW265259   4.471   4.798   8.324 -1.7820 -0.2909 -0.2821
21561SOL     OW65260   4.502   0.263   0.899  0.5135  0.2966  0.0337
21561SOL    HW165261   4.573   0.220   0.946 -0.4053 -1.1902  0.1274
21561SOL    HW265262   4.542   0.292   0.817  1.4043  0.1709  0.4105
21562SOL     OW65263   3.390   7.957   1.862  0.8249  0.6107 -0.1302
21562SOL    HW165264   3.462   7.913   1.817  1.5229  0.0860  1.4241
21562SOL    HW265265   3.432   8.000   1.937 -0.3362  1.1428  0.2273
21563SOL     OW65266   4.010   4.453   3.095  0.3480 -0.1874 -0.1285
21563SOL    HW165267   4.095   4.455   3.051  0.8115 -1.4126  0.6592
21563SOL    HW265268   3.985   4.361   3.095 -0.4331  0.0102  0.6903
21564SOL     OW65269   9.766   6.723   8.349 -0.2184 -0.1259  0.0597
21564SOL    HW165270   9.816   6.665   8.407  1.1284 -0.3571 -1.2621
21564SOL    HW265271   9.783   6.811   8.382  0.6383 -0.2437 -0.0452
21565SOL     OW65272   1.244   3.347   3.249  0.2522 -0.1043  0.2359
21565SOL    HW165273   1.168   3.345   3.306  1.0051  1.1492  1.3409
21565SOL    HW265274   1.317   3.324   3.306  0.7726 -0.8172 -0.6949
21566SOL     OW65275   7.676   4.147   4.567 -0.6495 -0.0473 -0.2216
21566SOL    HW165276   7.744   4.107   4.621 -0.1828 -1.9770 -2.0770
21566SOL    HW265277   7.718   4.225   4.529  0.2254 -0.6894 -0.5992
21567SOL     OW65278   3.238   3.863   7.431 -0.4427 -0.2984 -0.0326
21567SOL    HW165279   3.291   3.924   7.481 -0.2786 -0.3975 -0.0836
21567SOL    HW265280   3.268   3.873   7.341  0.1659 -1.0468  0.0775
21568SOL     OW65281   5.307   8.549   0.728  0.2247 -0.1752 -0.8879
21568SOL    HW165282   5.245   8.508   0.789 -1.5701  0.0043 -2.4989
21568SOL    HW265283   5.387   8.498   0.738 -0.4453 -1.0202  0.6009
21569SOL     OW65284   7.590   4.782   8.283  0.6053  0.2629 -0.2040
21569SOL    HW165285   7.554   4.729   8.212 -1.0707  0.0850  0.7329
21569SOL    HW265286   7.650   4.843   8.239 -1.0345  0.7497 -1.9267
21570SOL     OW65287   7.398   2.201   8.144 -0.5250 -0.5686 -0.1229
21570SOL    HW165288   7.414   2.227   8.053  0.1197  2.1779  0.6743
21570SOL    HW265289   7.348   2.273   8.181  0.4536 -0.9328  2.0662
21571SOL     OW65290   8.602   7.521   3.302  0.0666 -0.4716  0.7513
21571SOL    HW165291   8.577   7.613   3.312  0.6505 -0.3028  0.6733
21571SOL    HW265292   8.576   7.481   3.385 -0.0275 -0.1988  0.8580
21572SOL     OW65293   3.611   7.644   3.441  0.6227  0.6910 -0.5404
21572SOL    HW165294   3.661   7.711   3.489  0.6631  0.4479 -0.2423
21572SOL    HW265295   3.520   7.673   3.448  0.7187  1.1388 -1.0891
21573SOL     OW65296   6.954   3.909   4.056 -0.5450  0.0996 -0.1052
21573SOL    HW165297   6.934   3.916   3.963  0.0573 -1.7512 -0.4150
21573SOL    HW265298   6.942   3.816   4.077  1.0424  0.1398  1.2390
21574SOL     OW65299   7.643   6.556   7.728  0.1196 -0.0202 -0.4711
21574SOL    HW165300   7.643   6.631   7.787 -1.1642  0.0103 -0.4947
21574SOL    HW265301   7.646   6.480   7.787 -1.9497 -0.0130 -0.2871
21575SOL     OW65302   8.934   1.652   4.704 -0.3822  0.1793  0.2584
21575SOL    HW165303   8.856   1.686   4.748  0.3322  2.9602 -0.4331
21575SOL    HW265304   8.946   1.710   4.629  1.1570 -1.5246 -0.8840
21576SOL     OW65305   3.230   2.238   3.829  0.7538 -0.6549 -0.7053
21576SOL    HW165306   3.241   2.181   3.753  1.2301 -2.8363  0.9057
21576SOL    HW265307   3.140   2.222   3.857  1.0997 -1.1734  0.1495
21577SOL     OW65308   0.831   1.757   5.419  0.1322  0.1211 -0.3647
21577SOL    HW165309   0.760   1.787   5.476 -0.2006  4.2388 -2.5481
21577SOL    HW265310   0.789   1.745   5.333  1.4216 -1.2237 -0.8420
21578SOL     OW65311   4.230   9.191   7.046 -0.6421 -0.6132  0.0338
21578SOL    HW165312   4.312   9.222   7.085 -1.1963  2.6041 -1.0531
21578SOL    HW265313   4.163   9.214   7.111 -0.9706 -0.6214 -0.2981
21579SOL     OW65314   6.639   4.258   2.503 -0.2530 -0.5682 -0.2957
21579SOL    HW165315   6.591   4.340   2.518  0.1757 -0.2172 -0.7804
21579SOL    HW265316   6.586   4.211   2.438  0.3941  0.1411 -1.3775
21580SOL     OW65317   5.988   0.471   6.325 -0.4736 -0.0939  0.6489
21580SOL    HW165318   5.945   0.524   6.392  1.1898  1.0000  0.9235
21580SOL    HW265319   6.038   0.406   6.375 -1.1952 -0.8969  0.3578
21581SOL     OW65320   3.630   6.594   5.694 -0.2964 -0.6180 -0.2051
21581SOL    HW165321   3.587   6.536   5.757 -0.8627 -0.1881 -0.1862
21581SOL    HW265322   3.564   6.661   5.674  0.1226 -0.3509 -0.7200
21582SOL     OW65323   2.045   4.230   1.232 -0.1017 -0.2032 -0.1123
21582SOL    HW165324   2.039   4.295   1.162 -1.5753 -0.9922 -0.7544
21582SOL    HW265325   2.072   4.150   1.188  2.2035  0.0312  0.7508
21583SOL     OW65326   2.429   3.020   8.042 -0.6060  0.2140 -0.2322
21583SOL    HW165327   2.397   3.095   8.092 -2.2604  0.5222 -1.6581
21583SOL    HW265328   2.435   3.052   7.952  1.3683 -0.6027 -0.4352
21584SOL     OW65329   6.640   2.542   8.242 -0.4843 -0.0460  0.4026
21584SOL    HW165330   6.717   2.569   8.292 -0.3869  0.9188 -0.2510
21584SOL    HW265331   6.567   2.555   8.302 -0.1095 -1.5722  1.2549
21585SOL     OW65332   4.047   5.800   8.026 -0.2443 -0.6505  0.1059
21585SOL    HW165333   3.964   5.837   8.053 -0.2759  0.2947 -1.2038
21585SOL    HW265334   4.098   5.794   8.107 -0.9759  0.3336  0.6604
21586SOL     OW65335   8.762   9.218   7.369 -0.4365  0.3030 -0.1022
21586SOL    HW165336   8.742   9.308   7.343 -0.2693  0.9648  1.8230
21586SOL    HW265337   8.853   9.221   7.397 -0.3675 -0.5174 -0.2259
21587SOL     OW65338   9.952   5.085   1.809 -0.2349  0.2412 -0.0329
21587SOL    HW165339   9.965   4.990   1.810 -1.2192  0.0443 -1.6580
21587SOL    HW265340   9.922   5.106   1.897  0.1028 -0.9423  0.3839
21588SOL     OW65341   8.490   7.210   1.923 -0.4308  0.0611 -0.0870
21588SOL    HW165342   8.400   7.195   1.894 -0.5935 -1.9759  1.2586
21588SOL    HW265343   8.543   7.203   1.844 -1.4892  2.2465 -1.0586
21589SOL     OW65344   0.177   1.972   0.825  0.0451 -0.0917  0.1720
21589SOL    HW165345   0.123   2.044   0.794 -1.0410 -0.0388  1.9979
21589SOL    HW265346   0.119   1.922   0.882  1.8582 -0.0724  2.1827
21590SOL     OW65347   3.242   9.280   9.011 -0.4592  0.1806  0.4511
21590SOL    HW165348   3.258   9.202   9.063 -0.8976 -1.2570 -1.4764
21590SOL    HW265349   3.151   9.304   9.031 -0.7509 -0.5887  0.0916
21591SOL     OW65350   7.257   5.214   6.626  0.3823  0.2088 -0.1323
21591SOL    HW165351   7.173   5.176   6.602  0.4806  0.9742 -1.8111
21591SOL    HW265352   7.262   5.295   6.576  2.2763 -0.0036 -0.3744
21592SOL     OW65353   9.690   6.151   6.087  0.7533 -0.4844 -0.2900
21592SOL    HW165354   9.605   6.112   6.105 -0.7914  2.4342 -0.6106
21592SOL    HW265355   9.734   6.152   6.172 -0.5691  0.1398  0.4288
21593SOL     OW65356   5.640   0.834   0.907  0.0131  0.1320  0.0240
21593SOL    HW165357   5.645   0.891   0.984  0.1515  0.0104  0.1025
21593SOL    HW265358   5.657   0.893   0.833  0.7827  0.0760  0.1482
21594SOL     OW65359   9.377   7.493   0.864 -0.0541  0.4035 -0.2425
21594SOL    HW165360   9.388   7.399   0.849 -0.4113  0.0622  1.4863
21594SOL    HW265361   9.457   7.519   0.909  0.4306  1.1429 -1.4690
21595SOL     OW65362   3.377   1.124   5.322  0.6094  0.7942  0.1128
21595SOL    HW165363   3.334   1.177   5.255 -0.8684  0.0376  0.4119
21595SOL    HW265364   3.461   1.167   5.337  1.6133  0.2752 -3.1650
21596SOL     OW65365   3.963   5.986   0.338  0.1666  0.6983 -0.0755
21596SOL    HW165366   4.024   5.926   0.381 -1.2123 -0.3122  0.5704
21596SOL    HW265367   4.018   6.056   0.304  1.5355  0.5241  1.6298
21597SOL     OW65368   1.341   1.619   0.511 -0.4173  0.4236 -0.2789
21597SOL    HW165369   1.430   1.648   0.532 -0.1113  0.7762 -1.9113
21597SOL    HW265370   1.305   1.587   0.594  1.5014 -0.4529  0.2521
21598SOL     OW65371   2.053   0.428   5.518 -0.0868 -0.4551  0.2047
21598SOL    HW165372   1.971   0.469   5.546 -1.3600 -2.3217 -0.5922
21598SOL    HW265373   2.106   0.500   5.485 -1.2812  0.8392  1.0028
21599SOL     OW65374   7.897   4.981   4.804  0.0073 -0.4309  0.5108
21599SOL    HW165375   7.980   5.015   4.770  0.5203 -0.2196  1.8943
21599SOL    HW265376   7.868   5.047   4.867 -0.8330 -0.8668  0.6027
21600SOL     OW65377   9.841   0.562   4.183 -0.3701  0.3249  0.3321
21600SOL    HW165378   9.936   0.563   4.197 -0.5963  0.6819  2.1593
21600SOL    HW265379   9.807   0.516   4.260 -1.6092 -1.1019 -0.9963
21601SOL     OW65380   0.351   1.878   6.418 -0.3949  0.1219  0.3095
21601SOL    HW165381   0.353   1.824   6.497  2.3232  0.5780  0.6601
21601SOL    HW265382   0.323   1.965   6.449  1.8836  0.6441  1.1212
21602SOL     OW65383   1.660   9.516   6.488  0.4663 -0.1625  0.2495
21602SOL    HW165384   1.706   9.544   6.567  2.0901  0.4062 -0.8444
21602SOL    HW265385   1.568   9.508   6.515  0.3176  3.4211  1.3922
21603SOL     OW65386   4.344   1.564   7.266 -0.2025 -0.3308  0.2022
21603SOL    HW165387   4.271   1.519   7.222 -1.0165 -1.1206  2.2227
21603SOL    HW265388   4.306   1.646   7.297  0.3945  0.2795 -0.6552
21604SOL     OW65389   0.876   4.434   1.022  0.6271 -0.1433  0.2188
21604SOL    HW165390   0.846   4.379   0.949 -1.1163  1.3981 -0.3228
21604SOL    HW265391   0.952   4.389   1.057  0.7358 -1.6109 -1.7439
21605SOL     OW65392   1.881   4.025   8.434 -0.4825  0.7936 -0.1440
21605SOL    HW165393   1.823   4.076   8.377 -0.4892 -1.0636 -1.9203
21605SOL    HW265394   1.828   4.004   8.511 -1.2710  1.3878 -0.5100
21606SOL     OW65395   9.301   2.678   5.836  0.0882 -0.9716 -0.1708
21606SOL    HW165396   9.240   2.707   5.768 -1.1110 -0.7377  0.9674
21606SOL    HW265397   9.366   2.748   5.842  0.1987 -0.9896 -1.0567
21607SOL     OW65398   0.571   8.310   2.587 -1.0296 -0.5895  0.4464
21607SOL    HW165399   0.616   8.374   2.531 -1.2802  0.1271  1.0497
21607SOL    HW265400   0.550   8.238   2.528 -2.1545  0.5589 -0.6158
21608SOL     OW65401   5.899   4.249   2.780  0.6746 -0.7024  0.7106
21608SOL    HW165402   5.877   4.222   2.869  0.3911 -0.7014  0.6419
21608SOL    HW265403   5.980   4.201   2.760  2.2017  1.2041  1.8851
21609SOL     OW65404   0.068   2.587   2.145  0.8408 -0.1528  0.0784
21609SOL    HW165405   0.062   2.607   2.239 -0.2193  0.6720 -0.1591
21609SOL    HW265406   0.162   2.578   2.129  1.0493 -0.0282  1.1673
21610SOL     OW65407   4.514   4.502   9.065  0.4010  0.2840 -0.3395
21610SOL    HW165408   4.542   4.589   9.039 -0.4141  0.5867 -0.2252
21610SOL    HW265409   4.537   4.496   9.158 -0.1956  0.6460 -0.1682
21611SOL     OW65410   5.201   1.964   2.551  0.4983  0.7678  0.1272
21611SOL    HW165411   5.166   2.039   2.504 -1.6144  1.2254  2.2668
21611SOL    HW265412   5.289   1.952   2.514 -0.2390  2.3226 -2.4083
21612SOL     OW65413   5.424   3.133   5.169  0.4576  0.4466  0.2586
21612SOL    HW165414   5.452   3.219   5.137  1.4603 -0.6224 -2.0112
21612SOL    HW265415   5.505   3.083   5.177 -0.2549 -0.9150 -0.5739
21613SOL     OW65416   7.992   2.040   3.291 -0.0176  0.1403 -0.2024
21613SOL    HW165417   7.899   2.040   3.314 -0.3203  2.1069 -1.2273
21613SOL    HW265418   8.030   2.107   3.347  1.1039 -1.5323  1.1460
21614SOL     OW65419   3.534   7.932   1.173 -0.1344 -0.4996  0.1959
21614SOL    HW165420   3.578   7.992   1.232  1.8434 -0.6521 -1.0268
21614SOL    HW265421   3.548   7.970   1.086 -0.3283 -1.8339 -0.4384
21615SOL     OW65422   4.866   4.930   7.423  0.0640 -0.3109  0.2252
21615SOL    HW165423   4.836   4.994   7.486 -2.2695 -0.7130 -0.3722
21615SOL    HW265424   4.959   4.918   7.442 -0.0818  1.1898  2.1007
21616SOL     OW65425   3.045   3.333   0.566 -0.4699  0.5295  0.5392
21616SOL    HW165426   2.969   3.367   0.614 -0.2535 -0.5177  1.6704
21616SOL    HW265427   3.107   3.308   0.634 -0.3632 -1.5186 -0.2599
21617SOL     OW65428   3.878   2.210   2.454 -0.1630  0.0794 -0.6992
21617SOL    HW165429   3.797   2.187   2.498  0.3858  1.6622  1.3400
21617SOL    HW265430   3.861   2.197   2.361 -2.4380 -0.4503 -0.2487
21618SOL     OW65431   0.079   6.846   9.215  0.0205  0.1169  0.2968
21618SOL    HW165432   0.069   6.897   9.296 -0.4598 -2.8975  2.2764
21618SOL    HW265433   0.105   6.911   9.149  2.0356  2.4961  3.1656
21619SOL     OW65434   3.333   5.413   2.211  0.2845 -0.0008 -0.2453
21619SOL    HW165435   3.268   5.479   2.187  0.1779 -0.0307 -0.0364
21619SOL    HW265436   3.291   5.361   2.279  0.6338  0.1593  0.0964
21620SOL     OW65437   0.527   8.561   0.718  0.2781 -0.6898  0.5855
21620SOL    HW165438   0.444   8.609   0.711  1.1357  0.8995  0.7732
21620SOL    HW265439   0.566   8.594   0.799  1.9745  0.0704 -0.4859
21621SOL     OW65440   8.376   7.481   0.935 -0.4112  0.1913  0.1469
21621SOL    HW165441   8.349   7.419   1.003 -1.1828  0.5266  0.1563
21621SOL    HW265442   8.437   7.539   0.980 -0.3789 -0.0117  0.3731
21622SOL     OW65443   3.521   5.863   3.290  0.3457  0.5687 -0.2404
21622SOL    HW165444   3.472   5.822   3.362  1.5668  2.2132  1.6329
21622SOL    HW265445   3.613   5.851   3.314  0.7813  1.4181 -1.3969
21623SOL     OW65446   1.803   2.761   0.639  0.2117 -0.2655  0.8440
21623SOL    HW165447   1.776   2.699   0.571  0.5178  0.4912  0.0068
21623SOL    HW265448   1.723   2.781   0.687  0.2115 -1.7553  1.5323
21624SOL     OW65449   0.573   9.685   5.791 -0.7635  0.0794  0.0617
21624SOL    HW165450   0.499   9.739   5.762 -1.1605 -0.7299 -0.4848
21624SOL    HW265451   0.590   9.627   5.717 -1.9437 -2.1939  1.4622
21625SOL     OW65452   0.204   9.834   6.404  0.0266  0.5545 -0.0490
21625SOL    HW165453   0.140   9.773   6.440  1.8236 -1.0193  0.6730
21625SOL    HW265454   0.226   9.891   6.478  1.3296 -0.6042  0.5115
21626SOL     OW65455   3.132   6.118   6.286  0.1010 -0.2458  0.3553
21626SOL    HW165456   3.153   6.209   6.307  2.3496 -0.0744 -2.0219
21626SOL    HW265457   3.169   6.068   6.358 -1.4175  0.6743  1.8412
21627SOL     OW65458   5.281   9.357   9.956 -0.0676  0.1196 -0.5033
21627SOL    HW165459   5.205   9.340   9.901  0.4953 -1.2185 -0.9049
21627SOL    HW265460   5.273   9.293  10.027  0.4284  0.2885 -0.2940
21628SOL     OW65461   8.799   2.164   1.075 -0.6645  0.3488  0.3202
21628SOL    HW165462   8.761   2.077   1.066  2.5684 -1.4261  1.8468
21628SOL    HW265463   8.785   2.206   0.990 -0.7100 -2.3803 -1.1219
21629SOL     OW65464   5.348   2.229   9.430  0.6399  0.4397 -0.1763
21629SOL    HW165465   5.292   2.293   9.474  0.4361 -0.5113  1.0051
21629SOL    HW265466   5.310   2.220   9.343 -2.4756 -1.7328  1.2283
21630SOL     OW65467   8.070   6.745   1.868  0.3748 -0.3491 -0.1994
21630SOL    HW165468   8.109   6.735   1.955  1.8553 -0.4728 -0.8314
21630SOL    HW265469   8.030   6.832   1.869  0.5710 -0.2624  0.5378
21631SOL     OW65470   0.988   3.997   2.869 -0.2539 -0.2259 -0.1544
21631SOL    HW165471   1.062   3.939   2.886  2.5393  2.8536 -0.8481
21631SOL    HW265472   0.992   4.016   2.776 -0.7879  1.3809  0.1081
21632SOL     OW65473   6.484   5.646   4.356 -0.7177 -0.5501  0.7326
21632SOL    HW165474   6.537   5.625   4.433  1.4887 -0.7698 -0.7403
21632SOL    HW265475   6.431   5.721   4.383  0.1723 -0.4718  2.3825
21633SOL     OW65476   3.718   0.488   8.034 -0.4216 -0.3338 -0.2581
21633SOL    HW165477   3.790   0.454   7.982  1.0547  1.8581  0.2353
21633SOL    HW265478   3.754   0.564   8.080 -3.3574  1.7266 -1.0400
21634SOL     OW65479   2.240   6.691   7.895 -0.8129  0.1058 -0.3240
21634SOL    HW165480   2.229   6.602   7.861 -0.5840  0.7329 -2.1600
21634SOL    HW265481   2.309   6.729   7.840  0.9161  0.6389  2.0603
21635SOL     OW65482   4.495   2.025   6.503 -0.4034  0.3937  0.0468
21635SOL    HW165483   4.528   2.026   6.593  0.0569 -0.6426 -0.1001
21635SOL    HW265484   4.417   2.081   6.505 -0.0456  0.8703  0.9493
21636SOL     OW65485   8.598   0.813   5.663 -0.1035 -0.0175  0.5084
21636SOL    HW165486   8.548   0.893   5.648  0.2156  0.0300 -0.3909
21636SOL    HW265487   8.678   0.825   5.612 -0.6800 -1.4875 -0.8418
21637SOL     OW65488   3.525   2.663   2.077  0.6384  0.3877 -0.2941
21637SOL    HW165489   3.545   2.736   2.135 -0.5076 -0.0468  0.6864
21637SOL    HW265490   3.472   2.702   2.007  0.3646  0.5692  0.0128
21638SOL     OW65491   3.111   9.583   9.264  0.1904  0.1347  0.4278
21638SOL    HW165492   3.091   9.576   9.358 -3.3240  1.2663 -0.0941
21638SOL    HW265493   3.089   9.498   9.228  0.0056  0.1811  0.4276
21639SOL     OW65494   1.233   0.160   6.864 -0.2113 -0.0494 -0.0355
21639SOL    HW165495   1.187   0.222   6.921 -0.8336 -0.8357  0.3328
21639SOL    HW265496   1.178   0.082   6.863 -0.0565 -0.1728 -1.4777
21640SOL     OW65497   6.014   8.881   1.834  0.6760 -0.1716 -0.2462
21640SOL    HW165498   6.105   8.903   1.812  0.6329 -0.1941 -0.4504
21640SOL    HW265499   6.005   8.905   1.927  0.4520  1.2636 -0.6192
21641SOL     OW65500   1.024   4.325   3.578  0.1946 -0.2601 -0.6377
21641SOL    HW165501   1.013   4.411   3.620 -0.7701 -0.1390 -1.1083
21641SOL    HW265502   0.956   4.322   3.512 -0.3868 -1.7869 -0.0086
21642SOL     OW65503   5.807   9.298   1.869 -0.2916  0.5341 -0.2160
21642SOL    HW165504   5.825   9.367   1.933 -0.5260 -0.2989  0.7695
21642SOL    HW265505   5.841   9.333   1.787 -0.5318  1.8802  0.2281
21643SOL     OW65506   3.139   2.071   5.867  0.2227  0.5324 -0.0099
21643SOL    HW165507   3.095   2.156   5.870  1.3972  1.4163 -3.3829
21643SOL    HW265508   3.221   2.089   5.822  0.0997 -2.5246 -1.6773
21644SOL     OW65509   3.319   1.223   0.423 -0.0794 -0.6188  0.2243
21644SOL    HW165510   3.273   1.303   0.447 -1.0044 -0.6523 -1.2894
21644SOL    HW265511   3.388   1.214   0.489 -0.4297  1.0082  0.8586
21645SOL     OW65512   3.977   5.551   8.280 -0.5965 -0.1275 -0.0977
21645SOL    HW165513   4.049   5.614   8.287 -0.8122  0.1933 -0.7045
21645SOL    HW265514   3.928   5.562   8.362  0.1918 -0.5386  0.4374
21646SOL     OW65515   1.152   0.602   6.229  1.0048  0.9310  0.6836
21646SOL    HW165516   1.093   0.652   6.174  0.9540 -0.8562 -1.0168
21646SOL    HW265517   1.097   0.569   6.300  0.0631 -0.1476 -0.5029
21647SOL     OW65518   9.541   3.847   0.816  0.7069 -0.1968 -0.5975
21647SOL    HW165519   9.629   3.860   0.852  1.2189 -1.5066 -1.3057
21647SOL    HW265520   9.540   3.898   0.736  0.7161  0.0787 -0.4210
21648SOL     OW65521   0.415   3.440   0.729  0.1833  0.3916  0.8126
21648SOL    HW165522   0.354   3.384   0.680 -0.0420  0.1401  1.3759
21648SOL    HW265523   0.500   3.399   0.717  0.5893  1.6770 -1.4288
21649SOL     OW65524   6.121   0.364   3.073 -0.0915 -0.0424  1.4065
21649SOL    HW165525   6.031   0.396   3.065  0.7716  2.0441 -2.6029
21649SOL    HW265526   6.165   0.398   2.995  3.6501 -2.8592  2.0419
21650SOL     OW65527   3.938   6.900   1.645 -0.0229  0.2186  0.1605
21650SOL    HW165528   3.999   6.850   1.591 -0.5470 -1.8552  1.3705
21650SOL    HW265529   3.882   6.946   1.582  0.8494 -0.2527 -1.0045
21651SOL     OW65530   5.778   8.761   3.152 -0.2460  0.2203 -0.2764
21651SOL    HW165531   5.835   8.798   3.085  1.3365 -1.0412  0.3101
21651SOL    HW265532   5.822   8.779   3.234 -2.1447  1.7170  0.4969
21652SOL     OW65533   2.817   6.037   4.401  0.2073 -0.0642 -0.4491
21652SOL    HW165534   2.871   6.095   4.349  2.1979 -0.9207  0.5501
21652SOL    HW265535   2.836   5.949   4.367  0.3951 -0.4907  0.6971
21653SOL     OW65536   8.750   5.698   4.345 -0.2120  0.7153  0.0413
21653SOL    HW165537   8.768   5.692   4.439 -0.0957 -0.3866 -0.0422
21653SOL    HW265538   8.824   5.655   4.303 -1.5807 -1.3591 -0.4159
21654SOL     OW65539   2.239   4.284   5.892 -0.0687 -0.5762  0.2915
21654SOL    HW165540   2.270   4.331   5.815 -0.8783 -1.8598 -0.8490
21654SOL    HW265541   2.319   4.252   5.935  0.3234 -2.3533 -1.6406
21655SOL     OW65542   2.729   0.461   3.652 -0.2879 -0.3112  0.0099
21655SOL    HW165543   2.692   0.543   3.683 -1.2018 -0.8299  0.3108
21655SOL    HW265544   2.708   0.397   3.720 -0.3223 -0.9725 -0.6073
21656SOL     OW65545   8.046   3.658   5.172  0.1303 -0.3812 -0.3768
21656SOL    HW165546   8.021   3.700   5.255 -0.2653 -0.2844 -0.5425
21656SOL    HW265547   8.013   3.717   5.105 -0.2364 -0.8393 -0.6092
21657SOL     OW65548   9.314   6.176   0.340 -0.0227 -0.4418 -0.2402
21657SOL    HW165549   9.347   6.153   0.427  3.3873  1.1268 -0.9770
21657SOL    HW265550   9.360   6.119   0.280 -1.3206 -0.5593 -1.1770
21658SOL     OW65551   6.019   3.077   6.256  0.3090 -0.1067 -0.3957
21658SOL    HW165552   6.074   3.014   6.302  1.1128  0.1785 -0.9566
21658SOL    HW265553   5.950   3.099   6.319 -0.6149 -2.3196 -0.5452
21659SOL     OW65554   4.547   0.829   7.202 -0.1521  0.3226  0.8328
21659SOL    HW165555   4.623   0.886   7.189  1.1734 -1.6246 -0.4854
21659SOL    HW265556   4.583   0.741   7.208 -2.3685 -0.9420 -1.9705
21660SOL     OW65557   3.567   5.838   7.880  0.3956  1.3127 -0.2478
21660SOL    HW165558   3.549   5.866   7.790  1.1385 -0.0203 -0.8491
21660SOL    HW265559   3.506   5.766   7.895  1.3896  0.4378 -0.2978
21661SOL     OW65560   8.915   2.760   3.395 -0.4660 -0.1739 -0.4057
21661SOL    HW165561   8.852   2.786   3.462 -1.8870  0.9737 -2.1051
21661SOL    HW265562   8.978   2.832   3.391 -1.1128  0.3599 -1.1595
21662SOL     OW65563   5.295   9.609   2.524  0.2445 -0.6335  0.2808
21662SOL    HW165564   5.249   9.688   2.555  0.2746 -1.0618  1.4810
21662SOL    HW265565   5.338   9.575   2.602  1.3423 -1.1026 -0.5088
21663SOL     OW65566   9.019   0.273   4.101 -0.8854  0.5918 -0.2150
21663SOL    HW165567   9.052   0.358   4.070  2.2339  0.1431  1.4032
21663SOL    HW265568   8.931   0.291   4.133 -0.0618  3.4223  0.7459
21664SOL     OW65569   5.197   2.233   6.406 -0.1742 -0.1339  0.2999
21664SOL    HW165570   5.172   2.142   6.389 -1.6890  0.3983 -0.5626
21664SOL    HW265571   5.143   2.284   6.345  1.5497  1.2814 -0.1406
21665SOL     OW65572   2.465   3.789   2.396 -0.0543 -0.2668  0.0266
21665SOL    HW165573   2.455   3.817   2.487 -2.2786 -0.2058 -0.1849
21665SOL    HW265574   2.419   3.705   2.392 -1.0469  0.3184 -1.3086
21666SOL     OW65575   3.470   3.843   1.170  0.0688  0.0952 -0.1214
21666SOL    HW165576   3.439   3.934   1.163  0.2081  0.1064 -0.6133
21666SOL    HW265577   3.506   3.823   1.084  0.2810 -0.3423  0.0643
21667SOL     OW65578   4.318   2.873   0.821  0.4121  0.2053 -0.1870
21667SOL    HW165579   4.299   2.947   0.880  0.8665  0.3848 -0.2579
21667SOL    HW265580   4.380   2.819   0.871  0.9072  0.4310 -0.5468
21668SOL     OW65581   6.262   0.968   4.742 -0.6224  0.5114  0.4701
21668SOL    HW165582   6.202   1.025   4.694 -1.0382 -1.0748 -1.0035
21668SOL    HW265583   6.220   0.882   4.740  0.3552 -0.0402  1.9373
21669SOL     OW65584   1.646   7.044   9.284 -0.3151 -0.1919 -0.0446
21669SOL    HW165585   1.707   6.972   9.269  0.6140  0.9018 -1.8260
21669SOL    HW265586   1.564   7.001   9.310  0.2730 -1.8687 -0.8396
21670SOL     OW65587   1.849   5.877   6.909  0.0147  0.1967  0.1510
21670SOL    HW165588   1.812   5.790   6.915  2.1044 -0.7508  0.1262
21670SOL    HW265589   1.840   5.901   6.817  1.5673 -1.0567 -0.3804
21671SOL     OW65590   7.277   6.361   0.756  0.2307 -0.2823  0.0907
21671SOL    HW165591   7.241   6.363   0.667  0.5606 -0.4027 -0.0464
21671SOL    HW265592   7.334   6.437   0.760  1.3522 -1.0881 -0.2855
21672SOL     OW65593   4.882   8.671   3.290  0.0746  0.5654 -0.3771
21672SOL    HW165594   4.956   8.694   3.234 -1.0585  1.4491 -1.5807
21672SOL    HW265595   4.841   8.596   3.247 -0.0969  0.4838 -0.0756
21673SOL     OW65596   2.716   5.189   6.267 -0.2194  0.1788  0.0060
21673SOL    HW165597   2.626   5.172   6.241  0.0016  1.2311 -1.5528
21673SOL    HW265598   2.765   5.191   6.185  1.2715 -0.5490  0.8432
21674SOL     OW65599   8.174   8.292   8.411  0.5984 -0.3207 -0.0343
21674SOL    HW165600   8.259   8.278   8.370  1.5259  2.0936  0.8887
21674SOL    HW265601   8.184   8.261   8.501  0.3539 -0.4396 -0.0454
21675SOL     OW65602   3.717   9.958   9.075 -0.5225 -0.0934  0.5510
21675SOL    HW165603   3.653  10.027   9.061 -0.6668 -0.4891 -0.9226
21675SOL    HW265604   3.689   9.887   9.017  0.7019 -0.6453  0.5956
21676SOL     OW65605   4.712   8.850   2.710  0.3604 -0.2935  0.2731
21676SOL    HW165606   4.765   8.928   2.723  0.6713 -0.6401  1.1162
21676SOL    HW265607   4.623   8.878   2.732  0.5585 -0.3235  1.1218
21677SOL     OW65608   5.621   3.579   6.090 -0.3836  1.0777 -0.5818
21677SOL    HW165609   5.677   3.579   6.013 -0.3019  2.0270 -0.5299
21677SOL    HW265610   5.575   3.495   6.086  0.2568  0.7478 -1.1908
21678SOL     OW65611   2.031   4.289   4.379  0.4162 -0.3932 -0.0564
21678SOL    HW165612   2.008   4.356   4.443  0.9896  0.0573 -0.3143
21678SOL    HW265613   1.950   4.273   4.331  0.2297 -0.0211  0.1303
21679SOL     OW65614   6.104   3.847   5.984 -0.2124  0.0317  0.4291
21679SOL    HW165615   6.018   3.811   6.003 -0.2752 -0.3438 -0.4859
21679SOL    HW265616   6.098   3.877   5.893  0.2790  1.0456  0.7111
21680SOL     OW65617   3.585   5.523   5.749 -0.0377  0.4575  0.4677
21680SOL    HW165618   3.501   5.500   5.787 -0.9555  1.4958 -0.8513
21680SOL    HW265619   3.617   5.441   5.711  0.2444 -0.2617  2.1763
21681SOL     OW65620   5.946   1.411   2.066  0.1922 -0.0684 -0.1574
21681SOL    HW165621   6.005   1.427   1.992  0.5016  0.2956  0.1623
21681SOL    HW265622   5.923   1.499   2.098 -0.3954 -0.2116 -0.1777
21682SOL     OW65623   7.005   7.819   4.597  0.4679  0.3493 -0.4949
21682SOL    HW165624   6.927   7.808   4.542  0.1447  2.4984 -0.5673
21682SOL    HW265625   7.074   7.847   4.537  1.0391 -0.5509 -0.2793
21683SOL     OW65626   2.088   1.218   3.853  0.3937  0.5277 -0.2232
21683SOL    HW165627   2.167   1.183   3.893  1.1739  1.8400 -0.5325
21683SOL    HW265628   2.068   1.297   3.903  0.3624  1.2178 -1.2734
21684SOL     OW65629   3.669   8.040   2.436  0.0536  0.4356  0.5619
21684SOL    HW165630   3.749   8.041   2.489 -0.9551  0.5230  2.1660
21684SOL    HW265631   3.699   8.022   2.347  1.8449  0.4487  1.1218
21685SOL     OW65632   9.807   0.033   9.478 -0.9534  0.3586 -0.2459
21685SOL    HW165633   9.759   0.077   9.409 -1.6013 -0.7690 -0.5378
21685SOL    HW265634   9.898   0.031   9.448 -0.9522  1.3010 -0.3106
21686SOL     OW65635   1.137   1.125   4.928 -0.0264  0.3628  0.1823
21686SOL    HW165636   1.228   1.116   4.957 -0.0716  2.9484  1.4197
21686SOL    HW265637   1.119   1.043   4.880  3.0179 -0.1046 -0.4081
21687SOL     OW65638   6.562   5.631   0.245 -0.6877  0.0598  0.4486
21687SOL    HW165639   6.633   5.584   0.201 -0.8350 -0.6770  0.9780
21687SOL    HW265640   6.529   5.569   0.310 -2.2095  0.1732 -0.1725
21688SOL     OW65641   3.714   6.631   6.803 -0.3146 -0.0447 -0.2963
21688SOL    HW165642   3.790   6.689   6.809 -0.2130 -0.3434  3.0806
21688SOL    HW265643   3.750   6.543   6.808 -0.7168 -0.3568 -2.0810
21689SOL     OW65644   4.057   7.445   4.057 -0.0577  0.6397 -0.5481
21689SOL    HW165645   3.962   7.435   4.049  0.2802 -3.2904 -2.1508
21689SOL    HW265646   4.068   7.517   4.118 -4.0262  1.7346 -0.7866
21690SOL     OW65647   9.896   6.615   8.094 -0.7630  0.7874  0.0838
21690SOL    HW165648   9.864   6.532   8.059 -0.2512 -0.0284  1.4744
21690SOL    HW265649   9.846   6.628   8.175 -0.0941  1.3027  0.4261
21691SOL     OW65650   5.284   5.345   5.982 -0.0105  0.6654 -0.2700
21691SOL    HW165651   5.232   5.383   6.052  1.2633 -0.5214  1.4091
21691SOL    HW265652   5.309   5.259   6.015 -0.4449 -0.4944 -2.7590
21692SOL     OW65653   0.134   8.406   1.800 -0.0561 -0.0709 -0.2825
21692SOL    HW165654   0.114   8.315   1.782  0.7308 -0.0567 -1.3225
21692SOL    HW265655   0.195   8.404   1.874 -0.3696 -0.3571 -0.0321
21693SOL     OW65656   4.960   4.961   3.449  0.0904  0.5747  0.4545
21693SOL    HW165657   4.979   5.054   3.463  0.3945  0.3672  1.4618
21693SOL    HW265658   4.866   4.954   3.465  0.2184  0.5626  1.2643
21694SOL     OW65659   3.828   3.212   8.440 -0.2204 -0.1282 -0.3552
21694SOL    HW165660   3.801   3.300   8.412 -1.4853 -0.7499 -1.1928
21694SOL    HW265661   3.778   3.153   8.383  0.6504 -1.3895  0.1609
21695SOL     OW65662   8.071   5.763   1.403 -0.6297 -0.0133  0.8232
21695SOL    HW165663   8.088   5.807   1.319 -0.8449 -0.1937  0.6846
21695SOL    HW265664   8.145   5.788   1.458  0.3928 -1.1972  0.0600
21696SOL     OW65665   0.283   5.906   1.076 -0.0018  0.6201  0.0200
21696SOL    HW165666   0.323   5.856   1.148  0.4173  0.2677 -0.4551
21696SOL    HW265667   0.229   5.841   1.030 -0.6174  0.9454  0.2694
21697SOL     OW65668   2.333   1.008   6.168 -0.2944  0.0119  0.6277
21697SOL    HW165669   2.422   0.987   6.141  0.1263  1.8338  0.4555
21697SOL    HW265670   2.339   1.097   6.204 -2.0519  0.2395  0.4555
21698SOL     OW65671   5.002   8.994   1.180 -0.3166  0.3077 -0.6404
21698SOL    HW165672   5.025   9.081   1.148 -2.4792  1.4870  0.7495
21698SOL    HW265673   4.944   8.958   1.114 -1.3968  0.9898 -0.0940
21699SOL     OW65674   8.111   2.823   9.644 -0.4003  0.2230  0.2466
21699SOL    HW165675   8.056   2.900   9.660 -1.5381 -0.5792  0.2705
21699SOL    HW265676   8.103   2.770   9.723  2.0582  1.0208  1.1245
21700SOL     OW65677   1.170   4.703   3.889 -0.4733  0.1919 -0.1148
21700SOL    HW165678   1.139   4.792   3.873 -0.2224  0.1651 -0.7879
21700SOL    HW265679   1.122   4.649   3.826  0.1532  0.0119 -0.4558
21701SOL     OW65680   0.234   0.161   1.770 -0.4129 -0.2032 -0.4640
21701SOL    HW165681   0.236   0.139   1.677  0.1812 -1.4840 -0.1677
21701SOL    HW265682   0.276   0.246   1.776 -1.4131  0.3919 -1.4810
21702SOL     OW65683   3.325   8.617   3.701 -0.4621  0.5104 -0.1939
21702SOL    HW165684   3.405   8.566   3.712 -0.1439  0.5080 -2.1012
21702SOL    HW265685   3.302   8.604   3.609 -1.3412  2.3961 -0.2794
21703SOL     OW65686   0.265   5.511   6.092 -0.6767  0.0171 -0.7095
21703SOL    HW165687   0.197   5.505   6.159  0.2468 -2.2649  0.1243
21703SOL    HW265688   0.242   5.443   6.029 -0.6548  1.0835 -1.9006
21704SOL     OW65689   0.048   4.055   4.084  0.3163  0.1616 -0.0526
21704SOL    HW165690  -0.036   4.018   4.057  0.5608 -0.9237  0.5785
21704SOL    HW265691   0.026   4.116   4.154 -0.1334  1.5636 -1.3699
21705SOL     OW65692   4.960   9.773   1.919  0.3146 -0.3814 -0.6598
21705SOL    HW165693   5.027   9.790   1.984 -0.0034 -0.4723 -0.3056
21705SOL    HW265694   4.883   9.746   1.969  0.9964 -3.6919 -1.2030
21706SOL     OW65695   9.015   3.225   7.785 -0.4839  0.0699  0.1429
21706SOL    HW165696   8.999   3.157   7.851 -0.2427 -1.2475 -1.0973
21706SOL    HW265697   9.110   3.220   7.769 -0.6794 -0.3177 -0.9907
21707SOL     OW65698   8.133   8.799   4.977  0.0653  0.2692 -0.0898
21707SOL    HW165699   8.092   8.821   4.893  2.1057  3.6502 -0.3826
21707SOL    HW265700   8.204   8.739   4.953 -0.7507 -0.6084 -0.3995
21708SOL     OW65701   7.268   2.818   5.189 -0.0580 -0.2229 -0.0379
21708SOL    HW165702   7.240   2.773   5.109  0.2787  1.1616 -0.9740
21708SOL    HW265703   7.313   2.896   5.157  1.0294 -0.1917  1.5034
21709SOL     OW65704   1.372   4.267   8.927 -0.1924  0.8707  0.1804
21709SOL    HW165705   1.364   4.313   9.011  1.2592  0.4354  0.5888
21709SOL    HW265706   1.362   4.174   8.950 -0.5854  0.8116 -0.2437
21710SOL     OW65707   9.441   8.004   4.168  0.0635 -0.1618 -0.1081
21710SOL    HW165708   9.421   7.974   4.256 -0.1116  1.8774  0.6030
21710SOL    HW265709   9.364   8.053   4.140  0.1023 -0.7896 -1.4302
21711SOL     OW65710   5.250   0.520   6.652  0.6001  0.0396  0.4566
21711SOL    HW165711   5.227   0.433   6.620 -0.5404  0.4723  0.0117
21711SOL    HW265712   5.257   0.574   6.573  1.4016  0.3353  0.7175
21712SOL     OW65713   2.386   9.838   6.097  0.1341  0.2897 -0.6135
21712SOL    HW165714   2.351   9.808   6.013 -0.8890  2.5458 -1.0788
21712SOL    HW265715   2.349   9.926   6.108  1.1709  0.5106  1.6594
21713SOL     OW65716   2.597   8.238   8.407  0.3662  0.0911 -0.1321
21713SOL    HW165717   2.691   8.224   8.393  0.2715 -0.2847 -0.3756
21713SOL    HW265718   2.566   8.157   8.446  0.2113  0.3513  0.2976
21714SOL     OW65719   2.963   0.042   3.696 -0.1911 -0.5434  0.1392
21714SOL    HW165720   2.941  -0.038   3.648 -1.2420 -0.4730  0.4805
21714SOL    HW265721   3.046   0.070   3.659  0.5174 -2.1352  0.4429
21715SOL     OW65722   2.391   9.934   6.418  0.2165  0.1835  0.2546
21715SOL    HW165723   2.355   9.982   6.344  0.1583 -0.1696  0.0516
21715SOL    HW265724   2.326   9.867   6.438  0.7051 -0.3884 -0.0411
21716SOL     OW65725   0.149   5.052   1.223 -0.1041  0.2648 -0.1528
21716SOL    HW165726   0.179   4.961   1.220  0.9670  0.6024 -0.3235
21716SOL    HW265727   0.119   5.065   1.313 -0.2874 -0.2634 -0.1386
21717SOL     OW65728   6.768   8.000   5.091  0.4076  0.1167 -0.2572
21717SOL    HW165729   6.757   8.092   5.116 -0.8247  0.1525 -0.8776
21717SOL    HW265730   6.840   8.001   5.028  0.9297  0.5423  0.3364
21718SOL     OW65731   5.035   4.539   1.628  0.0746  0.0112  0.5798
21718SOL    HW165732   5.045   4.613   1.568 -0.2092 -0.6006 -0.2396
21718SOL    HW265733   5.119   4.493   1.622  0.0554 -0.0362  0.6798
21719SOL     OW65734   6.317   5.695   5.310  0.7590 -0.0956 -0.1413
21719SOL    HW165735   6.260   5.767   5.336  0.7808 -0.2528  0.3583
21719SOL    HW265736   6.404   5.734   5.300  1.0903 -0.2960  1.5869
21720SOL     OW65737   7.044   0.820   1.705 -0.7724 -0.0583  0.2081
21720SOL    HW165738   7.058   0.742   1.651  0.0701  0.9684 -1.1113
21720SOL    HW265739   7.123   0.827   1.758 -0.7051  0.1006  0.0846
21721SOL     OW65740   5.980   7.632   1.382  0.0080 -0.1436 -0.5470
21721SOL    HW165741   5.992   7.720   1.418  0.0110 -0.6110  0.6424
21721SOL    HW265742   6.023   7.635   1.297  0.9374  0.7070 -0.0660
21722SOL     OW65743   6.626   6.650   0.332 -0.0283 -0.1631 -0.3330
21722SOL    HW165744   6.658   6.623   0.418 -0.3561  1.3678  0.3058
21722SOL    HW265745   6.560   6.584   0.308  0.7778 -1.1537  0.1158
21723SOL     OW65746   5.115   9.111   3.724 -0.3192  0.6735 -0.4159
21723SOL    HW165747   5.121   9.038   3.663 -1.8606  0.3222 -0.1860
21723SOL    HW265748   5.040   9.162   3.694 -0.3057  1.2203  0.4204
21724SOL     OW65749   3.536   7.738   5.582  0.1995  0.2792  0.1599
21724SOL    HW165750   3.520   7.718   5.674  0.3048  0.7754  0.2913
21724SOL    HW265751   3.499   7.826   5.569  1.0002  0.5992 -0.0325
21725SOL     OW65752   9.620   3.994   6.316  0.9575  0.4038  0.1831
21725SOL    HW165753   9.697   3.948   6.282  0.9721 -0.1086  0.8901
21725SOL    HW265754   9.653   4.047   6.388  0.5804 -0.1682  0.7874
21726SOL     OW65755   9.795   2.309   9.584  0.2249  0.2345  0.0305
21726SOL    HW165756   9.826   2.361   9.510 -0.6197 -0.3560 -0.7416
21726SOL    HW265757   9.707   2.281   9.560 -0.6771  1.2557  1.8732
21727SOL     OW65758   3.516   4.679   2.348 -0.1177  0.1578  0.4336
21727SOL    HW165759   3.521   4.756   2.292 -0.7316 -0.5574 -0.6294
21727SOL    HW265760   3.423   4.672   2.371  0.0655  0.2156  1.2425
21728SOL     OW65761   2.982   6.283   3.850  0.1324 -0.3198  0.0262
21728SOL    HW165762   2.927   6.208   3.872  1.7960 -1.3422  0.9876
21728SOL    HW265763   3.069   6.244   3.834  0.9067  1.3413  0.0293
21729SOL     OW65764   6.066   7.765   9.371 -0.6468  0.1539 -0.5870
21729SOL    HW165765   6.043   7.761   9.463 -0.0952  0.5512 -0.4315
21729SOL    HW265766   6.078   7.673   9.345  1.7505  0.1190  0.3927
21730SOL     OW65767   7.358   2.583   8.748  0.0165 -0.4807 -0.3056
21730SOL    HW165768   7.280   2.625   8.713 -0.3730 -1.1020 -0.2113
21730SOL    HW265769   7.368   2.503   8.695  0.3527 -0.6078 -0.0561
21731SOL     OW65770   9.833   9.060   4.310  0.0001  0.5789  0.5646
21731SOL    HW165771   9.753   9.026   4.270  0.6312 -0.9744  0.5652
21731SOL    HW265772   9.839   9.151   4.278  0.0771 -0.3265 -2.3256
21732SOL     OW65773   7.952   0.208   1.429  0.2178 -0.0151  0.5258
21732SOL    HW165774   8.014   0.209   1.357 -1.7196  0.5753 -1.2471
21732SOL    HW265775   7.978   0.282   1.485 -0.1999  1.6920 -1.4185
21733SOL     OW65776   2.412   2.244   4.421 -0.1852  0.4215  0.6619
21733SOL    HW165777   2.376   2.248   4.332  1.9835  1.2752 -0.2493
21733SOL    HW265778   2.425   2.336   4.446  0.2906  0.1658  1.3963
21734SOL     OW65779   6.970   7.323   6.735  0.2622  0.3677  0.3899
21734SOL    HW165780   6.959   7.228   6.726  1.1430 -0.0174  2.7261
21734SOL    HW265781   6.901   7.360   6.680 -1.1565 -1.6444  0.6926
21735SOL     OW65782   6.671   9.292   1.768  0.4418  0.2416 -0.4872
21735SOL    HW165783   6.587   9.296   1.723 -0.8540  0.5441  1.7836
21735SOL    HW265784   6.653   9.326   1.856  3.1324  1.0827 -0.1512
21736SOL     OW65785   8.018   0.185   4.207  0.0505 -0.3678 -0.1021
21736SOL    HW165786   7.943   0.153   4.156  0.1177 -2.0308  0.7913
21736SOL    HW265787   7.980   0.248   4.269 -0.3897 -0.2058 -0.5278
21737SOL     OW65788   4.868   6.134   9.825 -0.3481 -0.4396 -0.0443
21737SOL    HW165789   4.895   6.205   9.883  2.8367  0.0297 -1.8818
21737SOL    HW265790   4.930   6.063   9.843 -1.8053 -1.7970 -0.1271
21738SOL     OW65791   2.334   2.830   1.795 -0.5402 -0.3193 -0.1186
21738SOL    HW165792   2.405   2.856   1.736  0.4004  0.0561  1.1464
21738SOL    HW265793   2.376   2.817   1.879 -2.1925  1.2933  1.0345
21739SOL     OW65794   7.924   1.647   8.266 -0.5263  0.3027  0.7529
21739SOL    HW165795   7.912   1.740   8.288 -0.3920  0.5988 -0.3740
21739SOL    HW265796   7.963   1.609   8.344 -1.2639  1.0354  1.5112
21740SOL     OW65797   0.742   8.220   6.684 -0.2732 -0.1140 -0.0546
21740SOL    HW165798   0.822   8.188   6.645 -0.5918 -0.0188 -0.8086
21740SOL    HW265799   0.755   8.210   6.778  0.8473  0.4374 -0.1367
21741SOL     OW65800   7.695   3.351   8.233 -0.1152  0.1037  0.6970
21741SOL    HW165801   7.728   3.427   8.184 -0.9441 -0.7427 -1.2447
21741SOL    HW265802   7.716   3.372   8.324  4.1815  0.4463 -0.1564
21742SOL     OW65803   7.025   4.436   3.083  0.1540 -0.2932 -0.2266
21742SOL    HW165804   7.002   4.425   3.176 -0.3585  2.7437  0.1106
21742SOL    HW265805   7.080   4.515   3.081 -2.0259  1.3292 -2.7087
21743SOL     OW65806   2.416   5.578   2.719 -0.3513 -0.7155 -0.3582
21743SOL    HW165807   2.406   5.515   2.790 -0.7695 -0.9794 -0.6516
21743SOL    HW265808   2.509   5.572   2.695 -0.3892 -1.2138 -0.3839
21744SOL     OW65809   3.268   8.966   8.963 -0.3002 -0.1243 -1.0153
21744SOL    HW165810   3.289   8.912   9.039 -0.7607 -0.0234 -0.8140
21744SOL    HW265811   3.175   8.986   8.972  0.3768  2.9186  0.3129
21745SOL     OW65812   9.142   0.416   3.532 -0.9422 -0.4525  0.0670
21745SOL    HW165813   9.118   0.379   3.447 -0.7654 -1.2915  0.3696
21745SOL    HW265814   9.215   0.475   3.513  0.2138 -1.9062 -0.1539
21746SOL     OW65815   0.740   1.739   4.274 -0.3110 -0.3683 -0.1319
21746SOL    HW165816   0.824   1.701   4.300  0.1380  1.5527  1.5558
21746SOL    HW265817   0.762   1.827   4.243 -1.6165 -0.1907 -0.6261
21747SOL     OW65818   9.501   9.258   9.925  0.2296  0.3699  0.2611
21747SOL    HW165819   9.535   9.179   9.884 -0.9932  0.1274 -0.3187
21747SOL    HW265820   9.438   9.227   9.989 -0.9561  0.8888 -0.6234
21748SOL     OW65821   2.470   2.419   2.997 -0.5188 -0.2680  0.0057
21748SOL    HW165822   2.558   2.440   3.029 -0.0791 -1.4348 -0.3718
21748SOL    HW265823   2.479   2.422   2.902 -1.0150  0.0793 -0.0303
21749SOL     OW65824   0.379   8.410   0.214 -0.6062 -0.5565 -0.1500
21749SOL    HW165825   0.399   8.317   0.227 -0.0446 -0.3072  0.8468
21749SOL    HW265826   0.438   8.437   0.144 -1.5646 -1.2035 -1.2463
21750SOL     OW65827   3.929   0.236   1.885  0.3424 -0.0391 -0.1702
21750SOL    HW165828   3.951   0.235   1.978  2.3621  1.6811 -0.5439
21750SOL    HW265829   3.943   0.145   1.856  0.3433 -0.4439  1.0467
21751SOL     OW65830   2.260   7.756   0.324  0.2343 -0.5179  0.3291
21751SOL    HW165831   2.310   7.735   0.245 -2.6220  1.6042 -2.3115
21751SOL    HW265832   2.169   7.737   0.300 -1.1243  3.0917  1.8916
21752SOL     OW65833   8.538   2.124   3.270  0.3567 -0.4333  0.2313
21752SOL    HW165834   8.557   2.032   3.252  0.0199 -0.1838 -1.6865
21752SOL    HW265835   8.541   2.132   3.365  1.6708 -2.1373  0.3693
21753SOL     OW65836   6.348   1.483   4.559  0.0849  0.0598  0.3630
21753SOL    HW165837   6.333   1.505   4.467 -0.4740 -0.0704  0.4168
21753SOL    HW265838   6.279   1.420   4.580  0.8096 -0.6536  0.6067
21754SOL     OW65839   2.453   3.813   1.475  0.3936 -0.0494 -0.0548
21754SOL    HW165840   2.545   3.816   1.452  0.1236 -0.3856 -1.2693
21754SOL    HW265841   2.446   3.867   1.554  1.7450 -0.6863  0.5294
21755SOL     OW65842   5.598   6.921   0.714  0.3737  0.0460 -0.7505
21755SOL    HW165843   5.573   6.974   0.639  0.3386  0.4872 -0.4350
21755SOL    HW265844   5.524   6.862   0.728 -0.9178  1.9025  0.6926
21756SOL     OW65845   1.496   8.243   0.097 -0.1662 -0.4066 -0.2212
21756SOL    HW165846   1.558   8.310   0.127 -0.1294 -1.0216  1.1621
21756SOL    HW265847   1.538   8.160   0.121 -1.3377 -0.8444  0.3707
21757SOL     OW65848   8.990   3.241   6.652 -0.2430  0.1114 -0.1307
21757SOL    HW165849   8.942   3.324   6.656  1.2041  0.9397  1.2139
21757SOL    HW265850   9.067   3.260   6.599  0.2835 -0.2482  0.4911
21758SOL     OW65851   9.893   5.319   9.204 -0.3020  0.5025  0.6556
21758SOL    HW165852   9.923   5.403   9.171 -0.6007  1.2881  2.3157
21758SOL    HW265853   9.807   5.307   9.164 -0.8514  1.6376  1.4674
21759SOL     OW65854   6.410   7.219   3.968 -0.0301 -0.2718 -0.2173
21759SOL    HW165855   6.323   7.229   3.929 -1.0669 -0.1771  1.9726
21759SOL    HW265856   6.402   7.141   4.023  1.2226 -0.1554  0.1481
21760SOL     OW65857   2.585   9.756   1.844 -0.6434 -0.2122 -0.1177
21760SOL    HW165858   2.518   9.812   1.805 -0.1534 -0.0687 -0.7562
21760SOL    HW265859   2.536   9.699   1.904 -1.4753 -0.7748 -1.2878
21761SOL     OW65860   7.473   6.399   1.373  0.2216  0.1649 -0.1647
21761SOL    HW165861   7.440   6.376   1.460  2.8059 -0.9865  0.6021
21761SOL    HW265862   7.455   6.492   1.365 -0.6820  0.1606  1.3020
21762SOL     OW65863   0.312   4.466   3.293 -0.2830 -0.5049 -0.5952
21762SOL    HW165864   0.383   4.478   3.230  0.8013  1.8705  0.9273
21762SOL    HW265865   0.356   4.457   3.377 -1.7470  0.9845  0.3819
21763SOL     OW65866   4.985   9.096   3.964  0.3003  0.5351 -0.1508
21763SOL    HW165867   5.002   9.171   4.021  3.1379  1.5257 -2.1211
21763SOL    HW265868   5.045   9.107   3.890 -0.9266 -2.3970 -1.7554
21764SOL     OW65869   0.376   0.473   9.035 -0.5941 -0.1727  0.0313
21764SOL    HW165870   0.414   0.492   8.949  1.2114 -2.3358  0.2490
21764SOL    HW265871   0.356   0.559   9.072 -2.3008  0.8334 -2.8412
21765SOL     OW65872   6.817   0.297   0.942  0.5044 -0.1133  0.0912
21765SOL    HW165873   6.741   0.347   0.913  1.4548  1.2890 -0.0588
21765SOL    HW265874   6.854   0.348   1.014  0.7427 -1.2796  0.8119
21766SOL     OW65875   1.503   2.048   0.267  0.0716  0.2242 -0.6158
21766SOL    HW165876   1.463   2.034   0.352 -2.7669  1.3485 -1.6378
21766SOL    HW265877   1.486   1.967   0.219  1.5850 -0.3720 -0.2108
21767SOL     OW65878   2.819   1.872   2.141 -0.2253  0.0332  0.0971
21767SOL    HW165879   2.796   1.878   2.048 -0.3424  0.3929  0.1466
21767SOL    HW265880   2.914   1.869   2.142 -0.2322 -0.1979 -0.0480
21768SOL     OW65881   8.281   9.805   6.498 -0.1899 -0.7426 -0.4548
21768SOL    HW165882   8.274   9.766   6.585 -0.7766 -0.3637 -0.3248
21768SOL    HW265883   8.196   9.788   6.458 -0.3298  0.0782 -0.5243
21769SOL     OW65884   4.008   4.763   0.723  0.3707  0.1792 -0.1421
21769SOL    HW165885   3.983   4.768   0.815 -0.1098 -1.5744 -0.1506
21769SOL    HW265886   3.934   4.722   0.680  1.3139 -0.6848 -0.9994
21770SOL     OW65887   5.391   1.725   8.690  0.2716  0.3510 -0.3954
21770SOL    HW165888   5.407   1.815   8.719 -1.1468  0.7386 -0.7412
21770SOL    HW265889   5.397   1.673   8.771 -0.0109  0.9122 -0.0084
21771SOL     OW65890   9.753   1.327   4.768 -0.8937 -0.0784  0.1711
21771SOL    HW165891   9.711   1.405   4.732 -1.4427 -1.0657 -1.4329
21771SOL    HW265892   9.749   1.339   4.863 -3.4090  0.6109  0.0512
21772SOL     OW65893   0.591   5.697   2.567 -0.0537  0.2174  0.7712
21772SOL    HW165894   0.648   5.764   2.605  2.2259 -1.7502  1.0267
21772SOL    HW265895   0.568   5.731   2.481  0.3594  1.6977  1.2216
21773SOL     OW65896   2.654   2.912   9.099 -0.0795 -0.1130  0.1060
21773SOL    HW165897   2.728   2.917   9.160 -0.3078  0.8363  0.3340
21773SOL    HW265898   2.648   3.000   9.062  0.1467 -0.7060 -1.4178
21774SOL     OW65899   0.202   3.048   5.069 -0.3012  0.5311  0.6447
21774SOL    HW165900   0.186   3.131   5.024  1.4520  0.6038  0.0958
21774SOL    HW265901   0.237   3.073   5.154  1.8275  0.3955 -0.1415
21775SOL     OW65902   3.352   0.046   3.125 -0.0831  0.2462  0.0840
21775SOL    HW165903   3.425   0.080   3.176  1.0930 -1.6164 -0.2799
21775SOL    HW265904   3.376  -0.044   3.105 -2.2690 -0.2781 -0.4729
21776SOL     OW65905   3.532   8.316   1.843 -0.3243  0.0314  0.2276
21776SOL    HW165906   3.585   8.371   1.785  2.9458 -1.6435  1.3553
21776SOL    HW265907   3.469   8.274   1.784  0.4227  1.1746 -1.4774
21777SOL     OW65908   2.588   5.376   9.261 -0.2713  0.3304 -0.5914
21777SOL    HW165909   2.502   5.417   9.256 -0.7458  0.0854  2.9927
21777SOL    HW265910   2.576   5.299   9.317  1.9175 -0.9113 -1.6491
21778SOL     OW65911   1.688   4.581   6.550  0.1370 -0.3177  0.2962
21778SOL    HW165912   1.633   4.558   6.624  0.1118  0.2719  0.4603
21778SOL    HW265913   1.733   4.661   6.576  0.4413 -0.3305 -0.1620
21779SOL     OW65914   6.855   2.135   4.100  0.6128  0.2284  1.0012
21779SOL    HW165915   6.770   2.104   4.068  0.3259  1.1333  0.8568
21779SOL    HW265916   6.843   2.145   4.195 -0.0107  1.9837  0.7865
21780SOL     OW65917   6.773   0.473   7.050  0.2171 -0.4411 -0.3062
21780SOL    HW165918   6.742   0.462   6.960 -0.7126  1.0989 -0.2205
21780SOL    HW265919   6.716   0.541   7.087 -0.2165 -1.8634  1.8404
21781SOL     OW65920   1.944   3.389   3.733  0.3513  0.3708  0.0956
21781SOL    HW165921   1.940   3.480   3.764  1.2613  0.3540  0.2871
21781SOL    HW265922   1.855   3.356   3.744  0.1266  1.0892  0.4860
21782SOL     OW65923   4.666   2.716   7.933 -0.2582 -0.2153 -0.5056
21782SOL    HW165924   4.697   2.629   7.956 -0.4114 -0.0147  0.5140
21782SOL    HW265925   4.589   2.730   7.988  0.9353  1.3394  0.8969
21783SOL     OW65926   5.757   0.176   0.798 -0.0783  0.2271 -0.1443
21783SOL    HW165927   5.715   0.171   0.712 -0.4787  1.0415 -0.0049
21783SOL    HW265928   5.841   0.218   0.781 -0.7625  1.7620  0.0386
21784SOL     OW65929   4.832   1.834   8.317 -0.4668  0.2490 -0.1641
21784SOL    HW165930   4.765   1.812   8.252 -0.4833  0.4557 -0.2183
21784SOL    HW265931   4.906   1.866   8.264  0.1263 -1.1053 -0.1894
21785SOL     OW65932   0.193   8.106   9.631  0.0783 -0.3935 -0.8296
21785SOL    HW165933   0.160   8.080   9.717 -1.5493  0.2094 -1.2385
21785SOL    HW265934   0.287   8.118   9.644  0.2272 -2.3708  0.3506
21786SOL     OW65935   7.767   5.317   5.302  0.6494  0.4459  0.0453
21786SOL    HW165936   7.723   5.344   5.382 -0.0145  0.7774 -0.4159
21786SOL    HW265937   7.699   5.272   5.251  1.3317 -0.6894  0.1146
21787SOL     OW65938   2.402   4.141   8.341 -0.1203  0.1379 -0.5820
21787SOL    HW165939   2.454   4.095   8.407  0.2101  1.0747 -0.1663
21787SOL    HW265940   2.463   4.205   8.304 -0.6164  0.3709 -1.0051
21788SOL     OW65941   4.337   3.342   2.218  0.0932 -0.4056 -0.3758
21788SOL    HW165942   4.362   3.267   2.165 -1.2176 -1.2571  0.1821
21788SOL    HW265943   4.261   3.379   2.174 -0.1270 -0.2605  0.1183
21789SOL     OW65944   8.631   6.684   7.860 -0.1335 -0.5331 -0.0854
21789SOL    HW165945   8.570   6.675   7.934  0.1251 -2.4732 -0.0660
21789SOL    HW265946   8.574   6.693   7.783 -0.4191 -0.6591  0.1092
21790SOL     OW65947   7.989   3.837   0.965  0.2654 -0.4455 -0.6038
21790SOL    HW165948   7.916   3.884   0.924  0.0198  0.5469  0.9017
21790SOL    HW265949   8.063   3.897   0.959  0.0462  0.0204  0.9928
21791SOL     OW65950   6.390   1.503   7.017 -0.1894  0.1124  0.1691
21791SOL    HW165951   6.459   1.454   7.060 -0.6284 -2.4380 -1.7285
21791SOL    HW265952   6.435   1.570   6.966  1.0439 -1.7567 -1.3552
21792SOL     OW65953   5.568   8.864   4.596  1.3183 -0.6316  0.2718
21792SOL    HW165954   5.500   8.819   4.646 -0.3667  1.9782  0.5116
21792SOL    HW265955   5.646   8.860   4.651 -0.0118  0.6233  2.3555
21793SOL     OW65956   3.123   3.308   0.328  0.6616 -0.2814  0.8257
21793SOL    HW165957   3.043   3.284   0.282  1.0985  1.8040 -1.2141
21793SOL    HW265958   3.095   3.328   0.417 -0.7636 -1.1943  0.6216
21794SOL     OW65959   5.521   6.575   2.959  0.0726  0.1177 -0.2929
21794SOL    HW165960   5.545   6.634   2.888 -0.5704  0.4974 -0.2034
21794SOL    HW265961   5.429   6.594   2.975  0.3845  0.5357  1.1191
21795SOL     OW65962   4.349   7.468   5.058  0.5778  0.4511  0.3282
21795SOL    HW165963   4.330   7.374   5.052  0.7139  0.4695 -0.5399
21795SOL    HW265964   4.440   7.475   5.030  0.7198  0.7946  0.8612
21796SOL     OW65965   2.449   7.521   5.910  0.3361 -0.2059  0.4384
21796SOL    HW165966   2.507   7.459   5.954  2.5820  1.2310 -0.3260
21796SOL    HW265967   2.478   7.607   5.940 -1.5506  0.6018  0.1418
21797SOL     OW65968   3.088   5.180   3.232  0.4104  0.1753 -0.3293
21797SOL    HW165969   3.139   5.121   3.288 -0.6842  0.1839  0.7306
21797SOL    HW265970   2.998   5.168   3.263 -0.0354  1.1998 -1.2074
21798SOL     OW65971   5.496   6.885   5.905 -0.3758 -0.0038  0.2368
21798SOL    HW165972   5.579   6.855   5.940 -0.0772  0.6081  0.0665
21798SOL    HW265973   5.447   6.916   5.981 -0.5926 -0.6881  0.3822
21799SOL     OW65974   8.255   2.297   2.542 -0.4076 -0.0694 -0.1852
21799SOL    HW165975   8.275   2.320   2.633  1.8026 -0.4760 -0.4877
21799SOL    HW265976   8.221   2.208   2.547  0.3848 -0.3631  0.2178
21800SOL     OW65977   3.721   7.265   2.617 -0.2539  0.0253 -0.4006
21800SOL    HW165978   3.738   7.345   2.567  0.3044  0.4884  0.4981
21800SOL    HW265979   3.746   7.287   2.706 -1.8448 -0.5676  0.2347
21801SOL     OW65980   3.202   6.608   1.042 -0.1669 -0.3675  0.0603
21801SOL    HW165981   3.163   6.546   1.104  0.3069 -0.9891 -0.2452
21801SOL    HW265982   3.132   6.669   1.021 -0.7413 -0.9963  0.1275
21802SOL     OW65983   6.774   0.901   0.330 -0.4250 -0.3160  0.1548
21802SOL    HW165984   6.779   0.996   0.342 -1.9068 -0.4113  2.2083
21802SOL    HW265985   6.857   0.868   0.364  0.1341  0.2439 -0.6527
21803SOL     OW65986   0.649   9.603   2.590  0.7444 -0.0077 -0.0750
21803SOL    HW165987   0.624   9.611   2.682 -0.6649  0.6655 -0.4857
21803SOL    HW265988   0.599   9.528   2.558  1.3127 -0.3094 -0.2688
21804SOL     OW65989   2.655   2.698   1.209  0.0803 -0.2887  0.3471
21804SOL    HW165990   2.622   2.711   1.298  0.5987  3.7206  0.1251
21804SOL    HW265991   2.719   2.767   1.196 -0.9204  0.1732 -3.5768
21805SOL     OW65992   3.233   6.461   0.222  0.3317  0.3858 -0.6295
21805SOL    HW165993   3.325   6.473   0.198  0.8147  1.3004  1.4788
21805SOL    HW265994   3.225   6.368   0.244  1.3355  0.7067  1.2700
21806SOL     OW65995   2.303   1.801   0.034 -0.0529 -0.0131 -0.3830
21806SOL    HW165996   2.303   1.856  -0.044 -0.4383 -0.3929 -0.6566
21806SOL    HW265997   2.383   1.826   0.081 -0.4601  1.1206 -0.2495
21807SOL     OW65998   3.984   1.998   9.143 -0.1341 -0.0019 -0.0174
21807SOL    HW165999   4.064   2.051   9.143  0.3993 -0.7954 -0.2356
21807SOL    HW266000   3.966   1.981   9.235  0.1151 -0.0750  0.0164
21808SOL     OW66001   3.120   2.346   1.369  0.1045 -0.2208 -0.2687
21808SOL    HW166002   3.182   2.328   1.440  0.0128  2.3956  0.5838
21808SOL    HW266003   3.034   2.332   1.409  0.0813 -1.3019 -0.6748
21809SOL     OW66004   9.385   1.712   0.203 -0.1873 -0.2778  0.1247
21809SOL    HW166005   9.397   1.710   0.298 -1.1200 -1.8496  0.2381
21809SOL    HW266006   9.305   1.762   0.189 -0.7604 -1.1237  0.2802
21810SOL     OW66007   2.462   9.306   5.710 -0.0744  0.4387  0.0965
21810SOL    HW166008   2.386   9.248   5.708  0.2725 -0.1466  1.9182
21810SOL    HW266009   2.461   9.350   5.626 -2.1232  0.0482 -0.1303
21811SOL     OW66010   8.559   4.703   1.674  0.5760 -0.0975 -0.0505
21811SOL    HW166011   8.507   4.686   1.753 -1.2940  0.7242 -1.0198
21811SOL    HW266012   8.578   4.617   1.638  0.3959 -0.4362  0.6548
21812SOL     OW66013   4.227   7.082   6.935 -0.5010 -0.5454  0.4381
21812SOL    HW166014   4.266   7.107   7.018 -1.9773 -2.1525  1.7007
21812SOL    HW266015   4.290   7.022   6.895 -0.4113 -0.8792  1.0760
21813SOL     OW66016   7.056   3.254   7.394 -0.2745 -0.7213 -0.2393
21813SOL    HW166017   7.012   3.300   7.323 -2.3580  0.9655  1.9665
21813SOL    HW266018   7.007   3.172   7.404 -0.1316 -0.8489 -0.5820
21814SOL     OW66019   7.451   9.987   6.526  0.5690 -0.2780 -0.0393
21814SOL    HW166020   7.400   9.946   6.457  1.7207 -0.7853 -0.6141
21814SOL    HW266021   7.410   9.958   6.608 -2.2420  2.1177 -0.4184
21815SOL     OW66022   2.802   3.916   8.452  0.5045  0.1650  1.1189
21815SOL    HW166023   2.873   3.852   8.463  1.1983  0.9912  1.5808
21815SOL    HW266024   2.833   3.973   8.382  0.4056  0.6780  1.4878
21816SOL     OW66025   4.341   8.958   1.185  0.0799 -0.3943 -0.3065
21816SOL    HW166026   4.335   8.957   1.090  0.0014  2.0921 -0.3935
21816SOL    HW266027   4.350   9.051   1.208 -0.5533 -0.8538  2.1460
21817SOL     OW66028   7.552   2.002   1.428  0.2210  0.0196 -0.0923
21817SOL    HW166029   7.514   1.915   1.425  1.9274 -0.7804 -2.8096
21817SOL    HW266030   7.623   1.995   1.492 -0.7389 -0.0454  0.9818
21818SOL     OW66031   3.796   2.896   2.357 -0.1502 -0.3077 -0.0637
21818SOL    HW166032   3.865   2.952   2.320 -0.9365  0.3722 -0.5302
21818SOL    HW266033   3.780   2.932   2.444 -1.5912  1.0761 -0.8598
21819SOL     OW66034   5.043   7.581   9.211 -0.0595 -0.6565 -0.0017
21819SOL    HW166035   5.057   7.659   9.157  0.8624 -1.3922 -0.8345
21819SOL    HW266036   4.959   7.598   9.255  0.0311  0.7176 -0.3094
21820SOL     OW66037   8.768   9.668   1.836  0.4490 -0.2115 -0.2940
21820SOL    HW166038   8.722   9.593   1.798 -0.0159 -0.0308 -0.0887
21820SOL    HW266039   8.834   9.691   1.771  0.2183 -0.4384 -0.6115
21821SOL     OW66040   5.136   8.384   0.893 -0.0237 -0.2046 -0.3792
21821SOL    HW166041   5.221   8.344   0.912 -1.5808 -2.3701  2.8874
21821SOL    HW266042   5.112   8.429   0.974 -1.5870  1.2638 -1.5820
21822SOL     OW66043   6.708   3.176   5.147 -0.0768 -0.4352  0.0192
21822SOL    HW166044   6.759   3.213   5.219 -0.4274 -0.2783  0.1913
21822SOL    HW266045   6.758   3.099   5.119  0.5881  0.0868 -0.2493
21823SOL     OW66046   7.841   0.284   9.155  0.0439 -0.1840 -0.0923
21823SOL    HW166047   7.898   0.246   9.087 -0.9765 -1.2752 -0.3779
21823SOL    HW266048   7.901   0.326   9.216  1.1755 -1.2701 -0.4061
21824SOL     OW66049   0.140   0.336   6.870 -0.2001  0.0747 -0.6554
21824SOL    HW166050   0.168   0.427   6.886 -0.1603  0.4342 -2.5286
21824SOL    HW266051   0.212   0.283   6.904 -0.2424  0.7294  0.5101
21825SOL     OW66052   2.552   1.191   8.456 -0.3317  0.0913  0.1358
21825SOL    HW166053   2.576   1.214   8.546 -0.9916 -1.8393  0.8550
21825SOL    HW266054   2.627   1.140   8.424 -1.0353 -1.1722  0.4285
21826SOL     OW66055   5.101   7.512   0.063  0.4305  0.7057 -0.1161
21826SOL    HW166056   5.072   7.450   0.129  0.1761  2.2724  1.3368
21826SOL    HW266057   5.039   7.502  -0.009  0.2600 -0.5368  0.1901
21827SOL     OW66058   8.516   0.632   4.905 -0.0093  0.4156  0.1957
21827SOL    HW166059   8.466   0.598   4.979  0.2140  1.9900  1.1036
21827SOL    HW266060   8.607   0.614   4.928  0.1826  2.3301  1.1198
21828SOL     OW66061   6.829   8.371   4.804  0.3139 -0.2196  0.4344
21828SOL    HW166062   6.806   8.453   4.848  3.8231  0.7395  0.7484
21828SOL    HW266063   6.772   8.369   4.727 -0.9150  1.7419  1.2086
21829SOL     OW66064   4.857   0.533   5.435  0.0061  0.0233 -0.1703
21829SOL    HW166065   4.855   0.628   5.422  0.9046  0.1549  0.5732
21829SOL    HW266066   4.797   0.499   5.368  0.2148  1.0530 -0.9164
21830SOL     OW66067   1.742   6.568   7.852  0.0807 -0.2104  0.6347
21830SOL    HW166068   1.771   6.480   7.829  0.4752 -0.2590  1.3051
21830SOL    HW266069   1.823   6.619   7.861 -0.1572  0.3251 -0.1373
21831SOL     OW66070   6.213   1.352   5.897  0.0420  0.2164  0.0339
21831SOL    HW166071   6.171   1.430   5.931  1.0823  1.1066 -0.6453
21831SOL    HW266072   6.240   1.376   5.808  2.5676 -0.0566  0.6594
21832SOL     OW66073   4.815   7.551   9.456  0.6825  0.0462 -0.3627
21832SOL    HW166074   4.846   7.545   9.547  1.4727 -2.5560 -0.7316
21832SOL    HW266075   4.727   7.513   9.458 -0.1129  1.8065 -0.3900
21833SOL     OW66076   6.023   3.934   5.733 -0.8456  0.3739 -0.0478
21833SOL    HW166077   5.942   3.887   5.714 -0.5726 -0.1610  0.0904
21833SOL    HW266078   6.055   3.962   5.648 -0.3788 -0.7635 -0.2750
21834SOL     OW66079   6.141   0.795   0.234 -0.0486  0.1713  0.4417
21834SOL    HW166080   6.108   0.746   0.158  0.3914  0.7852 -0.1526
21834SOL    HW266081   6.116   0.741   0.309  0.6942 -1.1469 -0.2104
21835SOL     OW66082   8.533   0.353   7.419  0.0442 -0.1989  0.2986
21835SOL    HW166083   8.494   0.305   7.346 -1.2063 -0.8574  1.3532
21835SOL    HW266084   8.458   0.397   7.460  0.5037 -0.8929  1.9506
21836SOL     OW66085   6.096   6.849   2.260 -0.3538 -0.0846 -0.3856
21836SOL    HW166086   6.115   6.825   2.350  1.9703  0.0319 -0.7865
21836SOL    HW266087   6.159   6.798   2.208 -0.7153  0.8884 -1.8253
21837SOL     OW66088   2.818   5.194   0.836 -0.3529 -0.3779 -0.0187
21837SOL    HW166089   2.784   5.109   0.808  1.1950 -0.6873 -1.0557
21837SOL    HW266090   2.810   5.193   0.932  0.7163 -2.1723  0.0811
21838SOL     OW66091   4.650   7.376   1.697 -0.1577  0.2526  0.4385
21838SOL    HW166092   4.720   7.344   1.641 -1.5985 -0.3448 -1.1000
21838SOL    HW266093   4.670   7.469   1.710  0.2983  0.3808 -0.9763
21839SOL     OW66094   3.793   6.583   3.146  0.2238 -0.0680 -0.0927
21839SOL    HW166095   3.771   6.568   3.054 -0.3515  1.2823 -0.2011
21839SOL    HW266096   3.732   6.652   3.174  0.5657 -0.2776  1.2297
21840SOL     OW66097   5.974   5.911   9.841  0.3314 -0.4557  0.5499
21840SOL    HW166098   5.919   5.841   9.876 -0.6976  0.3724  0.6326
21840SOL    HW266099   5.913   5.980   9.817  1.2242 -0.0244 -0.6027
21841SOL     OW66100   8.095   0.445   3.813  0.0493  0.3205 -0.2774
21841SOL    HW166101   8.121   0.536   3.799  1.3530  0.1127  0.5724
21841SOL    HW266102   8.148   0.417   3.888 -1.2392 -0.7638  0.2581
21842SOL     OW66103   5.742   2.785   4.784 -0.2552  0.2674  0.2641
21842SOL    HW166104   5.653   2.787   4.820 -0.1550  1.1240  0.4651
21842SOL    HW266105   5.729   2.791   4.689 -0.3378  3.0483  0.3864
21843SOL     OW66106   3.877   7.878   9.188 -0.2916 -0.0759 -0.4541
21843SOL    HW166107   3.817   7.803   9.189 -1.5152  0.8399  1.5333
21843SOL    HW266108   3.938   7.861   9.260  0.0100  0.3809 -0.5961
21844SOL     OW66109   7.807   3.324   9.203  1.0045 -0.1701  0.2033
21844SOL    HW166110   7.879   3.386   9.211  0.6753  0.2684 -0.1745
21844SOL    HW266111   7.821   3.282   9.118 -0.2245  1.2755 -0.7549
21845SOL     OW66112   5.545   7.832   8.277 -0.5693  0.3910  0.6162
21845SOL    HW166113   5.523   7.740   8.289  0.3615  0.2454  1.2948
21845SOL    HW266114   5.463   7.873   8.251 -1.0618 -0.5717  0.6145
21846SOL     OW66115   6.196   8.097   1.587 -0.1901 -0.3703  0.0501
21846SOL    HW166116   6.164   8.010   1.566 -0.2088  0.1622 -2.5632
21846SOL    HW266117   6.289   8.096   1.561  0.2143 -0.0202  1.3953
21847SOL     OW66118   0.612   2.926   0.709  0.0266 -0.5729 -0.0838
21847SOL    HW166119   0.654   2.856   0.659 -0.9110 -1.8089  0.8013
21847SOL    HW266120   0.523   2.929   0.675 -0.2625 -0.5811  0.6696
21848SOL     OW66121   5.961   6.997   2.435 -0.6414 -0.3566  0.0050
21848SOL    HW166122   5.924   7.052   2.366 -1.6151 -0.2455  0.6019
21848SOL    HW266123   5.953   7.050   2.515 -1.7068 -1.3798  0.6098
21849SOL     OW66124   6.466   0.928   5.419  0.3048 -0.1553 -0.5405
21849SOL    HW166125   6.480   0.964   5.506 -1.0953 -1.2157  0.1713
21849SOL    HW266126   6.553   0.902   5.389  0.6553 -1.1162  1.1738
21850SOL     OW66127   3.006   8.764   6.868  0.2062  0.2956  0.3584
21850SOL    HW166128   3.005   8.680   6.915 -1.3869  0.1162  0.0623
21850SOL    HW266129   2.914   8.785   6.854  0.5985  0.7013 -2.0597
21851SOL     OW66130   4.866   5.377   1.137 -0.3463  0.0221  0.0334
21851SOL    HW166131   4.902   5.298   1.096 -0.8933 -0.2069 -0.0159
21851SOL    HW266132   4.842   5.433   1.064 -1.6192 -0.5187  0.0050
21852SOL     OW66133   9.102   2.313   1.288  0.1338  0.5338  0.2161
21852SOL    HW166134   9.139   2.304   1.200 -0.0331  1.7649  0.0097
21852SOL    HW266135   9.136   2.396   1.320  1.1228 -0.4308  1.7884
21853SOL     OW66136   6.626   1.664   5.545 -0.2386  0.0602 -0.1549
21853SOL    HW166137   6.693   1.598   5.559 -1.7702 -1.4497  0.4167
21853SOL    HW266138   6.635   1.724   5.619 -1.1823 -1.6578  1.4455
21854SOL     OW66139   6.363   9.658   1.261  0.3139 -0.1777  0.5747
21854SOL    HW166140   6.382   9.734   1.207  0.1922 -0.7927 -0.3776
21854SOL    HW266141   6.448   9.621   1.282  0.3414 -0.5943 -0.2072
21855SOL     OW66142   6.360   1.355   5.622 -0.0289 -0.0829  0.0425
21855SOL    HW166143   6.274   1.384   5.592 -0.1077 -0.4992 -0.1489
21855SOL    HW266144   6.411   1.345   5.541 -0.2058 -1.1025  0.0402
21856SOL     OW66145   5.979   0.089   8.363 -0.7644 -0.0817  0.1385
21856SOL    HW166146   5.929   0.026   8.414  0.3529 -0.5434  0.7085
21856SOL    HW266147   6.059   0.042   8.338 -0.1165  0.9571  0.1850
21857SOL     OW66148   0.585   7.243   2.137  0.1832 -0.5131  0.0029
21857SOL    HW166149   0.538   7.187   2.074  0.1481  0.4910 -0.9004
21857SOL    HW266150   0.673   7.251   2.101 -0.4388  1.8741 -1.1814
21858SOL     OW66151   1.183   5.421   4.653  1.1038  0.0072 -0.0955
21858SOL    HW166152   1.107   5.363   4.640  0.8122  0.5733 -1.1168
21858SOL    HW266153   1.190   5.467   4.569  0.4473  2.4718  1.1371
21859SOL     OW66154   1.913   0.149   7.450 -0.0640 -0.1566 -0.0322
21859SOL    HW166155   1.928   0.227   7.504  0.0788 -0.8135  0.9112
21859SOL    HW266156   2.001   0.120   7.426 -0.1460  1.0639 -2.0622
21860SOL     OW66157   7.078   7.064   7.641 -0.2893  0.5165 -0.4230
21860SOL    HW166158   7.005   7.039   7.586 -0.4189  0.8941 -0.4257
21860SOL    HW266159   7.038   7.101   7.720 -0.1109 -0.3822  0.1052
21861SOL     OW66160   6.207   5.881   3.530 -0.3577  0.0497 -0.3291
21861SOL    HW166161   6.253   5.948   3.479 -1.3200 -0.0185 -1.3163
21861SOL    HW266162   6.275   5.819   3.554  0.7834  1.8982  1.5606
21862SOL     OW66163   0.683   8.901   7.801 -0.3150 -0.0252  0.8493
21862SOL    HW166164   0.621   8.912   7.729  1.2406  0.7420 -0.4339
21862SOL    HW266165   0.727   8.985   7.809 -1.2563  0.3132  3.5602
21863SOL     OW66166   8.768   9.875   4.872  0.5431  0.0972  0.2628
21863SOL    HW166167   8.806   9.945   4.925  0.7384  0.6795 -0.6349
21863SOL    HW266168   8.843   9.825   4.840  0.5670  0.9578 -1.1101
21864SOL     OW66169   1.484   5.384   8.573 -0.3450 -0.3560  0.0655
21864SOL    HW166170   1.486   5.463   8.519  2.9697 -0.3537 -0.0049
21864SOL    HW266171   1.458   5.314   8.513 -0.7823  0.2799 -0.4928
21865SOL     OW66172   6.240   4.121   1.355 -0.4002  0.0469  0.1412
21865SOL    HW166173   6.212   4.044   1.404  1.6661 -0.8168  0.0479
21865SOL    HW266174   6.201   4.111   1.269 -0.0264 -1.0127  0.0776
21866SOL     OW66175   3.393   1.942   1.051  0.4484 -0.8699  0.1977
21866SOL    HW166176   3.336   1.869   1.077 -0.5870 -0.2490 -0.2407
21866SOL    HW266177   3.382   2.007   1.120  1.1630 -1.0219  0.4542
21867SOL     OW66178   2.722   7.636   8.228 -0.0859  0.0347 -0.5792
21867SOL    HW166179   2.663   7.588   8.287  1.8683  0.2400  1.6816
21867SOL    HW266180   2.694   7.727   8.235  2.6933  0.8675  3.7293
21868SOL     OW66181   8.887   8.893   5.679 -0.1461  0.1616  0.1900
21868SOL    HW166182   8.812   8.854   5.724  1.0105 -0.8820  1.2994
21868SOL    HW266183   8.918   8.824   5.621  0.4673  0.2716  0.3796
21869SOL     OW66184   2.255   1.074   4.908 -0.1279  0.1355  0.8898
21869SOL    HW166185   2.351   1.077   4.910  0.1294  0.4513 -2.9258
21869SOL    HW266186   2.227   1.143   4.968  2.1764  1.9297  0.0458
21870SOL     OW66187   8.971   1.939   5.336  0.2353 -0.6775  0.4762
21870SOL    HW166188   8.944   1.875   5.269 -0.1438  0.8582 -0.8868
21870SOL    HW266189   8.937   1.902   5.418 -2.4564 -0.8826 -0.6359
21871SOL     OW66190   5.927   3.004   9.343  0.2245 -0.5863 -0.4971
21871SOL    HW166191   5.901   2.958   9.264  1.0294 -1.5048 -0.2518
21871SOL    HW266192   6.006   3.051   9.319 -0.6712  0.8121 -0.7834
21872SOL     OW66193   4.009   9.679   6.739  0.5580 -0.3907  0.1910
21872SOL    HW166194   4.026   9.597   6.693 -1.4194  0.2173 -1.7828
21872SOL    HW266195   4.065   9.675   6.816  2.4581 -2.4169 -1.1838
21873SOL     OW66196   6.167   1.661   8.642  0.1036 -0.0605  0.9043
21873SOL    HW166197   6.249   1.664   8.593  0.4905  1.0134  1.5873
21873SOL    HW266198   6.099   1.653   8.574  0.7863 -1.8231  0.3747
21874SOL     OW66199   0.795   9.785   2.986  1.1260  0.1625 -0.1969
21874SOL    HW166200   0.793   9.690   2.998  0.9088  0.2017  0.1034
21874SOL    HW266201   0.811   9.797   2.893 -2.3748 -0.2050 -1.0038
21875SOL     OW66202   5.712   8.461   3.117  0.3731 -0.2525  0.3655
21875SOL    HW166203   5.724   8.451   3.211 -2.0549  1.1273  0.8838
21875SOL    HW266204   5.727   8.554   3.101 -3.0451  0.3923  0.1473
21876SOL     OW66205   0.264   2.429   7.159 -0.3202 -0.0789 -0.5486
21876SOL    HW166206   0.187   2.380   7.131  0.3840 -1.0251 -0.8847
21876SOL    HW266207   0.334   2.396   7.103  0.6590 -0.3850  0.8100
21877SOL     OW66208   6.340   2.820   8.880  0.3925  0.5953  0.0987
21877SOL    HW166209   6.249   2.816   8.908  0.7565 -0.5125  1.1975
21877SOL    HW266210   6.373   2.902   8.916 -0.7544  2.2501 -2.3157
21878SOL     OW66211   3.558   7.373   3.475 -0.5138  0.2260  0.4501
21878SOL    HW166212   3.646   7.360   3.440  0.2050  0.5859  2.0076
21878SOL    HW266213   3.555   7.467   3.496 -1.5670  0.3786 -0.3286
21879SOL     OW66214   1.487   0.364   3.422  0.1212  0.1733  0.1677
21879SOL    HW166215   1.453   0.365   3.332  1.5338 -0.7345 -0.3973
21879SOL    HW266216   1.438   0.294   3.464  0.4601 -0.3592 -0.3104
21880SOL     OW66217   7.771   9.671   8.655 -0.3621  0.1466  0.1007
21880SOL    HW166218   7.797   9.587   8.692 -1.7272 -0.5346 -0.4002
21880SOL    HW266219   7.676   9.668   8.654 -0.4130  0.8771 -1.7450
21881SOL     OW66220   4.492   5.882   6.608 -0.1254  0.2425 -0.1125
21881SOL    HW166221   4.471   5.944   6.678 -1.2509 -2.0280  1.7210
21881SOL    HW266222   4.413   5.879   6.555 -0.2272  0.1018  0.0443
21882SOL     OW66223   9.855   6.343   8.015 -0.2714  0.2645 -0.0981
21882SOL    HW166224   9.774   6.303   7.982  1.6308 -1.8677 -2.6768
21882SOL    HW266225   9.910   6.269   8.038  2.9312  1.1911 -3.7611
21883SOL     OW66226   2.239   1.077   8.994 -0.1403 -0.4872  0.1478
21883SOL    HW166227   2.189   1.082   8.913 -1.4252  1.7017  0.9908
21883SOL    HW266228   2.329   1.096   8.968  0.0043 -2.5533 -1.1041
21884SOL     OW66229   8.539   8.126   9.879  0.0706 -0.0640  0.3380
21884SOL    HW166230   8.580   8.096   9.797  0.3943  1.0258  0.0841
21884SOL    HW266231   8.610   8.169   9.926 -0.7116  1.6742 -0.0146
21885SOL     OW66232   5.884   1.236   1.555 -0.5313  0.1899 -0.0564
21885SOL    HW166233   5.881   1.203   1.465 -0.4275  0.0214  0.0022
21885SOL    HW266234   5.792   1.241   1.581 -0.6808  1.7865 -0.7300
21886SOL     OW66235   6.166   9.551   1.393 -0.6292 -0.4738  0.1137
21886SOL    HW166236   6.176   9.469   1.346 -0.3995 -1.3625  1.6557
21886SOL    HW266237   6.225   9.612   1.350  2.6165 -2.3299  1.6126
21887SOL     OW66238   2.866   9.216   3.284  0.4048  0.5181  0.1364
21887SOL    HW166239   2.840   9.135   3.327  0.7398  0.3953  0.1083
21887SOL    HW266240   2.794   9.277   3.302 -1.0241 -0.4611 -1.8280
21888SOL     OW66241   1.106   3.374   9.907 -0.1736  0.1353  0.1315
21888SOL    HW166242   1.164   3.338   9.975  0.7321  0.5457 -0.4070
21888SOL    HW266243   1.148   3.350   9.825  0.0842  1.7947 -0.2580
21889SOL     OW66244   6.854   6.797   5.868  0.0886  0.2053  0.2789
21889SOL    HW166245   6.786   6.845   5.916  1.3962  2.3931  0.1057
21889SOL    HW266246   6.936   6.830   5.905  1.0756 -1.4428 -0.3653
21890SOL     OW66247   4.816   9.525   1.256  0.5382  0.5210  0.3552
21890SOL    HW166248   4.879   9.580   1.304  0.4386  1.3505 -0.4249
21890SOL    HW266249   4.824   9.439   1.296  1.0822  0.9797  1.2773
21891SOL     OW66250   4.556   8.472   7.928  0.6176 -0.4080 -0.6439
21891SOL    HW166251   4.641   8.473   7.884  0.5749 -0.2563 -0.7224
21891SOL    HW266252   4.565   8.537   7.998  0.1735  0.4776 -1.3910
21892SOL     OW66253   9.471   7.047   0.297 -0.0695  0.2711  0.0449
21892SOL    HW166254   9.488   7.068   0.388 -1.1456  0.4016  0.2271
21892SOL    HW266255   9.421   7.122   0.264  2.0436  1.2034 -1.2333
21893SOL     OW66256   9.006   2.700   3.745 -0.1546 -0.2748  0.2629
21893SOL    HW166257   8.998   2.794   3.730 -1.5965 -0.0211  2.2694
21893SOL    HW266258   8.917   2.670   3.760  0.2988 -1.9626 -0.2018
21894SOL     OW66259   2.354   3.260   9.817 -0.2349 -0.4021  0.4451
21894SOL    HW166260   2.278   3.236   9.870 -0.2073  2.8660  2.2649
21894SOL    HW266261   2.318   3.310   9.744  0.0538 -0.0105  0.5630
21895SOL     OW66262   1.665   1.256   6.620 -0.5371  0.3878  0.5553
21895SOL    HW166263   1.604   1.183   6.610  0.2434 -0.0986 -0.9026
21895SOL    HW266264   1.746   1.216   6.650 -0.5410  0.8814  1.2749
21896SOL     OW66265   2.202   2.767   8.314  0.3457 -0.0849  0.2924
21896SOL    HW166266   2.211   2.766   8.219  0.3081 -2.1340  0.2668
21896SOL    HW266267   2.290   2.787   8.347  0.7161 -0.9697 -0.1571
21897SOL     OW66268   6.685   7.537   1.824  0.0762 -0.6970 -0.2785
21897SOL    HW166269   6.670   7.585   1.905  0.3598 -0.6027 -0.2801
21897SOL    HW266270   6.668   7.446   1.847  1.1661 -0.8100  0.1707
21898SOL     OW66271   3.239   9.760   6.300 -0.3676  0.8332  0.5243
21898SOL    HW166272   3.168   9.785   6.359 -1.4213 -0.4154 -0.1609
21898SOL    HW266273   3.217   9.804   6.217 -0.8083 -0.2035  0.0767
21899SOL     OW66274   6.604   7.984   5.625 -0.1132  0.1661  0.3121
21899SOL    HW166275   6.615   8.016   5.535  0.8772 -0.3541  0.2352
21899SOL    HW266276   6.530   7.924   5.620  0.1915 -0.1700 -0.2431
21900SOL     OW66277   1.991   7.380   4.783 -0.2991  0.6123  0.2579
21900SOL    HW166278   2.027   7.458   4.826 -0.4505 -0.0938  1.6892
21900SOL    HW266279   1.899   7.380   4.808 -0.5023  0.4494 -0.4759
21901SOL     OW66280   9.208   2.108   8.413  0.8615  0.0612  0.1871
21901SOL    HW166281   9.160   2.094   8.332  0.0077  1.1227  0.4891
21901SOL    HW266282   9.142   2.104   8.482  1.3044  0.8304  0.6746
21902SOL     OW66283   7.351   3.164   6.276 -0.7168  0.2007  0.2651
21902SOL    HW166284   7.415   3.109   6.321 -0.8044 -1.2710 -1.3177
21902SOL    HW266285   7.274   3.162   6.333  0.1618  0.9252  1.5344
21903SOL     OW66286   1.440   3.301   3.448  0.1581  0.6094  0.3496
21903SOL    HW166287   1.421   3.379   3.500  0.6129 -0.0953  1.6133
21903SOL    HW266288   1.521   3.322   3.401  0.6324  0.6675  1.1812
21904SOL     OW66289   3.832   4.335   0.902  0.2848  0.3596  0.4563
21904SOL    HW166290   3.914   4.303   0.940  1.1132  0.4565 -1.1435
21904SOL    HW266291   3.795   4.259   0.857 -0.4806  0.3322  1.1280
21905SOL     OW66292   2.147   1.065   6.466  0.6595 -0.4157 -0.0366
21905SOL    HW166293   2.087   1.110   6.407 -1.4110  0.3961  2.5272
21905SOL    HW266294   2.233   1.104   6.447 -0.3320  1.5052 -0.8576
21906SOL     OW66295   2.318   4.174   1.635 -0.6198 -0.2880 -0.2026
21906SOL    HW166296   2.227   4.172   1.665 -0.5168 -0.3554  0.1104
21906SOL    HW266297   2.369   4.188   1.715 -0.4368  1.1092 -0.5557
21907SOL     OW66298   2.883   5.473   8.266  0.2282  0.0293  0.1658
21907SOL    HW166299   2.937   5.550   8.281  0.0172  0.2960 -0.4240
21907SOL    HW266300   2.826   5.497   8.194  1.4971 -1.3293 -1.3714
21908SOL     OW66301   1.430   8.525   1.689 -0.1229 -0.1550 -0.2053
21908SOL    HW166302   1.482   8.595   1.648 -0.5408 -0.0293 -0.5230
21908SOL    HW266303   1.446   8.449   1.634 -0.8433  0.0631 -0.7300
21909SOL     OW66304   4.932   9.656   6.657 -0.0335 -0.2548 -0.9401
21909SOL    HW166305   5.003   9.596   6.677 -0.4488 -0.1675  0.9887
21909SOL    HW266306   4.940   9.725   6.722 -0.2161  1.2527 -2.4469
21910SOL     OW66307   7.210   7.888   6.781  0.4513  0.2153 -0.0184
21910SOL    HW166308   7.210   7.978   6.748 -0.4785  0.1933 -0.0961
21910SOL    HW266309   7.144   7.843   6.729  1.2940 -0.6726 -0.3677
21911SOL     OW66310   0.322   0.065   0.886  0.2368  0.0220  0.5954
21911SOL    HW166311   0.344   0.151   0.850  1.4896  0.1354  1.5455
21911SOL    HW266312   0.399   0.011   0.869 -1.4230 -1.7231 -2.1761
21912SOL     OW66313   0.872   5.805   5.627 -0.2439 -0.2623 -0.1276
21912SOL    HW166314   0.804   5.738   5.627 -1.5394  0.9979 -0.0621
21912SOL    HW266315   0.946   5.765   5.582 -0.8851 -1.8088  0.1405
21913SOL     OW66316   5.714   9.830   9.313 -0.2895  0.2142  0.1097
21913SOL    HW166317   5.630   9.873   9.329  0.2746  1.2761  0.3369
21913SOL    HW266318   5.746   9.807   9.401  0.4259  1.3562  0.1664
21914SOL     OW66319   7.232   6.946   8.365 -0.1973  0.5243 -0.4438
21914SOL    HW166320   7.159   6.912   8.313  0.2723  0.6946 -1.2303
21914SOL    HW266321   7.242   7.037   8.336  1.4669  0.0052 -1.6728
21915SOL     OW66322   3.515   9.412   3.675 -0.0916 -0.3041 -0.2063
21915SOL    HW166323   3.428   9.382   3.651 -0.1680  1.6932 -2.7759
21915SOL    HW266324   3.563   9.416   3.592  0.9496  3.0786  0.4145
21916SOL     OW66325   5.208   1.221   8.329  0.0835  0.0545 -0.3394
21916SOL    HW166326   5.179   1.140   8.287  0.7299  0.6731 -2.0718
21916SOL    HW266327   5.282   1.194   8.383 -0.8169 -0.7768  0.5255
21917SOL     OW66328   5.765   3.032   3.430 -0.3216 -0.4199  0.4786
21917SOL    HW166329   5.731   3.073   3.510 -0.5137  0.4083 -0.0189
21917SOL    HW266330   5.696   2.971   3.403 -0.8398  0.2697  0.2202
21918SOL     OW66331   0.675   2.149   3.516 -1.1509  0.2805 -0.0236
21918SOL    HW166332   0.617   2.105   3.577 -1.4247 -1.1592 -1.2663
21918SOL    HW266333   0.672   2.096   3.436 -0.9102  2.1536 -1.3565
21919SOL     OW66334   5.856   7.793   5.697 -0.6445 -0.0604  0.0132
21919SOL    HW166335   5.942   7.820   5.665 -0.1016  1.7940  2.6473
21919SOL    HW266336   5.794   7.847   5.647 -0.0998  0.2420 -0.3455
21920SOL     OW66337   1.493   8.387   0.774 -0.1040 -0.5289 -0.5294
21920SOL    HW166338   1.429   8.398   0.703 -1.0544  0.2948  0.4125
21920SOL    HW266339   1.442   8.402   0.853  0.4310 -3.4941  0.5011
21921SOL     OW66340   3.977   3.558   5.792 -0.5917 -0.1629  0.4783
21921SOL    HW166341   3.930   3.578   5.873  1.7086  1.4360  1.5432
21921SOL    HW266342   3.975   3.639   5.742  0.8586 -0.0727  0.5102
21922SOL     OW66343   6.857   8.389   3.311  0.1064 -0.5448  0.5059
21922SOL    HW166344   6.844   8.472   3.265 -1.0888 -0.3893  1.1089
21922SOL    HW266345   6.786   8.333   3.281 -0.8476 -0.3662  2.3130
21923SOL     OW66346   7.537   7.804   2.062  0.4494 -1.2900 -0.5166
21923SOL    HW166347   7.566   7.896   2.057 -4.0903  0.3845 -0.7576
21923SOL    HW266348   7.533   7.786   2.156 -0.3127 -0.5828 -0.4028
21924SOL     OW66349   4.806   4.790   0.576 -0.1873  0.2235  0.0457
21924SOL    HW166350   4.838   4.856   0.637  0.3291 -0.6255  0.7265
21924SOL    HW266351   4.715   4.774   0.603 -1.0380  2.1214 -1.4398
21925SOL     OW66352   8.524   9.364   6.013  0.1053  0.2217  0.5341
21925SOL    HW166353   8.578   9.367   5.934 -2.4697  3.2353 -1.3581
21925SOL    HW266354   8.505   9.271   6.025  1.6515 -0.4593 -1.5781
21926SOL     OW66355   2.347   7.847   6.469  0.0740 -0.2967  0.4847
21926SOL    HW166356   2.370   7.807   6.552 -1.2215  1.1513  1.5878
21926SOL    HW266357   2.258   7.817   6.450  0.0666  0.0001  0.0091
21927SOL     OW66358   3.594   2.152   5.879 -0.1544  0.0519  0.0052
21927SOL    HW166359   3.664   2.175   5.817  1.0312 -0.6918  1.0048
21927SOL    HW266360   3.532   2.101   5.827  0.2235  0.4214 -0.8293
21928SOL     OW66361   1.450   6.615   8.747  0.5147  0.9749 -0.2133
21928SOL    HW166362   1.524   6.636   8.805 -0.5486  1.5745  0.9738
21928SOL    HW266363   1.439   6.521   8.755  2.9367  0.3518 -2.6590
21929SOL     OW66364   1.879   4.898   9.900 -0.3656  0.1763  0.0008
21929SOL    HW166365   1.974   4.894   9.914 -0.4690 -1.2647  0.4359
21929SOL    HW266366   1.843   4.918   9.986 -0.5516 -1.0925  0.2306
21930SOL     OW66367   4.597   7.594   3.790  0.2298  0.4245 -0.5358
21930SOL    HW166368   4.607   7.539   3.711 -1.1323 -1.0702  0.2530
21930SOL    HW266369   4.683   7.593   3.831  0.2416 -1.2019 -0.5331
21931SOL     OW66370   2.493   6.902   5.897 -0.2794 -0.2430  0.3960
21931SOL    HW166371   2.529   6.823   5.936  0.5245  0.8344  1.9184
21931SOL    HW266372   2.559   6.931   5.834  0.0853 -0.0207  0.8731
21932SOL     OW66373   3.930   7.048   7.222 -0.1610 -0.3850 -0.1850
21932SOL    HW166374   3.923   6.961   7.184  1.7280  0.0305 -1.6695
21932SOL    HW266375   3.931   7.107   7.146 -0.9656  0.8983  0.7647
21933SOL     OW66376   9.637   7.796   0.713  0.5817  0.1612 -0.4052
21933SOL    HW166377   9.702   7.802   0.783  0.2579  0.2663 -0.1123
21933SOL    HW266378   9.555   7.821   0.754  0.2260 -0.6558 -0.6076
21934SOL     OW66379   1.463   5.366   5.924  0.0454  0.3605  0.2744
21934SOL    HW166380   1.554   5.389   5.945  0.0267  1.4436 -0.7056
21934SOL    HW266381   1.467   5.274   5.898  0.9658  0.5438 -0.2781
21935SOL     OW66382   0.248   8.195   5.798 -0.1764 -0.0896  0.1504
21935SOL    HW166383   0.243   8.251   5.875  0.3526  1.2201 -0.7345
21935SOL    HW266384   0.157   8.174   5.777 -0.2968 -0.9386  1.4544
21936SOL     OW66385   9.415   5.518   9.278  0.4581 -0.1530 -0.4528
21936SOL    HW166386   9.493   5.572   9.290  1.0302 -0.6583 -1.7963
21936SOL    HW266387   9.401   5.477   9.364  0.2379  1.7783  0.4876
21937SOL     OW66388   0.124   9.698   4.950 -0.0342  0.6620 -0.0237
21937SOL    HW166389   0.070   9.769   4.986 -0.5015  0.4510 -0.2960
21937SOL    HW266390   0.112   9.705   4.856 -0.8604 -0.3840 -0.0075
21938SOL     OW66391   9.069   9.159   9.411  0.4911  0.2478  0.4870
21938SOL    HW166392   8.983   9.193   9.436  0.5882  0.7289  0.1841
21938SOL    HW266393   9.091   9.208   9.331  0.6930 -0.4318  0.1170
21939SOL     OW66394   0.310   5.117   6.164  0.3830  0.2773 -0.1926
21939SOL    HW166395   0.281   5.026   6.168  1.3763 -0.1134 -1.2431
21939SOL    HW266396   0.306   5.139   6.071  1.4589  0.8501 -0.1246
21940SOL     OW66397   0.376   6.456   6.321 -0.1139 -0.2386 -0.1496
21940SOL    HW166398   0.412   6.406   6.248  0.7480  1.9465 -1.3188
21940SOL    HW266399   0.314   6.516   6.280  2.3679  2.9716  0.3432
21941SOL     OW66400   4.948   7.024   1.538  0.3101  0.4538  0.2662
21941SOL    HW166401   4.857   6.996   1.529 -0.1848  1.6054  1.3565
21941SOL    HW266402   4.992   6.949   1.578 -0.3033  0.1186  0.3269
21942SOL     OW66403   3.044   5.499   4.641 -0.5777 -0.0333 -0.0148
21942SOL    HW166404   3.037   5.411   4.603  1.2404  0.9628 -3.0376
21942SOL    HW266405   3.129   5.499   4.685  0.1697  0.5668 -1.3719
21943SOL     OW66406   5.146   1.745   6.008  0.2526  0.5817 -0.4041
21943SOL    HW166407   5.054   1.718   6.007  0.1553  0.7617  1.1000
21943SOL    HW266408   5.179   1.720   5.921  0.1773 -4.4493  0.6585
21944SOL     OW66409   6.280   1.367   4.156 -0.3827 -0.0308 -0.7385
21944SOL    HW166410   6.185   1.367   4.144 -0.6000  0.5738  0.7904
21944SOL    HW266411   6.298   1.288   4.207 -0.2485  0.5668  0.1581
21945SOL     OW66412   3.640   5.119   6.431  0.9624  0.1654 -1.3203
21945SOL    HW166413   3.712   5.181   6.418  1.9523 -0.7761 -0.5773
21945SOL    HW266414   3.678   5.050   6.487 -0.8124  0.1675 -0.0307
21946SOL     OW66415   2.431   9.129   8.805 -0.5435  0.5476  0.5792
21946SOL    HW166416   2.414   9.163   8.717  0.6156  0.9650  0.4966
21946SOL    HW266417   2.392   9.042   8.805 -1.7845  1.0746  0.1196
21947SOL     OW66418   5.186   9.325   2.497  0.0163 -0.2786  0.3020
21947SOL    HW166419   5.180   9.421   2.495 -1.3848 -0.2920  1.5809
21947SOL    HW266420   5.142   9.297   2.416  0.5956  0.1584 -0.1694
21948SOL     OW66421   7.178   2.220   3.723  0.1476 -0.0359 -0.5542
21948SOL    HW166422   7.245   2.287   3.711 -0.5776  1.5178  2.8544
21948SOL    HW266423   7.227   2.138   3.729  1.3913  0.6065 -1.4364
21949SOL     OW66424   6.807   6.895   6.975 -0.1883 -0.0502  0.0703
21949SOL    HW166425   6.864   6.963   7.012 -0.1667 -0.0356  0.0101
21949SOL    HW266426   6.866   6.823   6.952 -0.0679  0.3199 -0.8378
21950SOL     OW66427   4.116   9.722   8.452  0.0216  0.7294 -0.0720
21950SOL    HW166428   4.159   9.767   8.380  2.2339 -0.6313  0.2957
21950SOL    HW266429   4.131   9.629   8.435 -2.1478  0.2073  0.5459
21951SOL     OW66430   6.526   8.697   9.179  0.4506  0.5008  0.0788
21951SOL    HW166431   6.496   8.717   9.091 -1.6183  0.2980  0.6807
21951SOL    HW266432   6.602   8.754   9.192  0.9089  0.3988 -1.8705
21952SOL     OW66433   2.929   9.536   4.122 -0.1031  0.3665  0.3021
21952SOL    HW166434   2.884   9.538   4.037 -2.0163  2.6571  1.2580
21952SOL    HW266435   2.941   9.442   4.140 -0.9779 -0.2179 -1.7887
21953SOL     OW66436   0.254   6.238   4.955  0.0008 -0.1262  0.2963
21953SOL    HW166437   0.214   6.320   4.927  0.0846  0.3879  1.6180
21953SOL    HW266438   0.189   6.171   4.935  0.4411  0.0648 -1.9787
21954SOL     OW66439   9.711   6.374   4.618 -0.0139  0.3269 -0.4333
21954SOL    HW166440   9.629   6.372   4.570 -1.1028  0.3933  1.3500
21954SOL    HW266441   9.771   6.320   4.566 -1.3649 -0.2316 -1.4453
21955SOL     OW66442   0.397   4.301   6.680  0.3331  0.4252 -0.3228
21955SOL    HW166443   0.457   4.258   6.620  0.7579  0.1269  0.3091
21955SOL    HW266444   0.321   4.243   6.684  0.9471 -0.3335  0.6036
21956SOL     OW66445   5.489   6.230   6.792 -0.1026  0.4071  0.0741
21956SOL    HW166446   5.399   6.261   6.799 -0.5529 -0.9756  0.9791
21956SOL    HW266447   5.486   6.164   6.723  0.0030 -0.2547  0.6870
21957SOL     OW66448   6.046   0.512   4.183  0.4751  0.1012 -0.2528
21957SOL    HW166449   6.056   0.559   4.266  2.6484  0.4067 -0.6172
21957SOL    HW266450   6.114   0.444   4.186 -0.3580 -0.8084 -1.1965
21958SOL     OW66451   3.197   9.904   5.648  0.4760 -0.1876 -0.0324
21958SOL    HW166452   3.156   9.832   5.600 -4.1682  2.1428 -0.0922
21958SOL    HW266453   3.287   9.907   5.614 -0.4509 -3.0682 -3.3493
21959SOL     OW66454   0.501   4.406   9.568  0.9127 -0.1599  0.5252
21959SOL    HW166455   0.551   4.476   9.527  0.9323  0.0492  0.9002
21959SOL    HW266456   0.567   4.354   9.615  0.8167 -0.0571  0.7742
21960SOL     OW66457   8.504   5.515   5.430  0.1806 -0.2884  0.5103
21960SOL    HW166458   8.596   5.528   5.404 -0.0663 -1.2865 -1.0215
21960SOL    HW266459   8.509   5.469   5.514  1.0606  0.4727  0.8927
21961SOL     OW66460   3.258   7.284   8.041  0.3390  0.1388  0.2177
21961SOL    HW166461   3.352   7.271   8.055  0.2124  0.8166  1.8768
21961SOL    HW266462   3.216   7.215   8.092 -0.0822 -1.0188 -1.6049
21962SOL     OW66463   3.941   0.087   0.630 -0.3794  0.1524 -0.2678
21962SOL    HW166464   3.924   0.144   0.555  1.2881  0.8865 -0.1438
21962SOL    HW266465   3.934  -0.002   0.594  1.0010  0.4901 -1.4972
21963SOL     OW66466   2.318   8.154   3.789  0.6844  1.0647  0.2893
21963SOL    HW166467   2.269   8.189   3.863 -0.2921 -0.0808  0.2051
21963SOL    HW266468   2.392   8.108   3.829  0.2012  0.5125  0.5685
21964SOL     OW66469   5.120   1.328   1.699 -0.1388 -0.3960 -0.1389
21964SOL    HW166470   5.059   1.262   1.733  0.5665 -0.2537  1.4881
21964SOL    HW266471   5.093   1.410   1.740  0.3200 -0.0829 -0.4493
21965SOL     OW66472   8.230   7.681   2.332  0.4211  0.2777 -0.1525
21965SOL    HW166473   8.274   7.598   2.350  0.5619  0.2745 -0.5034
21965SOL    HW266474   8.147   7.657   2.292  0.3989  0.3009 -0.1196
21966SOL     OW66475   3.839   7.192   0.296  0.7305  0.1822 -0.1114
21966SOL    HW166476   3.746   7.172   0.297  0.3144  1.9628  0.9223
21966SOL    HW266477   3.879   7.120   0.247 -0.8916 -1.7904  1.3201
21967SOL     OW66478   6.421   4.878   4.977  0.0197 -0.3527 -0.2497
21967SOL    HW166479   6.407   4.784   4.975 -1.1758 -0.2453  1.5091
21967SOL    HW266480   6.446   4.898   5.067 -0.8847  1.1356 -0.2818
21968SOL     OW66481   5.249   1.126   8.707  0.2267 -0.2899 -0.2038
21968SOL    HW166482   5.236   1.041   8.665 -0.5266 -1.2021  1.7698
21968SOL    HW266483   5.261   1.106   8.800 -0.3037  1.7785  0.3711
21969SOL     OW66484   0.305   4.955   8.517  0.8067 -0.3607  0.3619
21969SOL    HW166485   0.229   4.984   8.567  0.7160 -0.1958  0.1327
21969SOL    HW266486   0.303   5.008   8.438  0.5159 -1.1379 -0.1688
21970SOL     OW66487   9.783   6.523   3.015 -0.1715  0.1473  0.0767
21970SOL    HW166488   9.777   6.618   3.013 -0.0319  0.2540  2.1300
21970SOL    HW266489   9.833   6.504   3.095  2.2966 -1.5859 -1.7185
21971SOL     OW66490   6.815   0.146   4.743 -1.1748  0.0198 -0.0119
21971SOL    HW166491   6.868   0.117   4.668  1.2387 -1.4193  2.0930
21971SOL    HW266492   6.798   0.238   4.726 -0.7262 -0.2551 -2.3086
21972SOL     OW66493   9.794   9.542   1.400  0.6389  0.2142  0.1412
21972SOL    HW166494   9.782   9.636   1.401 -0.8337  0.0441  0.8172
21972SOL    HW266495   9.888   9.529   1.411  0.8914  1.5928 -0.2695
21973SOL     OW66496   7.856   1.343   9.335  0.3619 -0.3250  0.0151
21973SOL    HW166497   7.903   1.407   9.389  1.8573 -1.1948 -0.1925
21973SOL    HW266498   7.924   1.305   9.279 -0.5993 -1.6547 -0.2828
21974SOL     OW66499   2.323   4.190   4.893 -0.5893 -0.5880  0.4929
21974SOL    HW166500   2.300   4.250   4.964 -0.4379  0.6739 -0.5024
21974SOL    HW266501   2.373   4.243   4.831 -0.4762 -1.7361 -0.4408
21975SOL     OW66502   3.658   1.831   0.477 -0.0614 -0.3200  0.4522
21975SOL    HW166503   3.606   1.758   0.511 -0.8529  0.0781  0.1058
21975SOL    HW266504   3.609   1.909   0.503 -1.1807 -0.0049 -2.2922
21976SOL     OW66505   4.608   4.756   9.870  0.2422 -0.5029  0.0331
21976SOL    HW166506   4.529   4.785   9.915  0.0250 -1.3035  0.1907
21976SOL    HW266507   4.579   4.735   9.781  0.2994 -0.6801  0.0559
21977SOL     OW66508   4.650   4.819   3.876 -0.3508 -0.6374  0.2356
21977SOL    HW166509   4.595   4.747   3.906 -0.1935 -0.3255  1.3324
21977SOL    HW266510   4.701   4.783   3.804  0.3783 -1.8940  1.3365
21978SOL     OW66511   0.814   7.264   3.703  0.1642 -0.3617 -0.1604
21978SOL    HW166512   0.829   7.223   3.618 -1.6951  0.1210 -0.7635
21978SOL    HW266513   0.728   7.305   3.695 -0.3617 -0.8559  2.1637
21979SOL     OW66514   4.722   8.513   5.096 -0.1258 -0.6889  0.4300
21979SOL    HW166515   4.677   8.545   5.018  1.1913  1.4216  0.4528
21979SOL    HW266516   4.807   8.482   5.063  0.3536  0.0246  0.9685
21980SOL     OW66517   7.231   4.119   8.780  0.3586 -0.0157  0.0166
21980SOL    HW166518   7.148   4.093   8.741  0.0464  1.3628 -0.2842
21980SOL    HW266519   7.207   4.149   8.868  0.7969 -1.2412  0.5839
21981SOL     OW66520   8.761   9.448   4.628 -0.1129 -0.1014  0.1994
21981SOL    HW166521   8.805   9.505   4.565  0.2940  0.9887  1.4237
21981SOL    HW266522   8.831   9.417   4.685 -0.6006 -0.3331  0.6781
21982SOL     OW66523   6.561   0.807   0.517  0.0877 -0.1694  0.9183
21982SOL    HW166524   6.649   0.787   0.549  0.7342  3.3439  1.7173
21982SOL    HW266525   6.575   0.867   0.444 -1.6269  0.9024  1.4195
21983SOL     OW66526   9.151   3.350   7.254  0.2141 -0.2461 -0.2951
21983SOL    HW166527   9.150   3.282   7.320 -1.7118  1.9139  2.0927
21983SOL    HW266528   9.243   3.377   7.249  0.1481  1.2763  3.5567
21984SOL     OW66529   9.041   4.270   8.156  0.0160  0.1882 -0.4920
21984SOL    HW166530   9.035   4.197   8.094  0.4471 -0.3352  0.0773
21984SOL    HW266531   8.955   4.271   8.198  0.6970 -1.3917  1.0374
21985SOL     OW66532   9.365   5.750   3.890  0.1475  0.0575 -0.4569
21985SOL    HW166533   9.330   5.797   3.966 -0.8533 -0.6997 -0.4314
21985SOL    HW266534   9.452   5.720   3.918 -0.1564 -0.0965  0.3505
21986SOL     OW66535   3.428   5.862   3.700 -0.5718  0.3159 -0.0443
21986SOL    HW166536   3.522   5.850   3.706 -0.4944  0.1819 -1.1500
21986SOL    HW266537   3.393   5.825   3.780  0.3237  0.5017  0.4461
21987SOL     OW66538   2.248   0.468   5.736 -0.2074  0.0727  0.3307
21987SOL    HW166539   2.338   0.475   5.705  0.0996 -1.7566  0.6480
21987SOL    HW266540   2.220   0.381   5.707 -2.1494  0.8875 -0.4164
21988SOL     OW66541   6.668   7.984   9.534  0.1578  0.3838 -0.3177
21988SOL    HW166542   6.613   8.062   9.530  0.2097  0.3721 -1.9168
21988SOL    HW266543   6.621   7.924   9.592 -0.8996  0.8278 -0.7015
21989SOL     OW66544   2.278   0.902   8.496  0.2515 -0.6892  0.1126
21989SOL    HW166545   2.353   0.924   8.551  0.9945 -2.2345 -0.2307
21989SOL    HW266546   2.316   0.872   8.414 -0.7663 -0.8834 -0.3026
21990SOL     OW66547   4.109   0.206   6.074  0.2822 -0.3539 -0.5669
21990SOL    HW166548   4.061   0.125   6.089 -0.0814  0.2993  2.3577
21990SOL    HW266549   4.041   0.274   6.073  0.8046  0.1891 -0.0566
21991SOL     OW66550   9.029   4.670   0.206 -0.1803 -0.3342  0.5363
21991SOL    HW166551   8.974   4.595   0.230 -0.5490  0.2569  1.5644
21991SOL    HW266552   9.077   4.691   0.286  0.2930  0.2207  0.1115
21992SOL     OW66553   2.393   4.133   6.950 -0.5338 -0.1924  0.1022
21992SOL    HW166554   2.363   4.046   6.924 -0.7985  0.4903 -1.9855
21992SOL    HW266555   2.370   4.139   7.043 -2.2649 -1.6096 -0.1899
21993SOL     OW66556   3.091   0.681   5.705  0.2379 -0.4964  0.2479
21993SOL    HW166557   3.178   0.719   5.691 -0.4113  1.2137  0.6253
21993SOL    HW266558   3.059   0.662   5.617  0.8428 -0.7913  0.0843
21994SOL     OW66559   2.954   5.374   3.593  0.0889  0.7320  0.3628
21994SOL    HW166560   2.971   5.290   3.552 -0.9094  0.6208  0.1473
21994SOL    HW266561   3.001   5.370   3.677  0.6254  0.2469  0.0404
21995SOL     OW66562   0.301   9.135   1.959 -0.2897 -0.4264  0.3876
21995SOL    HW166563   0.368   9.067   1.959  0.1809 -0.0044  2.2077
21995SOL    HW266564   0.337   9.204   2.014 -2.2850 -0.2458  1.5492
21996SOL     OW66565   5.561   5.555   5.395  0.5275  0.2692 -0.0688
21996SOL    HW166566   5.531   5.465   5.380 -2.4959  1.3806 -1.5975
21996SOL    HW266567   5.640   5.564   5.343  0.8250 -1.4449  0.0238
21997SOL     OW66568   0.019   3.621   6.235  0.4682 -0.0456 -0.2811
21997SOL    HW166569  -0.026   3.559   6.291  2.5885 -1.0314  0.4351
21997SOL    HW266570   0.048   3.569   6.160 -0.0103  0.6848 -0.9916
21998SOL     OW66571   8.894   1.744   7.569  0.1029  0.5890 -0.1657
21998SOL    HW166572   8.955   1.704   7.630  0.8845  0.1282 -1.2193
21998SOL    HW266573   8.815   1.689   7.573  0.5055 -0.0035 -0.2695
21999SOL     OW66574   4.735   8.404   0.489 -0.3481  0.0838 -0.5699
21999SOL    HW166575   4.764   8.329   0.541 -0.6064 -0.0955 -0.6801
21999SOL    HW266576   4.731   8.370   0.399 -1.6450 -0.1128 -0.4462
22000SOL     OW66577   0.608   2.856   1.485 -0.2947  0.1513 -0.0827
22000SOL    HW166578   0.566   2.850   1.571  0.4390 -1.5939  0.1892
22000SOL    HW266579   0.598   2.769   1.447 -0.5166  0.8640 -1.7476
22001SOL     OW66580   3.141   7.058   5.659  0.0444  0.3276  0.8943
22001SOL    HW166581   3.227   7.090   5.687  1.3286 -0.9477 -1.2677
22001SOL    HW266582   3.126   6.979   5.711  1.4351 -0.8724 -0.4401
22002SOL     OW66583   7.870   5.055   2.225 -0.0855 -0.0151  0.6110
22002SOL    HW166584   7.819   5.088   2.150 -2.4188 -1.3634  1.4898
22002SOL    HW266585   7.920   5.131   2.256 -0.4544  1.0197 -1.1898
22003SOL     OW66586   3.015   4.257   8.236  0.6724  0.2351  0.4393
22003SOL    HW166587   2.986   4.331   8.183  2.8642  0.4974 -0.5135
22003SOL    HW266588   2.996   4.284   8.326 -1.2498  0.6424 -0.0378
22004SOL     OW66589   8.677   1.410   7.906  0.1117 -0.2309  0.4750
22004SOL    HW166590   8.704   1.471   7.837 -1.8344 -0.4344 -0.5420
22004SOL    HW266591   8.632   1.466   7.970  0.0025 -0.3301  0.4857
22005SOL     OW66592   9.788   5.381   7.157  0.0724  0.0122 -0.8083
22005SOL    HW166593   9.765   5.377   7.250  1.7744 -0.3596 -0.3531
22005SOL    HW266594   9.733   5.315   7.115  0.7340 -1.3124  0.3141
22006SOL     OW66595   5.187   8.706   2.356 -0.0056 -0.7622  0.3242
22006SOL    HW166596   5.192   8.727   2.263 -0.8114 -0.1798  0.3990
22006SOL    HW266597   5.202   8.611   2.360 -0.5610 -0.8984 -0.4680
22007SOL     OW66598   6.700   6.000   0.997  0.2956 -0.2173 -0.5877
22007SOL    HW166599   6.614   6.024   1.031 -0.3281 -0.7172 -1.7580
22007SOL    HW266600   6.753   6.078   1.007 -0.3625  0.1725 -0.0747
22008SOL     OW66601   3.797   8.061   1.142 -0.5697 -0.6558 -0.1280
22008SOL    HW166602   3.889   8.082   1.157 -0.7812  0.9426 -0.8468
22008SOL    HW266603   3.797   8.009   1.061 -0.2948 -0.6467 -0.1346
22009SOL     OW66604   7.491   7.492   3.694 -0.1264  0.5488 -1.1148
22009SOL    HW166605   7.408   7.488   3.647 -0.7312  3.6057 -0.4912
22009SOL    HW266606   7.475   7.550   3.768  0.9642 -3.4045  2.6581
22010SOL     OW66607   8.768   4.675   2.709 -0.3793  0.2549  0.5303
22010SOL    HW166608   8.691   4.732   2.703 -2.0831 -1.8339  1.4197
22010SOL    HW266609   8.775   4.635   2.622  1.1250  2.0517 -0.2598
22011SOL     OW66610   5.958   4.155   7.426 -0.2279 -0.3244 -0.1308
22011SOL    HW166611   5.955   4.084   7.362 -1.2234 -0.9461  0.5753
22011SOL    HW266612   6.043   4.145   7.469 -0.8677 -1.9423  0.8637
22012SOL     OW66613   9.488   9.471   4.331  0.2266 -0.5319 -0.2542
22012SOL    HW166614   9.471   9.377   4.320  0.7441 -0.6695  0.0847
22012SOL    HW266615   9.552   9.491   4.263 -0.5211 -0.2238 -0.8943
22013SOL     OW66616   8.987   7.559   5.916 -0.5600 -0.2140 -0.1147
22013SOL    HW166617   9.046   7.612   5.969 -1.5903  1.5141 -0.6160
22013SOL    HW266618   9.033   7.476   5.906  1.9920  1.1668 -0.8452
22014SOL     OW66619   1.572   7.392   0.229  0.0201  0.2813  0.2249
22014SOL    HW166620   1.652   7.362   0.273  0.8965  2.3593  0.1637
22014SOL    HW266621   1.562   7.333   0.154  0.2664 -1.3369  1.3854
22015SOL     OW66622   3.243   7.202   0.805 -0.0574 -0.7260 -0.6826
22015SOL    HW166623   3.162   7.253   0.814 -0.6727 -1.7397 -0.3814
22015SOL    HW266624   3.218   7.112   0.826  1.1978 -1.0226 -0.3360
22016SOL     OW66625   4.022   3.499   9.749  0.6449  0.3553 -0.5369
22016SOL    HW166626   4.036   3.459   9.663  0.2042  0.1070 -0.5006
22016SOL    HW266627   4.096   3.558   9.761  0.2067  1.1478 -1.5316
22017SOL     OW66628   9.854   8.945   1.490  0.1897 -0.3227 -0.5790
22017SOL    HW166629   9.849   8.955   1.585  2.1044 -1.2991 -0.3163
22017SOL    HW266630   9.906   9.019   1.460 -1.4087  0.6410 -1.0502
22018SOL     OW66631   9.387   7.616   7.871  0.0532  0.5998 -0.0087
22018SOL    HW166632   9.309   7.560   7.867 -1.0810  2.1244 -0.5433
22018SOL    HW266633   9.442   7.585   7.799  1.7087 -2.7818  2.4148
22019SOL     OW66634   2.658   4.035   1.484 -0.8159  0.2227  0.0629
22019SOL    HW166635   2.638   4.129   1.486 -0.9212  0.2256 -0.9161
22019SOL    HW266636   2.657   4.009   1.576 -2.4871  0.8273  0.2478
22020SOL     OW66637   7.284   2.540   5.594 -0.5270  0.3584 -0.5468
22020SOL    HW166638   7.259   2.611   5.536 -1.0254  0.3927 -0.2951
22020SOL    HW266639   7.244   2.562   5.678 -1.5052 -0.6872 -0.7030
22021SOL     OW66640   4.432   4.279   4.997 -0.1064 -0.1424 -0.1121
22021SOL    HW166641   4.367   4.215   5.026  0.2203 -0.6294 -0.4339
22021SOL    HW266642   4.383   4.361   4.987 -0.7174 -0.5533 -0.5750
22022SOL     OW66643   0.710   2.191   6.416 -0.8733 -0.5329 -0.0904
22022SOL    HW166644   0.653   2.152   6.349 -1.8473  0.8297 -0.0999
22022SOL    HW266645   0.798   2.181   6.381 -1.3456 -0.0370 -1.5151
22023SOL     OW66646   2.509   4.410   2.300  0.5692  0.5759  0.0951
22023SOL    HW166647   2.459   4.490   2.289  0.2110  0.3600  0.1158
22023SOL    HW266648   2.563   4.425   2.377 -1.3588 -0.1134  1.6744
22024SOL     OW66649   6.319   2.928   7.184  0.3557 -0.1558  0.6439
22024SOL    HW166650   6.358   2.878   7.112  0.4459 -0.9055  1.1954
22024SOL    HW266651   6.229   2.896   7.190  0.2617  0.1124  0.6834
22025SOL     OW66652   5.978   2.456   4.628  0.6049 -0.5434  0.0587
22025SOL    HW166653   5.898   2.450   4.680  1.5630 -1.3084  1.5304
22025SOL    HW266654   5.949   2.441   4.538 -1.1821  1.3227  0.2491
22026SOL     OW66655   3.098   1.748   0.180 -0.5589 -0.2535  0.0067
22026SOL    HW166656   3.093   1.755   0.275  1.6183  3.1978  0.0525
22026SOL    HW266657   3.179   1.701   0.163 -1.9693 -2.7345 -0.2575
22027SOL     OW66658   1.224   5.530   9.519 -0.1821  0.4059 -0.0243
22027SOL    HW166659   1.271   5.463   9.570  1.5634  1.3739 -0.2982
22027SOL    HW266660   1.259   5.521   9.430  0.3771  1.9203  0.0227
22028SOL     OW66661   3.496   4.730   1.435  0.5837  0.9556 -0.6944
22028SOL    HW166662   3.516   4.689   1.520 -0.0724  2.1498  0.0730
22028SOL    HW266663   3.511   4.661   1.371 -2.1381 -1.1158  0.6446
22029SOL     OW66664   2.961   4.042   5.646 -0.1259  0.6243  0.3057
22029SOL    HW166665   2.951   4.117   5.588  0.3095 -0.3565 -1.0941
22029SOL    HW266666   3.031   4.067   5.706  0.9399  0.8861 -0.9829
22030SOL     OW66667   1.063   5.615   2.530 -0.3106 -0.3634 -0.0773
22030SOL    HW166668   1.019   5.617   2.615 -0.1976  0.7144 -0.0280
22030SOL    HW266669   1.112   5.533   2.530  1.0751  0.3989  1.6263
22031SOL     OW66670   3.306   6.485   0.838 -0.0871 -0.1183  0.5587
22031SOL    HW166671   3.280   6.534   0.916  0.5818  0.6574  0.3028
22031SOL    HW266672   3.363   6.416   0.871 -1.3335 -0.9791  0.9636
22032SOL     OW66673   2.676   9.570   1.047  0.1690 -0.2431 -0.2828
22032SOL    HW166674   2.586   9.580   1.017  0.1648  1.9753  0.2906
22032SOL    HW266675   2.674   9.495   1.106 -0.9836 -1.0839 -1.3424
22033SOL     OW66676   5.339   2.913   9.557  0.6197 -0.1408 -0.1474
22033SOL    HW166677   5.328   2.857   9.634  1.9531 -0.4810 -0.1848
22033SOL    HW266678   5.408   2.975   9.581 -0.2289  0.9478 -0.4251
22034SOL     OW66679   4.125   8.938   6.948  0.0482  0.5952  0.1694
22034SOL    HW166680   4.163   9.018   6.983 -0.9504  0.5210  1.5032
22034SOL    HW266681   4.187   8.869   6.972  1.2920  1.0238 -1.6456
22035SOL     OW66682   3.485   6.503   0.187  0.2723 -0.4709  0.5567
22035SOL    HW166683   3.447   6.552   0.259 -1.5786 -0.8335 -0.1359
22035SOL    HW266684   3.564   6.463   0.225  0.6704  1.2863  1.6918
22036SOL     OW66685   6.092   6.288   9.664  0.0795  0.7848 -0.2545
22036SOL    HW166686   6.135   6.230   9.727 -0.2310  0.3029 -0.4798
22036SOL    HW266687   6.157   6.302   9.596 -0.2427 -0.2507 -0.7868
22037SOL     OW66688   1.338   0.145   8.303 -0.0802  1.0800 -0.0801
22037SOL    HW166689   1.329   0.067   8.248  1.7455  0.0468  0.9532
22037SOL    HW266690   1.274   0.207   8.269 -0.9922 -0.5550 -1.5004
22038SOL     OW66691   2.103   9.029   1.154 -0.2355 -0.3277  0.0088
22038SOL    HW166692   2.093   8.950   1.101  2.4099  1.1114 -3.0115
22038SOL    HW266693   2.020   9.077   1.143 -1.0124 -1.6371  0.0336
22039SOL     OW66694   9.738   2.322   3.026 -0.4731  0.5126 -0.3403
22039SOL    HW166695   9.760   2.303   2.935  0.0780  0.5191 -0.2121
22039SOL    HW266696   9.773   2.409   3.042 -0.6316  0.5414 -0.1409
22040SOL     OW66697   7.749   4.780   9.669 -0.2666  0.0707  0.7957
22040SOL    HW166698   7.754   4.728   9.749 -0.8060  1.5940  1.8747
22040SOL    HW266699   7.656   4.781   9.647 -0.1277 -0.2891  0.1795
22041SOL     OW66700   4.501   2.115   2.240  0.4175  0.0515 -0.1795
22041SOL    HW166701   4.429   2.135   2.300 -0.8551 -3.3546 -0.3103
22041SOL    HW266702   4.517   2.196   2.193  0.2063  2.3821  3.3962
22042SOL     OW66703   1.706   2.828   8.903  0.2588 -0.1643 -0.3441
22042SOL    HW166704   1.617   2.859   8.921  0.6855 -0.1095  2.0885
22042SOL    HW266705   1.737   2.885   8.834 -1.3488  0.2883 -0.7497
22043SOL     OW66706   8.388   5.012   3.740 -0.0001 -0.7313 -0.2214
22043SOL    HW166707   8.470   5.045   3.703 -0.1826 -0.2428 -0.1970
22043SOL    HW266708   8.398   5.025   3.834 -0.5561  0.4089 -0.2939
22044SOL     OW66709   1.354   9.457   1.422  0.1204 -0.0399  0.1309
22044SOL    HW166710   1.316   9.400   1.489 -2.2242  1.5458  0.2759
22044SOL    HW266711   1.446   9.464   1.445 -0.1947 -1.1994  1.9576
22045SOL     OW66712   1.304   6.362   2.746  0.0835  0.0838  0.0241
22045SOL    HW166713   1.286   6.446   2.704  0.1112 -0.6253 -1.4891
22045SOL    HW266714   1.294   6.298   2.675 -0.1716 -1.2101  1.1987
22046SOL     OW66715   2.322   6.654   2.646  0.5507 -0.2352 -0.3933
22046SOL    HW166716   2.246   6.613   2.687 -0.7542  1.1590 -1.3128
22046SOL    HW266717   2.287   6.697   2.568  2.2301  0.6922 -0.6848
22047SOL     OW66718   1.524   6.101   7.131 -0.0298 -0.2292 -0.0163
22047SOL    HW166719   1.473   6.020   7.135 -1.4497  0.6359 -0.0392
22047SOL    HW266720   1.482   6.160   7.193  0.0905  0.9755 -1.0290
22048SOL     OW66721   1.136   9.321   5.464  0.6015  0.2503  0.2435
22048SOL    HW166722   1.058   9.340   5.411  1.3813 -1.9217 -1.8922
22048SOL    HW266723   1.198   9.390   5.440  0.4363  0.1115 -0.6320
22049SOL     OW66724   7.131   0.556   3.711  0.1563  0.5054 -0.3093
22049SOL    HW166725   7.130   0.561   3.807 -2.4706  0.4684 -0.2621
22049SOL    HW266726   7.117   0.463   3.693 -1.2092  0.7559 -0.6686
22050SOL     OW66727   6.631   7.455   3.538  0.2623 -0.1657  0.2417
22050SOL    HW166728   6.714   7.449   3.586 -0.7522 -0.7635  2.0144
22050SOL    HW266729   6.620   7.548   3.520  0.1791  0.2215  2.1295
22051SOL     OW66730   1.761   1.347   9.903 -0.2698  0.2797 -0.2294
22051SOL    HW166731   1.783   1.365   9.995  2.7021 -0.4300 -0.6774
22051SOL    HW266732   1.666   1.344   9.901 -0.4836 -1.9400  3.3035
22052SOL     OW66733   4.491   8.741   9.474  0.0483 -0.2668  0.4396
22052SOL    HW166734   4.546   8.662   9.481  0.1482 -0.1505  1.0301
22052SOL    HW266735   4.458   8.754   9.563 -1.2717 -0.5717  0.0090
22053SOL     OW66736   9.365   8.438   8.070  0.2830  0.4972  0.2602
22053SOL    HW166737   9.321   8.487   8.000  0.7320 -0.4802 -0.7396
22053SOL    HW266738   9.309   8.450   8.146 -0.9058  0.5494 -0.5877
22054SOL     OW66739   4.458   1.033   5.045 -0.6526 -0.9452 -0.2283
22054SOL    HW166740   4.471   1.103   5.108 -1.8695  0.6121 -1.6145
22054SOL    HW266741   4.499   0.956   5.085  0.8477  0.5613  1.2812
22055SOL     OW66742   3.569   1.147   3.368 -0.1009 -0.1054  0.0083
22055SOL    HW166743   3.496   1.120   3.424 -0.5067  1.3635  0.2577
22055SOL    HW266744   3.528   1.203   3.302  0.4454 -1.4015 -1.4800
22056SOL     OW66745   0.338   0.563   3.620 -0.4908 -0.1158 -0.6117
22056SOL    HW166746   0.262   0.541   3.566 -0.0553 -1.0555 -0.8597
22056SOL    HW266747   0.313   0.540   3.709 -1.2631  1.5648 -0.3470
22057SOL     OW66748   5.338   8.322   8.327  0.6497 -0.5193  0.0542
22057SOL    HW166749   5.290   8.335   8.409  2.2794  2.7905  0.6327
22057SOL    HW266750   5.416   8.274   8.352  0.2315 -1.2371  0.0310
22058SOL     OW66751   4.813   2.808   2.846 -0.1413 -0.2249 -0.2953
22058SOL    HW166752   4.826   2.901   2.862  0.3853 -0.2037 -0.8046
22058SOL    HW266753   4.731   2.787   2.891  0.6254  0.0874  1.3222
22059SOL     OW66754   3.083   0.555   1.923  0.7005 -0.3116  0.2217
22059SOL    HW166755   3.052   0.637   1.961  0.3392 -0.1893 -0.3268
22059SOL    HW266756   3.150   0.581   1.860 -0.6363 -0.2756 -1.2388
22060SOL     OW66757   0.284   7.317   5.597  0.0780  0.2833  0.8218
22060SOL    HW166758   0.344   7.258   5.553  0.2195 -0.0963  1.5160
22060SOL    HW266759   0.339   7.388   5.629 -0.1023  0.8451 -0.0786
22061SOL     OW66760   3.626   8.203   2.648 -0.2394 -0.5511 -0.1464
22061SOL    HW166761   3.664   8.288   2.626  2.7991 -1.7544 -0.1146
22061SOL    HW266762   3.624   8.156   2.564 -2.2467 -0.3936 -0.2355
22062SOL     OW66763   7.564   5.500   8.684  0.2830  0.2260 -0.0253
22062SOL    HW166764   7.627   5.541   8.624 -0.4670  0.9011 -0.3604
22062SOL    HW266765   7.482   5.545   8.668  0.5952  2.4300  3.4104
22063SOL     OW66766   9.943   8.126   2.625  0.0631 -0.1940 -0.5003
22063SOL    HW166767   9.872   8.065   2.645  0.9866 -1.8694 -2.0270
22063SOL    HW266768   9.899   8.199   2.580 -1.5069  1.9414  3.9428
22064SOL     OW66769   9.112   5.140   7.208 -0.4086  0.1682 -0.3692
22064SOL    HW166770   9.053   5.073   7.244  0.6244 -0.0715  0.9569
22064SOL    HW266771   9.154   5.097   7.133 -1.5814  0.2061 -1.0792
22065SOL     OW66772   3.983   8.838   1.577 -0.0472 -0.1047 -0.5572
22065SOL    HW166773   4.007   8.870   1.664  0.7473 -0.3362 -0.6857
22065SOL    HW266774   4.018   8.904   1.517  2.0487 -1.3762 -0.8565
22066SOL     OW66775   4.260   0.691   4.755 -0.0953 -0.6144  0.6945
22066SOL    HW166776   4.236   0.613   4.705  2.9314 -0.1543 -1.7867
22066SOL    HW266777   4.348   0.672   4.787  0.5912  1.6293  0.2799
22067SOL     OW66778   8.405   1.308   8.507 -0.2148 -0.1701  0.4304
22067SOL    HW166779   8.363   1.236   8.555 -0.5719 -0.6715 -0.6208
22067SOL    HW266780   8.422   1.272   8.420  1.1076  0.4957  0.3913
22068SOL     OW66781   4.442   0.189   4.528  0.5332  0.2581 -0.2279
22068SOL    HW166782   4.531   0.196   4.492  0.9728 -1.3870  0.4418
22068SOL    HW266783   4.447   0.232   4.613  0.8870 -0.4159  0.1008
22069SOL     OW66784   9.791   8.284   3.925 -0.2004  0.0113 -0.6959
22069SOL    HW166785   9.719   8.221   3.928  2.4790 -3.7105 -3.8530
22069SOL    HW266786   9.832   8.276   4.011 -1.6724 -0.1774  0.0338
22070SOL     OW66787   2.180   2.605   3.252 -0.2162  0.1434 -0.4599
22070SOL    HW166788   2.143   2.530   3.205  1.4376  1.2285 -3.8225
22070SOL    HW266789   2.181   2.675   3.187  1.6884  2.0212  1.4441
22071SOL     OW66790   5.225   3.931   2.375 -0.1580  0.3626  0.0167
22071SOL    HW166791   5.241   3.872   2.301  1.6018 -0.8770  1.2926
22071SOL    HW266792   5.141   3.903   2.410 -1.2148  1.2411 -1.7157
22072SOL     OW66793   0.466   0.398   7.755  0.5282  0.3550 -0.1756
22072SOL    HW166794   0.444   0.305   7.752 -1.3883  0.7758 -0.3250
22072SOL    HW266795   0.559   0.401   7.733  0.2799 -1.3962 -1.7621
22073SOL     OW66796   7.647   0.087   9.230 -0.1609  0.0111 -0.5605
22073SOL    HW166797   7.714   0.146   9.264 -1.0761 -0.5145  2.4355
22073SOL    HW266798   7.695   0.029   9.170  1.8962  0.2336  0.7712
22074SOL     OW66799   1.545   8.524   8.242 -0.3105 -1.1619 -0.0443
22074SOL    HW166800   1.624   8.516   8.188 -0.0786  0.2870  0.0324
22074SOL    HW266801   1.494   8.446   8.222  0.2622 -1.1814 -1.5528
22075SOL     OW66802   8.807   5.300   9.567 -0.6627  0.3164  0.2013
22075SOL    HW166803   8.809   5.363   9.496  1.5836  2.4999  2.0292
22075SOL    HW266804   8.863   5.228   9.537 -0.5142  0.7669 -0.6177
22076SOL     OW66805   7.197   1.077   7.732  0.3555 -0.6020  0.0581
22076SOL    HW166806   7.154   1.163   7.739 -0.7807 -1.0237 -1.2275
22076SOL    HW266807   7.243   1.081   7.648  0.6927 -1.0872  0.2217
22077SOL     OW66808   8.048   1.840   6.312 -0.0439 -0.5838 -0.4275
22077SOL    HW166809   8.053   1.931   6.342  1.9286 -0.8391  0.1562
22077SOL    HW266810   8.134   1.823   6.273  0.1437 -2.6376  0.7707
22078SOL     OW66811   4.696   3.986   6.694  0.0456 -0.3151  0.4765
22078SOL    HW166812   4.726   4.046   6.626  0.4424 -0.8544  0.1713
22078SOL    HW266813   4.640   4.040   6.750 -0.9080 -0.0335 -0.6997
22079SOL     OW66814   9.551   2.960   4.640  0.1089 -0.0753 -0.1817
22079SOL    HW166815   9.582   2.938   4.727 -3.9872 -0.9450  1.3076
22079SOL    HW266816   9.549   3.056   4.639  0.8824 -0.0451  0.3605
22080SOL     OW66817   4.337   8.544   3.475 -0.0093  0.1558  0.0518
22080SOL    HW166818   4.400   8.615   3.460 -1.5593  1.9259  1.4257
22080SOL    HW266819   4.370   8.499   3.552  0.8301 -0.4847 -0.6580
22081SOL     OW66820   1.258   2.724   2.300  0.3432 -0.4766 -0.0181
22081SOL    HW166821   1.301   2.808   2.319 -0.4130 -0.2337  0.6624
22081SOL    HW266822   1.185   2.747   2.243 -0.0156 -0.6330  0.3743
22082SOL     OW66823   2.475   7.763   1.468  0.1582 -0.2396 -0.4199
22082SOL    HW166824   2.529   7.701   1.419  1.7969  0.9868 -0.2237
22082SOL    HW266825   2.404   7.785   1.408  0.1499 -1.4721 -0.8866
22083SOL     OW66826   4.485   8.819   1.914 -0.1461  0.0888 -0.3363
22083SOL    HW166827   4.512   8.770   1.992  0.2261 -0.4323 -0.7865
22083SOL    HW266828   4.404   8.863   1.940  0.9794  1.4939  0.9770
22084SOL     OW66829   0.886   1.230   6.848  0.2422 -0.4124  0.8748
22084SOL    HW166830   0.907   1.299   6.785 -0.3878 -0.7307  0.2977
22084SOL    HW266831   0.829   1.171   6.799 -0.0248 -0.8144  1.6669
22085SOL     OW66832   7.532   1.512   4.673  0.3829 -1.0558  0.8044
22085SOL    HW166833   7.592   1.579   4.705  1.1475 -0.6052 -1.4242
22085SOL    HW266834   7.452   1.559   4.653 -0.0463 -1.3141  1.8462
22086SOL     OW66835   2.016   0.814   7.226 -0.4778 -0.1188 -0.7400
22086SOL    HW166836   1.956   0.869   7.176 -0.8508  2.0330  1.9138
22086SOL    HW266837   1.978   0.809   7.313  2.3503 -0.0393  0.5899
22087SOL     OW66838   0.798   7.980   2.629  0.0911  0.1495  0.3579
22087SOL    HW166839   0.780   8.034   2.552 -0.0713 -0.3265  0.0567
22087SOL    HW266840   0.882   7.937   2.611 -0.4468 -0.7786 -0.0328
22088SOL     OW66841   4.652   3.691   6.425 -0.3121  0.3776  0.1714
22088SOL    HW166842   4.603   3.610   6.415 -0.5117  0.3236  1.4348
22088SOL    HW266843   4.668   3.721   6.335 -2.9266  0.5661 -0.3041
22089SOL     OW66844   3.602   2.318   9.977 -0.5408 -0.8452 -0.1464
22089SOL    HW166845   3.573   2.367   9.899 -0.6306 -0.4772  0.1159
22089SOL    HW266846   3.691   2.290   9.956  0.1167  0.7615  0.2979
22090SOL     OW66847   2.869   3.943   5.928  0.0031  0.2641 -0.2075
22090SOL    HW166848   2.860   3.965   5.836 -0.7934 -1.4089 -0.5808
22090SOL    HW266849   2.879   4.027   5.973 -1.2654  1.2332 -1.6397
22091SOL     OW66850   7.714   4.712   2.724 -0.6425  0.2040  0.6496
22091SOL    HW166851   7.795   4.757   2.750 -0.4264  0.2982 -0.1811
22091SOL    HW266852   7.738   4.619   2.724 -0.0896  0.3157 -1.0600
22092SOL     OW66853   1.507   0.049   7.076  0.4049  0.0603  0.0605
22092SOL    HW166854   1.519   0.134   7.120  0.0560  0.1164  0.0497
22092SOL    HW266855   1.457   0.070   6.997 -0.2951 -0.2570  0.4192
22093SOL     OW66856   2.824   0.116   3.315 -0.0822 -0.5858 -0.3197
22093SOL    HW166857   2.818   0.205   3.350  0.2394 -0.9518  0.6860
22093SOL    HW266858   2.915   0.109   3.285  0.4490 -1.1705  1.3075
22094SOL     OW66859   5.644   6.506   5.175 -0.2048 -0.5251 -0.0560
22094SOL    HW166860   5.722   6.450   5.182  0.6665  0.7759  1.2991
22094SOL    HW266861   5.679   6.594   5.166 -1.5184  0.1688  1.3173
22095SOL     OW66862   9.199   5.418   1.287  0.2786  0.4557  0.0591
22095SOL    HW166863   9.261   5.362   1.333 -0.2226  0.1911  0.4279
22095SOL    HW266864   9.186   5.376   1.202 -0.2198 -0.0824  0.3963
22096SOL     OW66865   3.864   1.969   8.108 -0.2793  0.5123 -0.0461
22096SOL    HW166866   3.799   2.039   8.112 -0.6919  0.2473 -1.5423
22096SOL    HW266867   3.858   1.927   8.194 -1.1112  1.3545  0.3276
22097SOL     OW66868   5.723   1.654   9.225 -0.0189  0.2100  0.4785
22097SOL    HW166869   5.804   1.675   9.179 -0.4749 -0.5235 -0.7083
22097SOL    HW266870   5.750   1.613   9.306  0.7951 -0.5254 -0.1544
22098SOL     OW66871   8.106   2.430   5.529 -0.4777 -0.0338  0.2345
22098SOL    HW166872   8.162   2.364   5.569 -0.8622  0.1641  1.1200
22098SOL    HW266873   8.096   2.498   5.596  0.2955  1.1679 -0.8220
22099SOL     OW66874   5.549   0.440   5.915 -0.0273  0.4639  0.0231
22099SOL    HW166875   5.539   0.380   5.841  0.9236 -0.5579  0.6751
22099SOL    HW266876   5.469   0.427   5.967 -0.0153  0.0518 -0.0542
22100SOL     OW66877   0.834   0.868   4.261  0.7630  0.0144 -0.0713
22100SOL    HW166878   0.822   0.892   4.169 -0.8823 -0.7205 -0.0800
22100SOL    HW266879   0.780   0.790   4.272 -0.4830  1.0916  1.9445
22101SOL     OW66880   8.798   1.675   2.266 -0.2055  0.1040  0.3110
22101SOL    HW166881   8.710   1.710   2.256  0.3218  1.1893 -0.7892
22101SOL    HW266882   8.795   1.590   2.221 -0.6633  0.1674  0.2116
22102SOL     OW66883   3.637   4.006   1.863 -0.0076 -0.7340  0.3891
22102SOL    HW166884   3.677   3.999   1.950 -0.1791 -0.0468  0.5298
22102SOL    HW266885   3.664   4.093   1.832 -0.7779 -0.5635  0.1827
22103SOL     OW66886   6.555   5.939   7.761 -0.1437 -0.2276  0.8078
22103SOL    HW166887   6.574   5.846   7.754 -2.7896 -0.8140  0.1643
22103SOL    HW266888   6.518   5.963   7.676  0.1598  1.3192  1.0770
22104SOL     OW66889   7.547   1.359   4.927 -0.3369 -0.6776  0.3222
22104SOL    HW166890   7.617   1.293   4.923  3.4123  2.8229  0.6706
22104SOL    HW266891   7.537   1.389   4.837  1.1089  0.9745  0.6412
22105SOL     OW66892   2.457   4.363   3.526 -0.6758 -0.2881  0.2845
22105SOL    HW166893   2.377   4.386   3.480 -0.2148  1.5369  0.3266
22105SOL    HW266894   2.475   4.438   3.582  0.5999 -1.0349  0.9247
22106SOL     OW66895   8.727   2.929   5.004  0.3138  0.2863  0.1221
22106SOL    HW166896   8.673   2.890   4.935  1.9014 -0.5240 -0.7002
22106SOL    HW266897   8.682   2.906   5.085 -2.0024  1.8815 -0.5873
22107SOL     OW66898   9.170   5.464   3.470  0.0434 -0.1177 -0.0333
22107SOL    HW166899   9.084   5.506   3.476  0.1146 -0.0411  0.5179
22107SOL    HW266900   9.230   5.527   3.511  0.2723 -0.4133  0.0891
22108SOL     OW66901   6.534   2.770   9.559  0.5464  0.0818  0.2358
22108SOL    HW166902   6.526   2.834   9.489 -0.7138  0.9937  1.1660
22108SOL    HW266903   6.473   2.700   9.536 -0.8497  0.9932  1.0122
22109SOL     OW66904   6.795   9.425   3.070  0.1996  0.2070  0.7204
22109SOL    HW166905   6.740   9.378   3.007 -0.7603 -2.3051  3.2154
22109SOL    HW266906   6.734   9.474   3.124  0.6726 -0.1452  1.6024
22110SOL     OW66907   6.582   0.895   8.045 -0.4975  0.1317  0.0399
22110SOL    HW166908   6.634   0.926   8.119 -0.9940  0.7429  0.1424
22110SOL    HW266909   6.524   0.828   8.082 -0.3435  0.0270  0.0895
22111SOL     OW66910   7.876   5.578   7.940 -0.0355  0.1512  0.2491
22111SOL    HW166911   7.864   5.490   7.973 -1.3044  0.0917 -0.3162
22111SOL    HW266912   7.892   5.632   8.017  2.5070 -0.7987  0.4794
22112SOL     OW66913   7.573   9.998   0.259  0.1658  0.6427 -0.1466
22112SOL    HW166914   7.529   9.914   0.246 -0.6649  1.1603 -0.7749
22112SOL    HW266915   7.650   9.993   0.202  0.9138 -0.2376  0.9019
22113SOL     OW66916   3.506   7.920   3.216  0.6170  0.6037 -0.8071
22113SOL    HW166917   3.471   7.867   3.288 -0.9708  1.8220 -0.6131
22113SOL    HW266918   3.460   7.887   3.138  1.3026  0.2134 -1.0561
22114SOL     OW66919   6.479   3.929   0.691 -0.2563 -0.6783  0.2608
22114SOL    HW166920   6.490   3.862   0.758  0.2804 -0.3220  0.5350
22114SOL    HW266921   6.404   3.981   0.721 -0.7649 -1.2318 -0.0264
22115SOL     OW66922   8.026   9.893   4.696 -0.2163  0.4560 -0.2218
22115SOL    HW166923   7.968   9.861   4.626 -0.6147  0.2798  0.1856
22115SOL    HW266924   8.060   9.976   4.662 -1.7661  1.2502  0.0818
22116SOL     OW66925   6.587   9.414   3.304  0.0865  0.1481  0.6178
22116SOL    HW166926   6.631   9.406   3.389  1.9025 -0.9622 -0.3437
22116SOL    HW266927   6.515   9.474   3.320 -0.4061 -0.9718  3.2375
22117SOL     OW66928   6.135   5.766   6.449  0.3370  0.5638  0.8375
22117SOL    HW166929   6.098   5.775   6.537  0.0973  0.5038  0.7449
22117SOL    HW266930   6.165   5.675   6.445 -0.9745  0.1261  0.3618
22118SOL     OW66931   0.621   6.885   4.733 -0.0808 -0.2863  0.1479
22118SOL    HW166932   0.540   6.846   4.699  0.9313 -1.4970 -0.9892
22118SOL    HW266933   0.649   6.947   4.666  0.2211 -0.2852  0.2711
22119SOL     OW66934   7.190   4.425   5.971 -0.0929  0.3646 -0.2664
22119SOL    HW166935   7.162   4.516   5.968  0.8197  0.6932  0.8115
22119SOL    HW266936   7.233   4.415   6.056 -2.1932 -1.6741  0.6598
22120SOL     OW66937   8.593   6.236   2.033  0.2087  0.3073  0.3853
22120SOL    HW166938   8.521   6.261   1.975  0.9029  2.0445  0.2165
22120SOL    HW266939   8.552   6.179   2.099 -0.7893 -0.8414 -1.1559
22121SOL     OW66940   9.803   9.016   2.417  0.0570 -0.2433  0.0351
22121SOL    HW166941   9.807   9.007   2.512 -0.6177 -0.4408  0.0455
22121SOL    HW266942   9.863   9.088   2.398  2.1907 -1.8139  0.3638
22122SOL     OW66943   7.491   8.342   8.740  0.0796 -0.2939 -0.1537
22122SOL    HW166944   7.431   8.270   8.720  0.0556  0.3900 -2.8828
22122SOL    HW266945   7.561   8.334   8.676  1.3292  0.7434  1.0287
22123SOL     OW66946   4.617   5.116   0.963  0.1149 -0.6042  0.4139
22123SOL    HW166947   4.689   5.141   1.021  0.2705 -0.2138  0.0587
22123SOL    HW266948   4.651   5.132   0.875 -1.7940  3.7157  0.2171
22124SOL     OW66949   8.862   1.100   6.821 -0.3896  0.7658  0.2991
22124SOL    HW166950   8.943   1.054   6.841 -0.8346  0.4395  1.4587
22124SOL    HW266951   8.864   1.112   6.726  0.8827  0.5352  0.2746
22125SOL     OW66952   5.841   6.480   3.857  0.8750  0.1748  0.4977
22125SOL    HW166953   5.746   6.483   3.841  1.0140 -0.0542 -0.4045
22125SOL    HW266954   5.863   6.569   3.883  0.6491  0.6136 -0.7399
22126SOL     OW66955   4.936   7.315   5.667 -0.2630 -0.4291  0.2005
22126SOL    HW166956   4.908   7.360   5.587  0.8000 -1.3282 -0.7181
22126SOL    HW266957   5.027   7.343   5.680  0.8517 -3.0459 -1.0513
22127SOL     OW66958   4.339   1.138   3.108 -0.7824 -0.1403 -0.2498
22127SOL    HW166959   4.277   1.075   3.071 -3.1505  1.0104  1.4528
22127SOL    HW266960   4.291   1.179   3.180  2.2153  0.4433  1.6036
22128SOL     OW66961   6.428   7.844   2.385 -0.4262  0.3094 -0.1241
22128SOL    HW166962   6.455   7.752   2.393 -1.8035 -0.1580 -0.6249
22128SOL    HW266963   6.335   7.843   2.406 -0.2097  1.7900  1.0432
22129SOL     OW66964   1.497   8.588   1.317 -0.4829 -0.1936 -0.0885
22129SOL    HW166965   1.439   8.512   1.326 -0.2673 -0.3646 -0.1241
22129SOL    HW266966   1.570   8.570   1.376 -0.7535  0.3017  0.4009
22130SOL     OW66967   8.326   8.333   4.860 -0.2424  0.2736 -0.4889
22130SOL    HW166968   8.297   8.270   4.794  0.2059  0.2079 -0.6245
22130SOL    HW266969   8.270   8.409   4.848 -0.5767  0.0205 -0.5336
22131SOL     OW66970   4.122   1.121   5.825  0.1105  0.2999 -0.6220
22131SOL    HW166971   4.076   1.072   5.757  1.8436  0.4984 -2.0154
22131SOL    HW266972   4.057   1.183   5.857 -0.6740  0.4644 -2.3942
22132SOL     OW66973   4.079   1.974   4.131  0.1899  0.0909  0.3189
22132SOL    HW166974   4.050   2.037   4.197  1.1875  1.8485 -0.8615
22132SOL    HW266975   4.103   1.896   4.182 -3.2140 -0.2875  1.6443
22133SOL     OW66976   0.950   1.077   0.203 -0.0738  0.1166 -1.0117
22133SOL    HW166977   0.979   1.145   0.263 -1.1389  1.3557 -1.8620
22133SOL    HW266978   1.020   1.011   0.206  0.7591  1.0177  0.1668
22134SOL     OW66979   3.416   9.569   7.784  0.5494 -0.3393  1.0396
22134SOL    HW166980   3.407   9.662   7.802  0.5154 -0.4068  1.3839
22134SOL    HW266981   3.361   9.526   7.850  0.0986 -0.5793  0.5125
22135SOL     OW66982   3.173   5.663   8.015 -0.2233 -0.5230  0.0192
22135SOL    HW166983   3.187   5.637   7.924 -0.1664  0.9735 -0.4195
22135SOL    HW266984   3.087   5.625   8.038 -0.1987 -0.9727 -0.6172
22136SOL     OW66985   4.491   4.482   1.069 -0.6905  0.0019 -0.1403
22136SOL    HW166986   4.552   4.543   1.029 -0.7270  1.7433  2.2834
22136SOL    HW266987   4.407   4.528   1.070 -1.2455 -0.9732 -0.2725
22137SOL     OW66988   7.463   8.160   0.197  0.3282  0.2485  0.1631
22137SOL    HW166989   7.506   8.083   0.235 -0.0207 -0.0418 -0.0282
22137SOL    HW266990   7.390   8.125   0.147  0.2895  0.6914 -0.0982
22138SOL     OW66991   7.197   0.627   8.302  0.2405 -0.1221 -0.7894
22138SOL    HW166992   7.271   0.649   8.245  0.4831  1.5507  0.0922
22138SOL    HW266993   7.213   0.678   8.381 -1.6393 -0.0817 -0.4031
22139SOL     OW66994   1.320   3.273   0.777 -0.7404 -0.2500  0.5822
22139SOL    HW166995   1.372   3.221   0.716 -0.1005  1.1834 -0.1370
22139SOL    HW266996   1.259   3.322   0.721 -1.1269 -0.0040  1.2084
22140SOL     OW66997   2.786   4.338   5.846 -0.3038  0.7129  0.2796
22140SOL    HW166998   2.748   4.388   5.919 -1.6741 -0.8816  0.7218
22140SOL    HW266999   2.713   4.286   5.813  0.8009 -0.1253 -0.9297
22141SOL     OW67000   7.272   2.270   5.570 -0.1563 -0.1006  0.1880
22141SOL    HW167001   7.365   2.271   5.547 -0.2600  1.6915 -0.2625
22141SOL    HW267002   7.248   2.362   5.579 -1.2429 -0.5581  3.0471
22142SOL     OW67003   3.833   1.764   9.830  0.0093 -0.4755  0.4764
22142SOL    HW167004   3.878   1.834   9.782  2.2766 -2.0307  0.1810
22142SOL    HW267005   3.862   1.683   9.788 -2.5210 -1.6609  0.8090
22143SOL     OW67006   5.836   2.303   3.511  0.4281  0.0290 -0.1706
22143SOL    HW167007   5.903   2.295   3.443 -0.8003 -1.5318 -1.2861
22143SOL    HW267008   5.862   2.240   3.579 -0.0627 -0.8495 -0.7772
22144SOL     OW67009   8.724   8.441   1.812  0.3054  0.1273 -0.0267
22144SOL    HW167010   8.638   8.467   1.779  0.5108  0.2170 -0.5099
22144SOL    HW267011   8.784   8.461   1.740  0.3658 -2.4161 -0.7643
22145SOL     OW67012   0.323   0.373   1.256  0.3657  0.1612  0.5467
22145SOL    HW167013   0.403   0.374   1.204  2.0097 -1.5754  2.8357
22145SOL    HW267014   0.326   0.453   1.308  0.0694  0.5826 -0.0680
22146SOL     OW67015   0.205   0.811   1.738 -0.0236  0.2585 -0.1163
22146SOL    HW167016   0.272   0.868   1.699 -0.1185 -0.4634 -1.3896
22146SOL    HW267017   0.244   0.724   1.737 -0.5550  0.0157  0.1826
22147SOL     OW67018   9.557   0.746   7.105  0.1355 -0.3789  0.2497
22147SOL    HW167019   9.632   0.686   7.104  0.1902 -0.3289  0.9711
22147SOL    HW267020   9.586   0.820   7.158 -0.0103  0.1915 -0.4549
22148SOL     OW67021   9.817   3.441   2.208  0.3902 -0.1999 -0.0512
22148SOL    HW167022   9.908   3.468   2.196  0.1114  0.1809 -1.5023
22148SOL    HW267023   9.824   3.354   2.248  1.4474 -0.8393 -1.5089
22149SOL     OW67024   2.123   5.906   1.031  0.2338 -0.2716  0.0427
22149SOL    HW167025   2.151   5.836   1.090  0.4805  0.8015  1.2433
22149SOL    HW267026   2.131   5.868   0.943  0.4128 -1.7178  0.6564
22150SOL     OW67027   9.146   4.621   5.992  0.4776  0.3042 -0.6367
22150SOL    HW167028   9.073   4.591   5.938  0.1960  1.7582 -1.1030
22150SOL    HW267029   9.224   4.589   5.947  0.1727 -0.6843 -0.4953
22151SOL     OW67030   9.598   4.202   7.853 -0.1101  0.4423 -0.5846
22151SOL    HW167031   9.656   4.184   7.927 -0.7054  1.7702  0.2565
22151SOL    HW267032   9.545   4.123   7.845  1.1534 -0.4190 -0.7629
22152SOL     OW67033   8.316   5.654   4.353 -0.1148 -0.4327  0.1450
22152SOL    HW167034   8.328   5.563   4.378  1.7423  0.0281  1.0860
22152SOL    HW267035   8.369   5.665   4.274  3.5572  0.8289  2.5236
22153SOL     OW67036   3.604   4.509   8.229  0.1069  0.1233 -0.7874
22153SOL    HW167037   3.648   4.583   8.187  0.6636  0.7213  0.7826
22153SOL    HW267038   3.511   4.524   8.212  0.1015  1.9476  0.6270
22154SOL     OW67039   0.349   9.651   2.244  0.1353  0.8835 -0.1944
22154SOL    HW167040   0.398   9.606   2.175 -1.4354  0.2001 -0.9186
22154SOL    HW267041   0.295   9.582   2.284  1.4445  1.1237  2.1861
22155SOL     OW67042   7.527   4.620   6.893  0.4224  0.2042  0.0585
22155SOL    HW167043   7.507   4.528   6.915  3.2297 -0.5663 -0.2459
22155SOL    HW267044   7.482   4.635   6.810  1.3085 -1.5013 -0.7822
22156SOL     OW67045   0.503   4.664   5.218 -0.4704 -0.2634 -0.3799
22156SOL    HW167046   0.473   4.587   5.170 -0.2900  0.1232 -1.1238
22156SOL    HW267047   0.485   4.643   5.310 -1.0814 -0.8913 -0.6332
22157SOL     OW67048   5.209   0.079   3.831 -0.6467 -0.4752  0.0520
22157SOL    HW167049   5.200   0.143   3.760  1.7183 -0.4983 -0.3513
22157SOL    HW267050   5.218   0.133   3.910 -1.6036 -0.4109  0.1290
22158SOL     OW67051   1.078   2.368   6.497  0.6509 -0.1323 -0.1337
22158SOL    HW167052   1.158   2.400   6.540  0.1958  0.5896  0.1994
22158SOL    HW267053   1.007   2.401   6.551  0.1353 -1.8182  0.2859
22159SOL     OW67054   0.215   3.797   1.290 -0.3061 -0.3357  0.5138
22159SOL    HW167055   0.227   3.871   1.350  0.9670 -0.5682  0.5611
22159SOL    HW267056   0.160   3.736   1.339 -1.5860  0.6676  0.3794
22160SOL     OW67057   9.804   1.923   3.261  0.5345 -0.0076  0.0482
22160SOL    HW167058   9.839   2.008   3.237  1.4932  0.1955  1.9499
22160SOL    HW267059   9.710   1.932   3.250  0.7792  0.5198 -1.9777
22161SOL     OW67060   8.368   9.497   4.899 -0.0758  0.0911 -0.6765
22161SOL    HW167061   8.357   9.456   4.984 -1.0974  1.0895 -0.2944
22161SOL    HW267062   8.350   9.590   4.915  2.1724  0.7311 -1.4935
22162SOL     OW67063   1.532   5.349   6.689 -0.0385 -1.1405  0.1640
22162SOL    HW167064   1.595   5.335   6.759  0.6642 -1.4675 -0.5230
22162SOL    HW267065   1.575   5.317   6.610 -0.4375  0.0816 -0.5850
22163SOL     OW67066   4.525   7.920   8.799 -0.0088  0.1575 -0.2149
22163SOL    HW167067   4.565   7.844   8.757  0.6975  0.2901  0.2038
22163SOL    HW267068   4.555   7.915   8.890 -0.2732  0.7283 -0.0934
22164SOL     OW67069   6.107   1.157   8.274  0.2095 -0.2743  0.1414
22164SOL    HW167070   6.193   1.165   8.315 -0.4467  0.3950  1.4202
22164SOL    HW267071   6.076   1.247   8.265 -0.7569 -0.5573  0.5556
22165SOL     OW67072   1.144   9.319   5.024  0.2574 -0.4781 -0.3419
22165SOL    HW167073   1.155   9.257   4.952  2.9627  1.1821 -1.5020
22165SOL    HW267074   1.148   9.265   5.103 -0.8806 -2.1173 -1.3420
22166SOL     OW67075   0.655   1.453   8.590 -0.2804 -0.1588  0.3408
22166SOL    HW167076   0.581   1.448   8.650 -0.4480  0.1956  0.1674
22166SOL    HW267077   0.702   1.371   8.603 -0.6086 -0.3122  0.5727
22167SOL     OW67078   3.542   3.715   3.493 -0.2950  0.1759  0.3134
22167SOL    HW167079   3.471   3.684   3.436 -0.5923  0.6698  0.4044
22167SOL    HW267080   3.534   3.810   3.491  0.2144  0.2255  0.5243
22168SOL     OW67081   1.906   0.178   1.762 -0.5247 -0.0055  0.1806
22168SOL    HW167082   1.856   0.206   1.685 -3.0990 -0.7881  1.4453
22168SOL    HW267083   1.874   0.090   1.780 -0.4845  0.3867  2.4765
22169SOL     OW67084   2.488   5.026   1.435  0.5248  0.2052 -0.3754
22169SOL    HW167085   2.558   5.034   1.500  0.4418  0.6563 -0.3392
22169SOL    HW267086   2.523   5.068   1.357 -0.2351  1.7498  0.0716
22170SOL     OW67087   6.360   0.932   8.494 -0.2355  0.2297  0.2754
22170SOL    HW167088   6.354   1.021   8.460 -1.1847 -0.0023 -0.2011
22170SOL    HW267089   6.300   0.931   8.568 -0.3262 -0.0410  0.1990
22171SOL     OW67090   9.184   9.947   2.186  0.2808  0.3814 -0.1715
22171SOL    HW167091   9.180   9.895   2.267  0.3978  0.3473 -0.1870
22171SOL    HW267092   9.104   9.924   2.139 -0.7934  1.9053  0.8332
22172SOL     OW67093   3.363   5.000   0.724 -0.1820  0.3460 -0.3229
22172SOL    HW167094   3.281   4.990   0.677 -0.5220 -1.2528  0.5372
22172SOL    HW267095   3.338   5.010   0.816  0.4408  4.0124 -0.4180
22173SOL     OW67096   4.167   5.200   4.686 -0.5522  0.0848 -0.7488
22173SOL    HW167097   4.083   5.167   4.653 -1.3539  0.3031  0.9472
22173SOL    HW267098   4.230   5.133   4.661 -1.6302 -1.2368 -0.0723
22174SOL     OW67099   3.753   1.934   3.833 -0.1169  0.2135  0.1846
22174SOL    HW167100   3.843   1.967   3.838 -0.2823  0.7451 -0.3069
22174SOL    HW267101   3.764   1.839   3.832  0.4554  0.2748 -0.1257
22175SOL     OW67102   2.787   7.009   9.525  0.0129 -0.5732  0.3562
22175SOL    HW167103   2.794   7.071   9.598 -2.4713 -1.0541  1.1060
22175SOL    HW267104   2.818   7.057   9.449  0.8985  0.5756  1.4044
22176SOL     OW67105   6.473   5.683   6.589 -0.1045 -0.1498 -0.2067
22176SOL    HW167106   6.550   5.689   6.532  1.2374 -0.3917  1.4781
22176SOL    HW267107   6.510   5.664   6.676 -1.9841  1.3122  0.9710
22177SOL     OW67108   6.592   2.173   1.949  0.5497 -0.4877 -0.4283
22177SOL    HW167109   6.521   2.229   1.980  0.9319  0.4514 -1.2182
22177SOL    HW267110   6.568   2.152   1.859  1.7852  0.7527 -1.0916
22178SOL     OW67111   7.221   5.584   0.178  0.5997 -0.0059  0.0866
22178SOL    HW167112   7.196   5.663   0.226 -0.5298 -0.8260  0.9040
22178SOL    HW267113   7.191   5.512   0.233  0.3465 -1.0020 -1.3034
22179SOL     OW67114   9.534   0.046   8.483  0.2884  0.0325  0.0318
22179SOL    HW167115   9.575   0.018   8.401  1.5303  1.6859  0.0455
22179SOL    HW267116   9.517  -0.036   8.530  1.3550 -0.8390 -1.0338
22180SOL     OW67117   1.444   8.233   7.894 -0.3119  0.5673  0.3665
22180SOL    HW167118   1.422   8.294   7.824  0.4756  0.5232  0.0601
22180SOL    HW267119   1.391   8.155   7.877  1.2843 -0.2287 -1.3797
22181SOL     OW67120   0.316   2.810   9.882 -0.0711 -0.0515  0.5880
22181SOL    HW167121   0.276   2.727   9.855  0.3305 -0.2173  0.4899
22181SOL    HW267122   0.260   2.877   9.845 -0.1016 -0.2807  0.2114
22182SOL     OW67123   9.872   6.279   0.904  0.3815 -0.2289  0.0577
22182SOL    HW167124   9.930   6.349   0.934  0.6560 -0.9904  1.3676
22182SOL    HW267125   9.862   6.222   0.980 -1.0549 -0.8061 -0.5329
22183SOL     OW67126   0.125   4.030   1.008  0.8501  0.4439  0.0933
22183SOL    HW167127   0.051   4.058   1.061  1.9627  1.4784  1.1873
22183SOL    HW267128   0.129   3.935   1.020 -0.6032  0.3010 -0.4329
22184SOL     OW67129   1.742   8.516   0.744  0.2433  0.3603  0.2256
22184SOL    HW167130   1.652   8.485   0.754  0.8473 -1.1124  1.4841
22184SOL    HW267131   1.792   8.438   0.721  1.1696  1.2355 -0.9174
22185SOL     OW67132   3.676   5.143   2.528 -0.0110 -0.3825 -0.2808
22185SOL    HW167133   3.741   5.074   2.542  0.7999  0.1179 -1.4277
22185SOL    HW267134   3.592   5.098   2.530  0.5486 -1.6197 -2.0869
22186SOL     OW67135   7.465   6.103   8.267  0.1055 -0.0747 -0.4393
22186SOL    HW167136   7.380   6.073   8.299 -0.9382  2.3263 -0.6947
22186SOL    HW267137   7.520   6.025   8.267 -1.2714 -1.2065  2.3862
22187SOL     OW67138   8.629   7.622   2.593  0.1654 -0.1524  0.0784
22187SOL    HW167139   8.646   7.531   2.615 -0.6895 -0.3952 -0.1990
22187SOL    HW267140   8.676   7.673   2.659  1.4859 -0.7587 -0.3624
22188SOL     OW67141   3.294   6.145   9.986 -0.3646  0.6345  0.1015
22188SOL    HW167142   3.234   6.214   9.958 -0.1739  1.2218  1.1168
22188SOL    HW267143   3.352   6.133   9.911 -1.9810 -0.2617 -1.0940
22189SOL     OW67144   0.730   0.869   8.642  0.0149 -0.0903  0.3118
22189SOL    HW167145   0.736   0.965   8.641 -3.4527  0.2600 -0.2858
22189SOL    HW267146   0.636   0.851   8.653  0.5108 -3.4424  0.1292
22190SOL     OW67147   8.527   2.086   8.768  0.2526 -0.1164 -0.3625
22190SOL    HW167148   8.585   2.013   8.788 -0.6761 -1.0220 -0.8827
22190SOL    HW267149   8.536   2.099   8.674 -0.2810 -0.1839 -0.4297
22191SOL     OW67150   5.997   5.722   0.500  0.0104  0.4870  0.1464
22191SOL    HW167151   6.060   5.659   0.465  0.6806  0.6886  0.9771
22191SOL    HW267152   5.925   5.668   0.534 -1.2858  0.2993 -2.5844
22192SOL     OW67153   5.235   9.902   0.638  0.2582  0.0901  0.3616
22192SOL    HW167154   5.141   9.905   0.623 -0.3390 -3.3641  2.1704
22192SOL    HW267155   5.247   9.946   0.722  0.4885  1.4343 -0.3431
22193SOL     OW67156   2.900   8.188   4.407  0.1292  0.0496  0.1417
22193SOL    HW167157   2.812   8.210   4.376 -0.5658 -0.5766  1.5649
22193SOL    HW267158   2.924   8.108   4.360 -0.4602 -0.2957  0.4208
22194SOL     OW67159   3.574   5.533   7.633  0.0085  0.5998 -0.8982
22194SOL    HW167160   3.565   5.444   7.600  0.8692  0.6055 -1.1651
22194SOL    HW267161   3.555   5.525   7.727  2.9184 -0.4409 -0.2735
22195SOL     OW67162   8.107   8.892   9.130 -0.4225  0.1455  0.0631
22195SOL    HW167163   8.094   8.944   9.209 -1.2991 -1.3881  0.9824
22195SOL    HW267164   8.194   8.853   9.141 -0.3954  0.2169  0.0994
22196SOL     OW67165   3.715   5.605   3.466  0.0708 -0.5745  0.2377
22196SOL    HW167166   3.692   5.528   3.519 -1.1155 -0.6416 -0.3593
22196SOL    HW267167   3.746   5.568   3.384 -0.4888 -0.4220 -0.0460
22197SOL     OW67168   7.547   9.737   5.807  0.2394  0.2227  0.2088
22197SOL    HW167169   7.622   9.755   5.751  0.2634  0.1516  0.2178
22197SOL    HW267170   7.577   9.759   5.895 -0.4120  2.2358 -0.0174
22198SOL     OW67171   0.136   2.297   0.639  0.0253 -0.0452  0.6546
22198SOL    HW167172   0.231   2.310   0.649 -0.0100 -0.1442  1.1519
22198SOL    HW267173   0.128   2.231   0.570  0.3267 -0.1775  0.7427
22199SOL     OW67174   7.363   9.414   0.274 -0.0078 -0.3521 -0.3431
22199SOL    HW167175   7.404   9.345   0.327 -0.1474 -0.0471  0.1659
22199SOL    HW267176   7.275   9.423   0.311  0.2786  0.6604  0.1294
22200SOL     OW67177   7.255   9.514   0.934 -0.0825 -0.1774  0.6818
22200SOL    HW167178   7.332   9.460   0.918  1.1900  1.4883  0.9016
22200SOL    HW267179   7.243   9.564   0.853 -0.2150  0.4119  1.0539
22201SOL     OW67180   8.149   9.672   8.341 -0.4726  0.6754  0.4755
22201SOL    HW167181   8.177   9.726   8.267  0.3221 -1.8378 -1.1569
22201SOL    HW267182   8.229   9.662   8.394  0.5956 -2.1143 -1.4028
22202SOL     OW67183   6.803   5.992   5.743 -0.3425 -0.3593 -0.1429
22202SOL    HW167184   6.744   6.066   5.757  0.1492  0.6440 -2.8749
22202SOL    HW267185   6.888   6.031   5.724 -0.0964 -1.5680 -1.7753
22203SOL     OW67186   7.833   9.387   0.905 -0.6990  0.0701 -0.2409
22203SOL    HW167187   7.892   9.383   0.980  0.5363  0.9264 -1.1111
22203SOL    HW267188   7.835   9.299   0.867 -0.6656 -0.1373  0.2429
22204SOL     OW67189   9.590   5.334   5.327 -0.2000  0.2064 -0.1942
22204SOL    HW167190   9.634   5.373   5.403  0.0300 -0.3581 -0.0263
22204SOL    HW267191   9.503   5.311   5.359 -0.6686  1.4177 -0.5551
22205SOL     OW67192   7.996   5.175   9.944  0.0631  0.1444  0.0190
22205SOL    HW167193   8.032   5.113  10.008  2.6619 -0.8860 -2.2272
22205SOL    HW267194   8.058   5.248   9.943  0.7521 -0.3935 -2.0362
22206SOL     OW67195   8.581   7.354   2.395 -0.9036 -0.2071 -0.3761
22206SOL    HW167196   8.611   7.285   2.337 -0.0462  1.0124 -1.4526
22206SOL    HW267197   8.593   7.435   2.344 -1.2106  0.7965  1.0851
22207SOL     OW67198   7.582   0.522   6.900 -0.2456  0.4170  0.0200
22207SOL    HW167199   7.646   0.555   6.837  0.9310 -1.4200  0.1655
22207SOL    HW267200   7.595   0.575   6.978  0.6027  0.5531 -0.2030
22208SOL     OW67201   5.906   9.379   1.095 -0.0858  0.7140  0.4142
22208SOL    HW167202   5.865   9.354   1.013 -1.3766  2.4735  0.4682
22208SOL    HW267203   5.890   9.473   1.102  2.6777  1.2206  1.1858
22209SOL     OW67204   5.392   7.537   0.079 -0.5095 -0.5163 -0.3025
22209SOL    HW167205   5.390   7.568   0.169 -0.8177  0.9310 -0.7683
22209SOL    HW267206   5.300   7.529   0.054 -0.4433 -2.0725 -0.1396
22210SOL     OW67207   6.955   6.698  10.002  0.2449 -0.4661  0.2011
22210SOL    HW167208   6.963   6.605   9.980 -0.9472 -0.4583 -0.3458
22210SOL    HW267209   6.995   6.744   9.929  1.4785 -0.5480  0.8060
22211SOL     OW67210   6.976   2.508   3.170  0.5442 -0.1147 -0.2086
22211SOL    HW167211   6.925   2.589   3.168  1.7473  0.7238 -3.4569
22211SOL    HW267212   7.043   2.523   3.236  0.7220  1.5644 -0.7386
22212SOL     OW67213   0.492   0.305   3.494 -0.0701  0.1830 -0.6347
22212SOL    HW167214   0.485   0.263   3.408  0.7784  0.0993 -0.6787
22212SOL    HW267215   0.415   0.276   3.542 -1.7486  1.9795 -2.0956
22213SOL     OW67216   5.716   1.900   2.418  0.2046  0.0097  0.4404
22213SOL    HW167217   5.765   1.963   2.364 -1.3855  0.1510 -0.9084
22213SOL    HW267218   5.752   1.815   2.393  0.2447  0.1637 -0.0426
22214SOL     OW67219   9.721   0.306   0.989  0.2293  0.0043 -0.1322
22214SOL    HW167220   9.720   0.365   1.065 -1.0295  1.6887 -1.3674
22214SOL    HW267221   9.678   0.227   1.019  0.4074  0.3554  1.1155
22215SOL     OW67222   4.488   9.480   7.918  0.3400  0.4380  0.0618
22215SOL    HW167223   4.445   9.441   7.842 -1.0613 -0.1791  1.1253
22215SOL    HW267224   4.416   9.512   7.972  1.2515  0.0421  1.5674
22216SOL     OW67225   5.222   7.126   8.428  0.2876 -0.1639 -0.6846
22216SOL    HW167226   5.177   7.048   8.397 -2.1264  0.8609  0.0291
22216SOL    HW267227   5.180   7.146   8.512  2.3574  0.6907  0.2222
22217SOL     OW67228   3.100   9.477   3.529 -0.1025 -0.1177  0.3290
22217SOL    HW167229   3.149   9.437   3.601  0.1061 -1.0737 -0.3177
22217SOL    HW267230   3.028   9.415   3.513  0.1763 -0.1999 -0.6352
22218SOL     OW67231   9.866   2.770   7.505 -0.1433  0.2426 -0.1055
22218SOL    HW167232   9.807   2.835   7.542 -0.6650 -0.2556 -0.0533
22218SOL    HW267233   9.849   2.691   7.555 -0.4714 -0.2980 -1.0493
22219SOL     OW67234   6.577   9.124   4.658  0.2407 -0.5868 -0.3263
22219SOL    HW167235   6.514   9.126   4.586  0.0644 -0.1502 -0.1600
22219SOL    HW267236   6.554   9.045   4.707 -0.2097 -0.4071 -0.2405
22220SOL     OW67237   8.605   5.276   2.239  0.1018  0.4757  0.1215
22220SOL    HW167238   8.574   5.234   2.159  0.0653  0.9187 -0.1000
22220SOL    HW267239   8.663   5.211   2.279 -1.4902 -0.5585  0.8078
22221SOL     OW67240   4.200   5.357   6.602 -0.3388 -0.5101  0.2257
22221SOL    HW167241   4.282   5.308   6.611  0.2160  0.3561  0.0110
22221SOL    HW267242   4.177   5.347   6.510  1.4055  2.0842 -0.6009
22222SOL     OW67243   4.269   7.971   9.717 -0.4272  0.5860  0.4805
22222SOL    HW167244   4.324   7.931   9.784 -0.7066  1.2917  1.1418
22222SOL    HW267245   4.218   7.898   9.682  0.1266  0.1148  0.6338
22223SOL     OW67246   3.536   6.235   8.912  0.5824 -0.2024 -0.0286
22223SOL    HW167247   3.473   6.305   8.929 -0.7274 -1.1695 -0.7022
22223SOL    HW267248   3.579   6.260   8.831  0.9594  0.3794  0.3438
22224SOL     OW67249   2.927   2.977   4.623 -0.1767 -0.9098 -0.1944
22224SOL    HW167250   2.939   2.925   4.702 -0.9501 -1.3446 -0.3589
22224SOL    HW267251   2.836   3.007   4.626 -0.0408 -0.4184 -0.6185
22225SOL     OW67252   5.105   1.290   0.912  0.0727  0.3006  0.4348
22225SOL    HW167253   5.026   1.238   0.895  0.0742  0.3822  0.1733
22225SOL    HW267254   5.139   1.311   0.825  0.5514  0.0110  0.5486
22226SOL     OW67255   5.843   5.369   1.390  0.0448  0.3740  0.2001
22226SOL    HW167256   5.776   5.307   1.420 -1.3360  1.3536 -0.7081
22226SOL    HW267257   5.925   5.335   1.425 -0.1546 -3.6301 -2.5758
22227SOL     OW67258   6.834   1.688   9.801  0.2388 -0.2310 -0.6914
22227SOL    HW167259   6.901   1.745   9.764 -0.8774  1.4771 -0.2497
22227SOL    HW267260   6.756   1.706   9.749  0.0359 -2.0159 -1.0609
22228SOL     OW67261   8.106   4.164   0.364  0.2579 -0.0774 -0.1225
22228SOL    HW167262   8.032   4.107   0.345  0.1826  0.5404 -1.8747
22228SOL    HW267263   8.105   4.175   0.459 -1.2674 -0.8987 -0.0212
22229SOL     OW67264   0.661   2.886   6.649  0.1683  0.0132  0.1485
22229SOL    HW167265   0.639   2.844   6.566 -1.8264  0.4954  0.3893
22229SOL    HW267266   0.707   2.966   6.624  1.5685 -0.9205 -0.3864
22230SOL     OW67267   2.650   9.370   3.358  0.1244 -0.0916 -0.2814
22230SOL    HW167268   2.690   9.455   3.379  0.0867 -0.1577  0.0515
22230SOL    HW267269   2.585   9.391   3.291  1.2915 -0.0928 -1.4721
22231SOL     OW67270   3.969   4.490   2.119  0.0567  0.1830 -0.2978
22231SOL    HW167271   4.036   4.558   2.127 -0.6300  0.9192 -0.6775
22231SOL    HW267272   3.952   4.484   2.025 -0.6708  0.2555 -0.1735
22232SOL     OW67273   7.069   8.427   0.982  0.1735  0.4011  0.5973
22232SOL    HW167274   6.977   8.426   0.955  0.7881 -0.8318 -1.6631
22232SOL    HW267275   7.073   8.364   1.054 -0.4748 -0.7807 -0.3641
22233SOL     OW67276   6.265   2.021   8.881 -0.2170 -0.0610 -0.1972
22233SOL    HW167277   6.197   1.978   8.933 -1.0307 -0.1584 -1.3143
22233SOL    HW267278   6.218   2.069   8.813  0.8078  0.1454 -0.7940
22234SOL     OW67279   5.216   6.292   3.451  0.2259 -0.5631 -0.3398
22234SOL    HW167280   5.142   6.276   3.393 -0.1558 -1.0697  0.2594
22234SOL    HW267281   5.284   6.232   3.421 -0.4660 -1.8719  0.5828
22235SOL     OW67282   2.448   9.621   2.985 -0.5997  0.3800  0.0507
22235SOL    HW167283   2.444   9.557   2.914 -0.5164  0.2568  0.1562
22235SOL    HW267284   2.359   9.657   2.990  0.2426  3.3632 -2.8079
22236SOL     OW67285   5.037   7.075   9.551  0.8005  0.3685 -0.7116
22236SOL    HW167286   4.958   7.072   9.604 -0.4142  0.5058 -2.4169
22236SOL    HW267287   5.106   7.039   9.607 -1.1311 -3.0980 -0.2812
22237SOL     OW67288   1.823   7.966   8.191 -0.7678 -0.4109 -0.2995
22237SOL    HW167289   1.903   7.987   8.143 -1.1788  0.7919 -0.4862
22237SOL    HW267290   1.754   8.011   8.143 -1.0289  2.0412  2.0944
22238SOL     OW67291   8.442   0.484   8.838  0.5617  0.1357  0.1952
22238SOL    HW167292   8.400   0.461   8.921 -1.2424  0.9664 -0.4445
22238SOL    HW267293   8.445   0.402   8.789  0.7959 -0.1652  0.6978
22239SOL     OW67294   9.219   8.794   8.757 -0.0910  0.4918  0.2362
22239SOL    HW167295   9.263   8.726   8.706  0.2994  1.4752 -0.7888
22239SOL    HW267296   9.251   8.781   8.846 -0.7099 -1.2006  0.2426
22240SOL     OW67297   9.277   9.139   1.214 -0.1873 -0.1803  1.3229
22240SOL    HW167298   9.273   9.173   1.124 -0.6887 -1.3058  0.9010
22240SOL    HW267299   9.356   9.178   1.251  0.0803  0.2259  0.3608
22241SOL     OW67300   5.956   6.045   8.756 -0.7925 -0.2288  0.2729
22241SOL    HW167301   5.895   6.093   8.700  0.4386 -1.4087 -2.2120
22241SOL    HW267302   6.011   6.114   8.795 -1.0079  0.5783 -0.7975
22242SOL     OW67303   2.106   5.207   8.506  0.3026 -0.2114 -0.3628
22242SOL    HW167304   2.165   5.177   8.437  0.6140  0.5487 -0.4357
22242SOL    HW267305   2.054   5.276   8.466  0.8126  0.5683  0.2730
22243SOL     OW67306   3.001   0.615   2.910 -0.4571 -0.0488  0.7883
22243SOL    HW167307   3.094   0.623   2.889 -0.8650 -0.6540 -1.5554
22243SOL    HW267308   2.997   0.542   2.971  0.6411  0.2220  1.2145
22244SOL     OW67309   0.509   5.237   3.567  0.1498 -0.5941  0.2840
22244SOL    HW167310   0.507   5.209   3.658 -1.4837  0.9668  0.7674
22244SOL    HW267311   0.603   5.242   3.546  0.5632 -3.1232  1.1193
22245SOL     OW67312   6.891   8.219   4.074 -0.9230  0.3153 -0.0724
22245SOL    HW167313   6.954   8.155   4.108 -1.0294 -0.5604 -1.4564
22245SOL    HW267314   6.838   8.242   4.151 -0.1263 -0.3653  0.7099
22246SOL     OW67315   4.887   2.643   9.850  0.4602  0.6141  0.0706
22246SOL    HW167316   4.883   2.549   9.835 -1.8049  0.9139 -1.7236
22246SOL    HW267317   4.957   2.674   9.793 -0.3098  0.2692 -1.0802
22247SOL     OW67318   3.000   6.438   1.150 -0.6042 -0.6424 -0.0109
22247SOL    HW167319   2.958   6.523   1.149 -2.0308 -1.3129 -0.3821
22247SOL    HW267320   2.999   6.410   1.241 -0.7372 -0.5510  0.0145
22248SOL     OW67321   1.317   2.195   9.272  0.1436  0.3347  0.0315
22248SOL    HW167322   1.234   2.147   9.274  0.6880 -0.8931 -2.4788
22248SOL    HW267323   1.302   2.268   9.213  0.5141  0.8312  0.5368
22249SOL     OW67324   5.481   8.812   0.051 -0.0237 -0.5772 -0.3143
22249SOL    HW167325   5.519   8.843   0.133 -0.0289 -0.3932 -0.3813
22249SOL    HW267326   5.395   8.853   0.047 -0.6944 -1.8440  0.3698
22250SOL     OW67327   7.265   6.219   7.246 -0.5888  0.1664  0.0476
22250SOL    HW167328   7.264   6.168   7.165 -0.5301  0.1512  0.0567
22250SOL    HW267329   7.291   6.307   7.219 -0.4276  0.1258  0.0721
22251SOL     OW67330   3.864   1.607   7.740  0.1705 -0.2850  0.7070
22251SOL    HW167331   3.915   1.600   7.659 -0.4699  2.0152  0.0077
22251SOL    HW267332   3.921   1.657   7.799 -0.0162 -0.4961  1.0638
22252SOL     OW67333   3.341   5.309   8.216  0.1606  0.1960  0.1368
22252SOL    HW167334   3.409   5.368   8.185 -0.4048  1.5989  1.4351
22252SOL    HW267335   3.345   5.234   8.157  2.2429  0.6156 -0.3297
22253SOL     OW67336   3.280   2.732   8.853 -0.0255  0.3041  0.0261
22253SOL    HW167337   3.263   2.684   8.772  0.1039 -0.1980  0.2941
22253SOL    HW267338   3.349   2.794   8.830 -1.2876  1.4799 -0.7323
22254SOL     OW67339   3.914   4.702   1.720 -0.1067  0.0498 -0.3112
22254SOL    HW167340   3.910   4.723   1.626 -0.2766  0.2976 -0.2483
22254SOL    HW267341   3.882   4.781   1.763 -2.0555 -0.7967 -0.1224
22255SOL     OW67342   3.752   9.269   1.170  0.4659  0.2113  0.3902
22255SOL    HW167343   3.764   9.267   1.075  1.9033 -0.5165  0.5721
22255SOL    HW267344   3.714   9.184   1.191  0.6255  0.1731  0.5251
22256SOL     OW67345   2.503   5.726   7.757 -0.4317  0.0823 -0.4984
22256SOL    HW167346   2.556   5.777   7.818  0.1685  0.2395 -1.1273
22256SOL    HW267347   2.532   5.636   7.771 -0.4877  0.0849 -0.3637
22257SOL     OW67348   2.178   8.232   0.399 -0.5552  0.1731  0.5355
22257SOL    HW167349   2.226   8.149   0.389  0.9117  1.0467  0.0359
22257SOL    HW267350   2.200   8.282   0.320 -0.4760  1.4938  1.3666
22258SOL     OW67351   6.989   4.548   4.345  0.5355  0.2532 -0.4594
22258SOL    HW167352   7.028   4.489   4.410  1.7266  1.6682  0.1591
22258SOL    HW267353   6.943   4.614   4.396 -0.9991 -0.2084 -1.1558
22259SOL     OW67354   7.807   7.662   7.085 -0.2625 -0.1453 -0.0276
22259SOL    HW167355   7.712   7.648   7.077 -0.4728  1.1758 -0.0550
22259SOL    HW267356   7.831   7.710   7.006 -0.3674  3.2590  1.8520
22260SOL     OW67357   5.356   6.050   0.817 -0.0672  0.3021 -0.0249
22260SOL    HW167358   5.352   6.121   0.881 -1.2599  0.2456 -0.0077
22260SOL    HW267359   5.356   6.094   0.732  1.5568  0.3788 -0.0060
22261SOL     OW67360   9.285   3.022   4.491  0.4539  1.0494 -0.4749
22261SOL    HW167361   9.252   3.014   4.580  0.5611  0.4476 -0.4868
22261SOL    HW267362   9.363   3.077   4.500  1.4761 -0.4329  0.0660
22262SOL     OW67363   6.708   8.885   8.358 -0.2454 -0.6747 -0.5157
22262SOL    HW167364   6.738   8.804   8.317 -1.7628 -0.8723 -1.3220
22262SOL    HW267365   6.786   8.941   8.360  0.8916 -2.2114  0.2929
22263SOL     OW67366   1.085   3.984   7.918 -0.0967 -0.0963 -0.6077
22263SOL    HW167367   0.993   4.011   7.921  0.1947  0.8437  0.4720
22263SOL    HW267368   1.082   3.888   7.923 -0.9754 -0.0142  0.8704
22264SOL     OW67369   0.116   0.828   8.711  0.3946  0.1744 -0.2107
22264SOL    HW167370   0.203   0.789   8.698  0.3658  0.6047 -2.0184
22264SOL    HW267371   0.114   0.901   8.650 -0.6004  1.2951  1.1038
22265SOL     OW67372   0.190   2.053   4.265  0.2071  0.1864  0.0663
22265SOL    HW167373   0.116   2.099   4.223  0.0880  0.3461  0.4462
22265SOL    HW267374   0.190   2.087   4.355  1.7709  1.4466 -0.3661
22266SOL     OW67375   0.127   2.493   1.008 -0.0571 -0.1992  0.7271
22266SOL    HW167376   0.201   2.513   0.950 -0.9983  0.5818 -0.2552
22266SOL    HW267377   0.159   2.516   1.096  0.8746  0.0775  0.3314
22267SOL     OW67378   3.867   3.010   0.506  0.2617 -0.5158 -0.5128
22267SOL    HW167379   3.838   3.101   0.509  0.1323 -0.5696  1.1201
22267SOL    HW267380   3.959   3.013   0.533 -0.4934 -1.0720  2.5255
22268SOL     OW67381   4.499   4.675   8.018 -0.3485  0.2915  0.1025
22268SOL    HW167382   4.562   4.738   7.982  0.1196 -0.3112 -0.1525
22268SOL    HW267383   4.479   4.710   8.105 -0.8227  1.2935 -0.3895
22269SOL     OW67384   0.144   0.043   1.271  0.2193 -0.2103  0.4521
22269SOL    HW167385   0.196  -0.035   1.251  0.8414 -0.3350  2.4101
22269SOL    HW267386   0.056   0.022   1.238  0.2223 -2.0111  1.4765
22270SOL     OW67387   6.786   4.084   9.364 -0.1927 -0.5501  0.3624
22270SOL    HW167388   6.747   4.159   9.319  0.3581  0.4441  1.5056
22270SOL    HW267389   6.826   4.033   9.293  0.6679  0.9901 -0.3209
22271SOL     OW67390   0.586   3.837   5.847  0.3412 -0.0887  0.0010
22271SOL    HW167391   0.652   3.903   5.826 -0.5877  0.9949  0.3985
22271SOL    HW267392   0.510   3.887   5.877 -0.4934 -1.3266  0.0404
22272SOL     OW67393   6.995   4.848   6.526 -0.0366 -0.3743 -0.0292
22272SOL    HW167394   7.013   4.769   6.475  1.1320 -0.5041  0.5430
22272SOL    HW267395   7.030   4.829   6.614 -2.2539 -0.2710  0.9418
22273SOL     OW67396   4.878   5.827   0.412 -0.1120 -0.0252 -0.3528
22273SOL    HW167397   4.964   5.796   0.438 -0.3656 -0.3419  0.1313
22273SOL    HW267398   4.818   5.785   0.474 -0.6230  0.0829 -0.7706
22274SOL     OW67399   0.838   6.084   7.376 -0.4492  0.6535  0.6478
22274SOL    HW167400   0.782   6.006   7.377 -1.9598  1.6948  0.0989
22274SOL    HW267401   0.909   6.061   7.316  0.1876 -0.9805  1.9542
22275SOL     OW67402   5.144   1.144   7.304  0.5583 -0.5154  0.1324
22275SOL    HW167403   5.073   1.185   7.354  0.0778 -1.0937 -0.0605
22275SOL    HW267404   5.144   1.190   7.220 -0.2192 -1.1224 -0.2210
22276SOL     OW67405   2.205   8.734   0.435 -0.0712 -0.0083 -0.0515
22276SOL    HW167406   2.132   8.794   0.420 -0.0473 -0.1141 -0.5957
22276SOL    HW267407   2.260   8.743   0.357  0.9232  0.6815  0.7022
22277SOL     OW67408   7.405   0.701   8.115 -0.2285 -0.3896 -0.5182
22277SOL    HW167409   7.404   0.794   8.092 -2.8061 -0.0446  0.5902
22277SOL    HW267410   7.486   0.690   8.165 -0.8614  1.8221  1.1890
22278SOL     OW67411   4.862   1.255   5.238 -0.2172 -0.2769  0.0880
22278SOL    HW167412   4.847   1.171   5.282  0.3130 -0.5912 -0.3244
22278SOL    HW267413   4.956   1.271   5.248 -0.0914 -0.3548 -0.9332
22279SOL     OW67414   9.748   7.865   2.574 -0.3114 -0.8557 -0.2079
22279SOL    HW167415   9.752   7.818   2.491  1.1201  0.5396 -0.9853
22279SOL    HW267416   9.789   7.806   2.637  4.7191  0.3906 -1.8042
22280SOL     OW67417   4.990   8.106   9.014  0.1957  0.0590  0.1791
22280SOL    HW167418   5.069   8.055   8.997  0.0804  0.3681 -1.4712
22280SOL    HW267419   4.918   8.050   8.985 -0.0742  0.3993  0.1805
22281SOL     OW67420   1.452   0.637   2.377  0.0651  0.1881  0.2699
22281SOL    HW167421   1.431   0.559   2.325  0.5076  0.6988 -0.6993
22281SOL    HW267422   1.400   0.627   2.457 -0.0422 -0.9940  0.0736
22282SOL     OW67423   9.479   9.089   2.197 -0.1755  0.3117  0.1290
22282SOL    HW167424   9.414   9.122   2.135 -1.0492 -0.5391  0.5516
22282SOL    HW267425   9.505   9.165   2.249  0.1987  0.9292 -0.9524
22283SOL     OW67426   3.360   6.383   2.994  0.1007 -0.2433  0.1322
22283SOL    HW167427   3.407   6.342   3.067 -0.1028 -0.4839  0.1267
22283SOL    HW267428   3.305   6.450   3.035 -0.7830 -1.0685  0.3052
22284SOL     OW67429   9.766   0.434   3.005 -0.4125 -0.0613  0.5155
22284SOL    HW167430   9.775   0.454   2.911 -0.7339 -0.3787  0.4123
22284SOL    HW267431   9.684   0.385   3.010 -0.5129  0.1582  0.9987
22285SOL     OW67432   0.975   8.375   8.617 -0.4215 -0.5203  0.1493
22285SOL    HW167433   0.980   8.367   8.712  2.4962  1.5397  0.3133
22285SOL    HW267434   0.974   8.285   8.585  1.1315 -1.2971  2.0918
22286SOL     OW67435   5.695   8.967   8.268 -0.4965 -0.9797  0.1195
22286SOL    HW167436   5.783   8.937   8.246  0.3732  0.7859  0.9403
22286SOL    HW267437   5.687   8.951   8.362 -0.5942 -0.1009  0.2691
22287SOL     OW67438   0.855   7.640   4.305  0.5389  0.4776 -0.0300
22287SOL    HW167439   0.875   7.551   4.335  1.5031 -0.1351 -2.2871
22287SOL    HW267440   0.928   7.692   4.336  0.8436  0.1363 -0.1672
22288SOL     OW67441   2.657   6.309   1.572  0.1159  0.3394 -0.5445
22288SOL    HW167442   2.696   6.227   1.602  0.1018  0.0289 -1.3462
22288SOL    HW267443   2.567   6.307   1.605  0.4179  0.5179  0.3130
22289SOL     OW67444   7.208   5.472   3.333 -0.0174  0.2538  0.7956
22289SOL    HW167445   7.259   5.473   3.252  1.9294 -1.3017  1.8855
22289SOL    HW267446   7.218   5.560   3.369  3.1985 -0.3054  1.6120
22290SOL     OW67447   4.183   0.531   5.822 -0.0032 -0.9474 -0.0792
22290SOL    HW167448   4.263   0.511   5.870  0.1277 -2.2251 -0.7699
22290SOL    HW267449   4.136   0.447   5.817 -1.8973 -0.0269  1.1926
22291SOL     OW67450   4.799   3.527   7.279  0.0279 -0.1120 -0.2081
22291SOL    HW167451   4.768   3.614   7.256 -1.0695 -0.0938  1.1970
22291SOL    HW267452   4.860   3.543   7.352 -1.4890 -0.6040  1.2224
22292SOL     OW67453   9.316   2.353   0.200 -0.1447 -0.3605 -0.5355
22292SOL    HW167454   9.298   2.426   0.260 -1.2915 -1.2049  0.2032
22292SOL    HW267455   9.411   2.354   0.188  0.0481  0.1877  0.8635
22293SOL     OW67456   6.391   7.636   8.113  0.0660 -0.2041  0.6433
22293SOL    HW167457   6.347   7.573   8.057 -1.5361  0.6076  0.9132
22293SOL    HW267458   6.418   7.707   8.054  0.3669 -0.3693  0.5824
22294SOL     OW67459   5.821   3.812   0.293 -0.0013 -0.4254 -0.0690
22294SOL    HW167460   5.747   3.754   0.310 -0.0148 -0.9261 -1.6759
22294SOL    HW267461   5.799   3.893   0.339 -0.6392 -1.2010  1.0525
22295SOL     OW67462   9.737   0.819   8.640 -0.2789  0.0412  0.1999
22295SOL    HW167463   9.685   0.759   8.695 -3.0139  0.8657 -1.2673
22295SOL    HW267464   9.740   0.900   8.690 -2.5992  0.7328 -0.6637
22296SOL     OW67465   9.863   3.744   2.845  0.3606 -0.7389  0.0181
22296SOL    HW167466   9.855   3.835   2.876  1.7525 -0.6669  0.2414
22296SOL    HW267467   9.811   3.693   2.907 -0.2710 -0.1269  0.0112
22297SOL     OW67468   5.952   9.126   2.686  0.0464 -0.1882 -0.0432
22297SOL    HW167469   6.038   9.090   2.665  0.1319  0.2908 -0.5180
22297SOL    HW267470   5.892   9.053   2.671  0.3911 -0.6203  0.5945
22298SOL     OW67471   3.733   9.929   9.712  0.3479 -0.0194  0.3566
22298SOL    HW167472   3.694   9.852   9.671  1.1642  0.7831 -2.0968
22298SOL    HW267473   3.666   9.997   9.705  0.4480  0.0945  0.4914
22299SOL     OW67474   5.818   2.257   0.169 -0.1073  0.2770  0.0533
22299SOL    HW167475   5.875   2.190   0.206  1.2335  0.1026 -2.1186
22299SOL    HW267476   5.877   2.315   0.121 -1.6144  0.9155 -1.1087
22300SOL     OW67477   5.515   8.072   1.001  0.1882  0.1152  0.3961
22300SOL    HW167478   5.604   8.043   1.019 -0.1374 -0.2723  1.4264
22300SOL    HW267479   5.466   8.051   1.080 -0.7215  0.7496  0.0171
22301SOL     OW67480   2.322   3.476   3.214  0.5639  1.0780  0.0475
22301SOL    HW167481   2.376   3.505   3.288  1.5656  1.2162 -0.7163
22301SOL    HW267482   2.237   3.457   3.253  0.8847  1.7580  1.1325
22302SOL     OW67483   8.446   1.147   7.389  0.0858 -0.1680  0.0757
22302SOL    HW167484   8.447   1.093   7.309  0.4781 -0.1561  0.0706
22302SOL    HW267485   8.442   1.237   7.357  1.3246 -0.1086  0.0343
22303SOL     OW67486   5.548   1.073   7.127 -0.3188 -0.1656 -0.4699
22303SOL    HW167487   5.630   1.112   7.158  0.1248 -1.0699 -0.4896
22303SOL    HW267488   5.570   1.034   7.042 -0.1622 -2.3892  0.5152
22304SOL     OW67489   1.484   2.516   2.941  0.2988 -0.5522 -0.3413
22304SOL    HW167490   1.525   2.448   2.994 -1.5391 -0.9221  0.6892
22304SOL    HW267491   1.447   2.470   2.866 -1.1949 -0.7863  0.5011
22305SOL     OW67492   1.073   4.510   9.666  0.3830 -0.4291 -0.1144
22305SOL    HW167493   1.097   4.591   9.712 -0.5067  0.2668 -0.8352
22305SOL    HW267494   1.156   4.475   9.635  0.7297  0.5425 -0.3253
22306SOL     OW67495   1.658   4.019   7.410 -0.3950  0.0027 -0.1665
22306SOL    HW167496   1.578   4.008   7.462 -0.6106 -1.5796 -0.7858
22306SOL    HW267497   1.727   3.979   7.463 -0.0832  0.9571  0.1629
22307SOL     OW67498   4.173   1.380   4.881 -0.4010  0.2997  0.0631
22307SOL    HW167499   4.199   1.288   4.883 -1.9919 -0.2499 -1.5903
22307SOL    HW267500   4.251   1.426   4.848  0.8097 -0.2269  2.0083
22308SOL     OW67501   9.282   6.521   3.430 -0.2252  0.2318  0.6523
22308SOL    HW167502   9.286   6.485   3.342 -1.0873  0.1538  0.6364
22308SOL    HW267503   9.344   6.467   3.480  3.6494  2.9243 -0.7267
22309SOL     OW67504   0.112   5.803   2.149 -0.0222 -0.1489  0.1437
22309SOL    HW167505   0.097   5.785   2.241 -0.5551 -0.7437 -0.0527
22309SOL    HW267506   0.198   5.764   2.130 -0.7694 -1.7627 -0.0614
22310SOL     OW67507   9.968   9.937   3.855 -0.2942  0.1958 -0.0598
22310SOL    HW167508   9.944  10.014   3.803 -0.1473  0.3276  0.0673
22310SOL    HW267509   9.891   9.880   3.850 -0.6257  0.6082  0.3340
22311SOL     OW67510   5.804   2.698   9.901 -0.3081 -0.1726  0.5371
22311SOL    HW167511   5.760   2.783   9.897 -0.6713 -0.3746  0.0473
22311SOL    HW267512   5.889   2.713   9.861 -0.4494 -0.0833  0.2648
22312SOL     OW67513   2.353   4.350   9.408  0.3015  0.1369  0.3836
22312SOL    HW167514   2.281   4.411   9.426  0.6296  0.9984 -1.0407
22312SOL    HW267515   2.344   4.330   9.315  1.1412 -0.7646  0.4872
22313SOL     OW67516   6.439   5.247   6.212  0.3919 -0.2209  0.0102
22313SOL    HW167517   6.493   5.173   6.240  2.2790  1.3257  0.6584
22313SOL    HW267518   6.356   5.235   6.258  1.0050 -1.4357  0.8353
22314SOL     OW67519   0.049   5.880   9.241 -0.5763  0.0094  0.0422
22314SOL    HW167520   0.031   5.955   9.298 -2.0680  1.7472 -2.5097
22314SOL    HW267521   0.131   5.902   9.198 -1.0373  0.2475 -0.7427
22315SOL     OW67522   2.333   9.029   5.517  0.1555 -0.4639 -0.2287
22315SOL    HW167523   2.297   9.085   5.449  1.0746 -1.2073 -1.3631
22315SOL    HW267524   2.285   9.053   5.596 -1.0174  0.3396 -1.1551
22316SOL     OW67525   3.584   9.851   0.996  0.2932  0.2743 -0.4417
22316SOL    HW167526   3.507   9.846   0.941  0.1712 -0.3775 -0.2237
22316SOL    HW267527   3.644   9.908   0.949  0.1045 -0.0930 -1.1321
22317SOL     OW67528   1.751   5.152   8.870 -0.4804 -0.0182  0.0795
22317SOL    HW167529   1.694   5.228   8.853 -0.1108  0.0001 -1.2005
22317SOL    HW267530   1.746   5.101   8.789  1.7009  0.2406 -0.2869
22318SOL     OW67531   3.869   8.552   1.780 -0.0797  0.4505 -0.0702
22318SOL    HW167532   3.932   8.488   1.814 -0.2780  1.0259  1.4317
22318SOL    HW267533   3.803   8.499   1.736  1.9399 -0.1394 -2.7141
22319SOL     OW67534   3.255   9.800   9.545 -0.0257  0.8805  0.1232
22319SOL    HW167535   3.247   9.862   9.617 -1.9842 -1.3283  1.9597
22319SOL    HW267536   3.335   9.751   9.563 -1.5756 -1.1083  2.1731
22320SOL     OW67537   3.532   6.635   2.617  0.2587 -0.0815  0.2451
22320SOL    HW167538   3.536   6.575   2.691  0.8866 -1.2879 -0.7166
22320SOL    HW267539   3.623   6.660   2.601  0.2278 -0.4523 -0.5808
22321SOL     OW67540   0.573   1.098   5.229  0.3118 -0.8545 -0.1363
22321SOL    HW167541   0.641   1.160   5.258 -0.8618  0.2036  0.4636
22321SOL    HW267542   0.568   1.112   5.135 -1.4511  1.6831  0.2151
22322SOL     OW67543   0.539   2.095   9.374  0.1408 -0.1663 -0.5961
22322SOL    HW167544   0.634   2.100   9.365  0.1531 -0.7417 -0.9086
22322SOL    HW267545   0.524   2.061   9.462  0.2296 -0.1799 -0.5870
22323SOL     OW67546   6.357   8.040   4.161  0.3109  0.2803 -0.2449
22323SOL    HW167547   6.371   8.130   4.130 -1.0687  1.5299  2.4222
22323SOL    HW267548   6.262   8.029   4.161  0.3952 -0.6528  0.7853
22324SOL     OW67549   4.216   3.084   8.222 -0.1607  0.0526 -0.7190
22324SOL    HW167550   4.186   3.127   8.302 -0.3290  0.5256 -1.0319
22324SOL    HW267551   4.225   2.992   8.246 -0.9974  0.0556 -0.3709
22325SOL     OW67552   6.329   9.776   0.369  0.2603 -0.0914 -0.5157
22325SOL    HW167553   6.404   9.753   0.425 -0.3172  0.4267  0.5000
22325SOL    HW267554   6.261   9.803   0.430 -0.4929  0.2235 -1.4692
22326SOL     OW67555   8.523   5.898   7.288 -0.3023  0.2822 -0.0304
22326SOL    HW167556   8.536   5.965   7.221 -2.0354  1.5366  0.8162
22326SOL    HW267557   8.454   5.842   7.254 -0.8240  0.6141  0.4610
22327SOL     OW67558   6.299   7.555   6.854  0.3530  0.2988  0.3263
22327SOL    HW167559   6.221   7.610   6.851 -0.2710 -0.4911  1.2619
22327SOL    HW267560   6.277   7.478   6.802 -0.0205 -0.5312  1.6566
22328SOL     OW67561   4.103   1.692   8.823  0.2250  0.5615  0.6091
22328SOL    HW167562   4.141   1.711   8.909  0.7742 -1.3520  0.8454
22328SOL    HW267563   4.104   1.776   8.777  2.3939  1.1013  1.5184
22329SOL     OW67564   5.298   4.670   6.372 -0.0977  0.3190 -0.2430
22329SOL    HW167565   5.273   4.675   6.280 -1.1971 -1.0014 -0.0481
22329SOL    HW267566   5.220   4.700   6.420 -0.5855 -1.7168  0.3165
22330SOL     OW67567   6.474   1.513   8.703 -0.1133  0.0707 -0.1729
22330SOL    HW167568   6.554   1.550   8.740  1.2318 -0.9713 -1.8818
22330SOL    HW267569   6.462   1.559   8.621 -1.4318  0.3751  0.1681
22331SOL     OW67570   8.577   9.738   6.841  0.0121  0.0220 -0.3260
22331SOL    HW167571   8.496   9.723   6.891  0.3726  0.8515  0.5548
22331SOL    HW267572   8.579   9.833   6.828  0.9181  0.0291 -0.1991
22332SOL     OW67573   2.289   7.364   7.545  0.3201 -0.1712 -0.4615
22332SOL    HW167574   2.242   7.312   7.611  0.1264  2.0061  1.2181
22332SOL    HW267575   2.220   7.396   7.486 -0.0319  0.9573  0.5284
22333SOL     OW67576   8.827   2.469   9.513 -0.4963 -0.1443  0.2585
22333SOL    HW167577   8.762   2.400   9.497  0.8227 -1.4511  0.2528
22333SOL    HW267578   8.912   2.424   9.504  0.4079  0.9930  2.3510
22334SOL     OW67579   8.041   0.938   4.982 -0.1873 -0.3538 -0.0248
22334SOL    HW167580   8.099   0.868   5.013  0.4047 -0.6072 -1.6195
22334SOL    HW267581   8.057   0.943   4.888 -0.3125  1.8729  0.0212
22335SOL     OW67582   4.255   1.801   6.505  0.2515 -0.2798 -0.3551
22335SOL    HW167583   4.252   1.783   6.411 -0.9215  0.7950 -0.5414
22335SOL    HW267584   4.343   1.835   6.520  0.3303 -0.1313 -1.1216
22336SOL     OW67585   6.640   5.076   8.765  0.0598  0.1263  0.3366
22336SOL    HW167586   6.581   5.150   8.782 -0.4819 -0.3650  0.6218
22336SOL    HW267587   6.597   5.025   8.697 -0.0651 -0.4771  0.8563
22337SOL     OW67588   0.611   6.969   9.839  0.3570  0.1514 -0.4071
22337SOL    HW167589   0.656   6.902   9.892  2.0592  1.4297 -0.1632
22337SOL    HW267590   0.520   6.966   9.870  1.0146 -0.0356  1.7146
22338SOL     OW67591   9.236   6.169   3.275  0.0549 -0.3148 -0.0642
22338SOL    HW167592   9.213   6.260   3.259  1.6605 -0.1598 -1.8061
22338SOL    HW267593   9.235   6.128   3.189  3.6607 -0.8563  0.0084
22339SOL     OW67594   4.954   0.573   3.536  0.0317  0.0728 -0.1666
22339SOL    HW167595   5.019   0.635   3.570 -1.4332  1.6526 -0.0781
22339SOL    HW267596   4.950   0.504   3.603  0.0461  1.1025  0.9404
22340SOL     OW67597   2.810   7.924   3.882 -0.2993  0.6054  0.1165
22340SOL    HW167598   2.771   7.894   3.964  2.3077  1.6267  1.8594
22340SOL    HW267599   2.821   7.844   3.830 -1.1572 -0.2150  1.1453
22341SOL     OW67600   7.761   0.169   6.332  0.6413 -0.5767  0.1786
22341SOL    HW167601   7.789   0.252   6.370 -0.4961 -0.5720  1.0561
22341SOL    HW267602   7.747   0.112   6.407 -1.8460 -0.5195 -0.1808
22342SOL     OW67603   5.177   2.402   9.754 -0.0906 -0.2770 -0.3904
22342SOL    HW167604   5.141   2.366   9.674  0.3109  1.6767 -1.5125
22342SOL    HW267605   5.260   2.356   9.766 -0.0101 -0.3810 -1.2833
22343SOL     OW67606   8.552   5.903   2.570  0.2717  0.5143 -0.2083
22343SOL    HW167607   8.614   5.872   2.636  2.0251 -0.8621 -2.3976
22343SOL    HW267608   8.582   5.991   2.549  0.1479  0.6750  0.2571
22344SOL     OW67609   2.650   8.883   3.184  0.0239 -0.7687  0.0989
22344SOL    HW167610   2.633   8.951   3.119  3.4164  0.0127 -0.1332
22344SOL    HW267611   2.738   8.902   3.217 -0.4198 -2.8469  2.8393
22345SOL     OW67612   9.465   5.703   3.326 -0.7163  0.2278 -0.3692
22345SOL    HW167613   9.484   5.637   3.393 -0.7404  0.0150 -0.5708
22345SOL    HW267614   9.473   5.787   3.372  1.0916  0.1835 -0.5137
22346SOL     OW67615   7.639   8.057   2.114 -0.0176  0.3151  0.1830
22346SOL    HW167616   7.559   8.097   2.150  0.2336  0.7549  0.2565
22346SOL    HW267617   7.707   8.124   2.127  0.1504  0.3484 -0.8059
22347SOL     OW67618   4.245   0.108   8.172 -0.1395  0.4620  0.0997
22347SOL    HW167619   4.328   0.156   8.166  0.2343 -0.2016 -0.1839
22347SOL    HW267620   4.212   0.126   8.260  0.7394  0.0461  0.5269
22348SOL     OW67621   8.976   6.287   0.763 -0.2811  0.8583  0.0866
22348SOL    HW167622   8.982   6.197   0.795 -2.2398  0.5061 -0.4187
22348SOL    HW267623   9.045   6.293   0.696 -0.3463 -0.3752 -0.1177
22349SOL     OW67624   8.872   4.017   4.873  0.8378 -0.3331  0.6762
22349SOL    HW167625   8.868   4.044   4.965 -2.6352 -0.6275  0.7517
22349SOL    HW267626   8.915   4.090   4.828  0.5493  0.8499  2.2307
22350SOL     OW67627   7.763   6.327   7.145 -0.6440 -0.0482 -0.2945
22350SOL    HW167628   7.800   6.378   7.073 -1.7365  0.8041 -0.2902
22350SOL    HW267629   7.753   6.390   7.216  0.1295 -0.8144  0.5126
22351SOL     OW67630   1.764   7.594   8.653  0.0287 -0.1647 -0.0987
22351SOL    HW167631   1.743   7.560   8.740  0.6009  0.7570  0.4169
22351SOL    HW267632   1.827   7.531   8.618 -1.2282 -1.2701 -0.4082
22352SOL     OW67633   8.331   4.881   8.877  0.0513 -0.1999  0.2389
22352SOL    HW167634   8.325   4.857   8.784  2.0643 -0.2204  0.0844
22352SOL    HW267635   8.324   4.976   8.877  2.9335  0.1064 -0.3093
22353SOL     OW67636   4.871   1.382   6.972  0.1117  0.3013  0.1531
22353SOL    HW167637   4.853   1.434   6.895  0.3583  0.5800  0.2801
22353SOL    HW267638   4.897   1.445   7.039  0.3740  0.0224  0.3211
22354SOL     OW67639   0.866   1.873   6.617 -0.1424 -1.3034  0.2674
22354SOL    HW167640   0.876   1.900   6.708 -0.2703  1.2257 -0.3848
22354SOL    HW267641   0.955   1.878   6.581 -0.4870  0.6026 -0.4165
22355SOL     OW67642   8.908   9.021   8.197  0.2604  0.8380 -0.3529
22355SOL    HW167643   8.962   9.046   8.123  1.4642  0.9730  0.5424
22355SOL    HW267644   8.933   9.081   8.267  0.1369 -0.1524  0.5712
22356SOL     OW67645   4.239   0.402   5.355  0.3269  0.0286  0.6466
22356SOL    HW167646   4.309   0.347   5.320 -0.3034 -1.1037  1.1202
22356SOL    HW267647   4.166   0.342   5.372 -0.7912  1.1761  0.1342
22357SOL     OW67648   5.612   2.522   7.988  0.0565 -0.1791 -0.3566
22357SOL    HW167649   5.559   2.586   8.036 -1.2563 -1.2093 -0.3804
22357SOL    HW267650   5.569   2.514   7.903  0.8437 -0.2983 -0.7542
22358SOL     OW67651   9.433   9.973   3.043 -0.0047 -0.7016  0.3968
22358SOL    HW167652   9.438   9.880   3.023 -2.0597 -0.8956  0.6030
22358SOL    HW267653   9.349   9.984   3.086  0.2566  1.2392  0.4994
22359SOL     OW67654   4.335   9.301   6.279 -0.0602  0.4159  0.1870
22359SOL    HW167655   4.339   9.382   6.329 -1.3170  0.8145 -0.3294
22359SOL    HW267656   4.352   9.327   6.189  0.7225 -0.0854  0.1743
22360SOL     OW67657   5.749   0.142   5.870 -0.1057  0.2834  0.0154
22360SOL    HW167658   5.844   0.153   5.874  0.0632 -0.9884 -0.1832
22360SOL    HW267659   5.722   0.193   5.794  0.4442  0.4689 -0.0624
22361SOL     OW67660   3.778   4.680   3.708  0.0194  0.2762  0.1406
22361SOL    HW167661   3.845   4.664   3.774 -0.9607 -0.9559  0.8883
22361SOL    HW267662   3.826   4.707   3.630  1.1730  2.3740  1.4995
22362SOL     OW67663   1.417   7.103   1.705  0.4141 -0.1746  0.4101
22362SOL    HW167664   1.476   7.138   1.638 -0.0023  2.3035  1.2074
22362SOL    HW267665   1.344   7.067   1.656  1.9639 -2.1857 -0.5508
22363SOL     OW67666   5.857   3.496   1.902 -0.1318  0.3041 -0.1759
22363SOL    HW167667   5.819   3.409   1.888  0.6124 -0.0420 -0.0950
22363SOL    HW267668   5.952   3.482   1.894 -0.0329  1.1991 -0.6429
22364SOL     OW67669   9.648   3.783   7.549 -0.0928 -0.2085 -0.4345
22364SOL    HW167670   9.719   3.847   7.548 -0.5048  0.2547 -0.6074
22364SOL    HW267671   9.643   3.752   7.459 -2.2579  2.2136 -1.2848
22365SOL     OW67672   7.712   8.533   9.671 -0.3569 -0.1743 -0.1386
22365SOL    HW167673   7.747   8.463   9.725 -0.9846  0.0047  0.5154
22365SOL    HW267674   7.626   8.501   9.643 -0.9002  0.5475  0.6356
22366SOL     OW67675   5.688   3.893   8.247  0.1466 -0.4411  0.1039
22366SOL    HW167676   5.782   3.886   8.262  0.3448 -4.1556 -1.7823
22366SOL    HW267677   5.679   3.962   8.181  1.6891 -0.7985 -0.5092
22367SOL     OW67678   8.028   7.546   0.907  0.0867 -0.6062 -0.6834
22367SOL    HW167679   7.987   7.469   0.948 -0.4347  0.1772  0.3079
22367SOL    HW267680   8.122   7.523   0.904 -0.1440 -1.5705 -1.0835
22368SOL     OW67681   9.213   0.953   8.879 -0.8128  0.4017 -0.3272
22368SOL    HW167682   9.123   0.958   8.911 -0.4152 -0.9675  1.1520
22368SOL    HW267683   9.252   1.038   8.903 -0.3203 -0.7515  3.8587
22369SOL     OW67684   5.393   0.706   0.903  0.6188  0.1848 -0.9446
22369SOL    HW167685   5.356   0.758   0.832  0.5162  1.9184  0.3144
22369SOL    HW267686   5.482   0.740   0.914  0.8891 -0.5673 -0.7155
22370SOL     OW67687   4.039   2.697   7.603 -0.5342 -0.4186  0.5550
22370SOL    HW167688   3.984   2.621   7.622 -1.5250  0.3651  0.8684
22370SOL    HW267689   4.091   2.710   7.682 -1.5402  0.2137  1.1222
22371SOL     OW67690   0.637   7.796   7.052  0.5107  0.2662 -0.2802
22371SOL    HW167691   0.644   7.890   7.037 -0.3129  0.4979  0.6777
22371SOL    HW267692   0.639   7.786   7.147 -1.1792 -0.5033 -0.2889
22372SOL     OW67693   2.081   8.174   9.950 -0.6187  0.1345 -0.1968
22372SOL    HW167694   2.073   8.086   9.987  1.4559 -0.7205 -1.5631
22372SOL    HW267695   2.026   8.172   9.872  1.4987 -0.9718 -1.7692
22373SOL     OW67696   7.830   5.408   2.215 -0.9988  0.3441 -0.7668
22373SOL    HW167697   7.874   5.352   2.279 -1.2828  1.8847  0.8465
22373SOL    HW267698   7.738   5.385   2.223 -1.1161  1.0009 -0.1017
22374SOL     OW67699   7.549   8.564   1.912  0.2820  0.7134 -0.3968
22374SOL    HW167700   7.475   8.624   1.898  0.1136  0.6729  0.3202
22374SOL    HW267701   7.588   8.592   1.995  1.2466  0.9017 -0.8950
22375SOL     OW67702   6.037   1.783   9.865 -0.4726  0.3798 -0.1515
22375SOL    HW167703   6.012   1.731   9.940  0.0316 -0.8504 -0.8126
22375SOL    HW267704   5.971   1.764   9.799 -0.3522  0.6636 -0.3576
22376SOL     OW67705   1.229   3.556   1.566  0.3739 -0.1361  0.2258
22376SOL    HW167706   1.180   3.498   1.508  0.9251  0.8155 -1.2490
22376SOL    HW267707   1.173   3.566   1.643 -1.0202 -0.3362 -0.7259
22377SOL     OW67708   4.785   2.647   6.569 -0.9923  0.4577  0.1798
22377SOL    HW167709   4.817   2.622   6.656  0.1268  1.2172  0.0094
22377SOL    HW267710   4.826   2.731   6.552 -0.7317  0.0513 -1.3279
22378SOL     OW67711   2.411   8.845   3.309  0.0719  0.2974  0.5603
22378SOL    HW167712   2.457   8.763   3.326 -0.0083 -0.2778 -1.7012
22378SOL    HW267713   2.465   8.890   3.245 -1.0515  0.9534  0.0425
22379SOL     OW67714   1.898   8.687   8.691 -0.3186 -0.2527  0.1637
22379SOL    HW167715   1.984   8.701   8.732  1.0216 -1.3528 -2.0566
22379SOL    HW267716   1.917   8.684   8.597 -2.5650 -1.9953 -0.3235
22380SOL     OW67717   2.313   1.165   8.324  0.1492 -0.4192 -0.2509
22380SOL    HW167718   2.322   1.077   8.287 -2.1414 -0.1919 -1.5847
22380SOL    HW267719   2.394   1.179   8.373  0.4213 -3.4122  0.3713
22381SOL     OW67720   5.644   1.897   0.992 -0.3200  0.3080 -0.0695
22381SOL    HW167721   5.576   1.889   0.925 -2.0565 -1.3723  1.7527
22381SOL    HW267722   5.600   1.938   1.067  0.9336  0.0754  0.8375
22382SOL     OW67723   1.583   2.929   3.659 -0.1463  0.1403  0.1740
22382SOL    HW167724   1.525   2.987   3.610 -0.8344 -0.0097  0.7871
22382SOL    HW267725   1.639   2.987   3.710  0.0166  0.2840 -0.1717
22383SOL     OW67726   3.770   0.012   1.821 -0.1786  0.2034 -0.3001
22383SOL    HW167727   3.772   0.069   1.898 -0.0774  1.0039 -0.8801
22383SOL    HW267728   3.802  -0.072   1.853 -2.1700 -0.1218  1.0194
22384SOL     OW67729   8.204   0.882   8.195  0.0855  0.4402  0.5839
22384SOL    HW167730   8.188   0.898   8.102 -0.5178 -0.1281  0.5857
22384SOL    HW267731   8.215   0.787   8.201  0.3820  0.5029  1.0600
22385SOL     OW67732   6.016   2.915   5.250  0.0401 -0.3120  0.3128
22385SOL    HW167733   5.971   2.835   5.219  1.7783 -2.3474  2.6564
22385SOL    HW267734   6.087   2.927   5.187  0.9592 -1.8501  0.9926
22386SOL     OW67735   4.197   2.235   3.379 -0.0186  0.0046  0.1740
22386SOL    HW167736   4.224   2.292   3.306 -0.3228  1.3186  1.0526
22386SOL    HW267737   4.279   2.197   3.411  0.0675 -0.9646 -1.1367
22387SOL     OW67738   7.378   5.616   2.901  0.2141 -0.2658  0.1525
22387SOL    HW167739   7.350   5.532   2.865 -1.2612 -0.0776  0.8023
22387SOL    HW267740   7.313   5.678   2.870  0.6757  0.4445  0.5884
22388SOL     OW67741   0.563   8.213   1.424  0.2404  0.0933 -0.3078
22388SOL    HW167742   0.607   8.136   1.460  0.3752 -0.0990 -0.8761
22388SOL    HW267743   0.473   8.206   1.454  0.6913  0.7740  1.3327
22389SOL     OW67744   7.668   8.787   3.999 -0.0499  0.0157  0.0425
22389SOL    HW167745   7.595   8.737   4.035 -0.5950  1.1523  0.5792
22389SOL    HW267746   7.627   8.868   3.967  0.8387  0.2338 -0.5679
22390SOL     OW67747   1.968   9.800   4.717  0.0105 -0.5762 -0.4745
22390SOL    HW167748   1.927   9.837   4.795 -2.6534 -0.5843 -1.7501
22390SOL    HW267749   1.999   9.714   4.745 -0.1258 -0.2263  0.7945
22391SOL     OW67750   4.620   1.675   6.368  0.1836 -0.1941  0.1802
22391SOL    HW167751   4.561   1.624   6.424  0.2822 -0.6818 -0.1501
22391SOL    HW267752   4.614   1.633   6.283  2.3725 -1.4019  0.5538
22392SOL     OW67753   7.802   7.760   8.460  0.9988  0.9395 -0.3663
22392SOL    HW167754   7.763   7.838   8.422  1.4441  1.4737  0.2469
22392SOL    HW267755   7.770   7.688   8.406 -2.2419  1.1056  1.0709
22393SOL     OW67756   5.994   3.020   7.497 -0.1740  0.5318 -0.1042
22393SOL    HW167757   6.028   3.054   7.579  0.6220  0.5901 -0.4490
22393SOL    HW267758   6.028   2.931   7.492 -1.4241  0.0054  0.3141
22394SOL     OW67759   8.678   9.515   6.980  0.9448 -0.2664 -0.3563
22394SOL    HW167760   8.648   9.590   6.928  0.0587 -0.1571  0.2996
22394SOL    HW267761   8.769   9.502   6.952  0.9128  0.6516 -0.9398
22395SOL     OW67762   0.568   4.160   2.245  0.4677 -0.3491 -0.5866
22395SOL    HW167763   0.491   4.174   2.301  2.0980  1.2343  1.4574
22395SOL    HW267764   0.618   4.091   2.289  1.4385  0.4368 -0.4003
22396SOL     OW67765   8.990   9.983   5.783 -0.7566  0.6251  0.8884
22396SOL    HW167766   9.071  10.020   5.748 -1.9580  1.4451 -1.1890
22396SOL    HW267767   8.988   9.894   5.748 -1.2235  0.9403  0.0972
22397SOL     OW67768   8.889   4.837   1.697  0.6374  0.2508 -0.0754
22397SOL    HW167769   8.927   4.889   1.768  2.1415  0.2677 -0.8530
22397SOL    HW267770   8.879   4.750   1.735  2.3089  0.0216 -0.0779
22398SOL     OW67771   8.865   6.853   5.883 -0.2209 -0.3843  0.2204
22398SOL    HW167772   8.801   6.782   5.886 -0.4995 -0.2756 -1.6024
22398SOL    HW267773   8.823   6.926   5.928  0.1506 -1.3800  2.3003
22399SOL     OW67774   9.052   0.275   8.264  0.3519  0.2992  0.3324
22399SOL    HW167775   9.109   0.222   8.320 -0.5600  0.2316  1.2257
22399SOL    HW267776   9.035   0.219   8.188  2.5789  0.8472 -0.6456
22400SOL     OW67777   1.098   8.757   6.580  0.6256  1.1483  0.0441
22400SOL    HW167778   1.038   8.785   6.511  0.1936 -0.5313 -0.2952
22400SOL    HW267779   1.160   8.829   6.588  1.0252  1.1802 -2.5000
22401SOL     OW67780   0.678   5.689   2.914 -0.1502  0.0274  0.2331
22401SOL    HW167781   0.695   5.770   2.962  0.9180  0.3825 -0.6717
22401SOL    HW267782   0.588   5.666   2.935 -0.2252  1.0437  1.1009
22402SOL     OW67783   5.922   5.231   9.358  0.0717 -0.4901 -0.7580
22402SOL    HW167784   5.916   5.321   9.326 -2.3549 -0.3644 -0.1314
22402SOL    HW267785   5.864   5.181   9.301 -0.6100 -1.1396  0.4680
22403SOL     OW67786   8.936   9.264   1.755  0.1026  0.2598  1.0903
22403SOL    HW167787   8.908   9.190   1.702 -0.2622  0.9056  0.3631
22403SOL    HW267788   8.947   9.228   1.843 -1.6400 -0.3316  1.1021
22404SOL     OW67789   0.434   1.026   2.803 -0.1178  0.6099 -0.3079
22404SOL    HW167790   0.389   1.109   2.819 -1.3719 -0.3963  1.9578
22404SOL    HW267791   0.491   1.014   2.879 -1.5358 -1.4935  0.5556
22405SOL     OW67792   6.350   3.324   1.552  0.1656  0.5726  0.4424
22405SOL    HW167793   6.376   3.337   1.643 -0.4744 -1.7003  1.0022
22405SOL    HW267794   6.424   3.278   1.513  0.7948  2.2636 -0.4652
22406SOL     OW67795   5.823   3.035   1.881  0.0852  0.4043  0.4661
22406SOL    HW167796   5.794   2.974   1.813 -0.5652  1.7780 -0.5494
22406SOL    HW267797   5.835   2.981   1.959 -0.0477 -1.0752 -0.4959
22407SOL     OW67798   5.574   1.496   3.403  0.0340 -0.2922 -0.3319
22407SOL    HW167799   5.523   1.577   3.410 -0.5119 -0.5659 -1.0630
22407SOL    HW267800   5.633   1.510   3.330 -0.6614 -0.8686 -1.0163
22408SOL     OW67801   2.871   0.679   1.759  0.7953  0.8204 -0.4991
22408SOL    HW167802   2.922   0.677   1.678 -0.0647  0.6439 -1.0514
22408SOL    HW267803   2.888   0.594   1.800  0.9925  0.7885 -0.6453
22409SOL     OW67804   6.100   3.060   3.863  0.3734 -0.1983 -0.0447
22409SOL    HW167805   6.129   3.146   3.894  2.1904 -0.6825 -0.2336
22409SOL    HW267806   6.113   3.002   3.939  0.9256 -0.6322 -0.4626
22410SOL     OW67807   5.526   5.230   3.247  0.0318  0.7082 -0.0415
22410SOL    HW167808   5.560   5.190   3.327 -0.7426 -1.9094 -0.9289
22410SOL    HW267809   5.470   5.301   3.278 -0.3809 -0.3337  1.7632
22411SOL     OW67810   9.700   9.849   8.987 -0.6312 -0.3853 -0.2213
22411SOL    HW167811   9.773   9.904   9.017 -1.6624  1.2495 -0.5782
22411SOL    HW267812   9.667   9.808   9.067 -1.0742  1.0841  0.3742
22412SOL     OW67813   3.831   2.973   3.788  0.3322 -0.4907 -0.3602
22412SOL    HW167814   3.849   3.006   3.700 -0.6410 -1.0744 -0.8047
22412SOL    HW267815   3.736   2.980   3.796  0.4768  0.2436  0.9379
22413SOL     OW67816   9.949   4.336   7.062  0.2286 -0.1006  0.1945
22413SOL    HW167817   9.870   4.332   7.009 -0.3485  0.6473  0.9796
22413SOL    HW267818   9.959   4.247   7.097  0.2770 -0.4400 -0.6693
22414SOL     OW67819   4.152   7.270   8.061  0.1714  0.1537 -0.4891
22414SOL    HW167820   4.088   7.301   7.997 -0.3040  0.6816  0.2257
22414SOL    HW267821   4.169   7.346   8.117 -0.0853 -0.5234  0.5406
22415SOL     OW67822   5.339   5.870   1.128 -0.1424 -0.0082 -0.7145
22415SOL    HW167823   5.390   5.910   1.198 -2.0996  3.0908 -0.8577
22415SOL    HW267824   5.383   5.896   1.048  0.3396 -0.8892 -0.7465
22416SOL     OW67825   4.116   5.982   4.301  0.2152 -0.4704  0.0611
22416SOL    HW167826   4.150   5.995   4.213  1.0884 -0.7336  0.3566
22416SOL    HW267827   4.082   6.068   4.326  1.8014  0.1212  0.2396
22417SOL     OW67828   6.452   0.205   5.297 -0.1435 -0.3079  0.2243
22417SOL    HW167829   6.460   0.290   5.340  2.3505 -0.2160 -0.2718
22417SOL    HW267830   6.464   0.225   5.204  0.9258 -1.2435  0.1547
22418SOL     OW67831   7.122   5.682   6.247  0.5800  0.6582 -0.5871
22418SOL    HW167832   7.201   5.634   6.272 -0.0854  0.5046  1.4535
22418SOL    HW267833   7.150   5.773   6.239  1.4890  0.2514 -2.7086
22419SOL     OW67834   6.567   8.662   9.743 -0.3216 -0.2459 -0.2057
22419SOL    HW167835   6.581   8.610   9.664 -1.2057  1.5729 -1.6223
22419SOL    HW267836   6.647   8.715   9.751 -0.5270  0.0759 -0.2824
22420SOL     OW67837   6.627   8.141   1.860 -0.3083 -0.8369  0.0362
22420SOL    HW167838   6.711   8.148   1.814 -1.1236 -0.0090 -1.4066
22420SOL    HW267839   6.633   8.204   1.932 -0.6265  1.2029 -1.6428
22421SOL     OW67840   2.013   5.775   8.365 -0.0381  0.6308 -0.4924
22421SOL    HW167841   2.069   5.813   8.297  0.8275  3.6686  1.7171
22421SOL    HW267842   1.927   5.812   8.349 -0.1825  0.2087 -0.7253
22422SOL     OW67843   5.375   7.757   9.861 -0.4490  0.6395  0.0443
22422SOL    HW167844   5.291   7.747   9.816  0.1078 -0.8135 -0.7168
22422SOL    HW267845   5.386   7.676   9.911  0.4328  0.8768  0.2524
22423SOL     OW67846   8.885   4.884   3.807 -0.2017  0.0525 -0.5122
22423SOL    HW167847   8.852   4.878   3.718 -0.0426 -1.3333 -0.5010
22423SOL    HW267848   8.943   4.808   3.816 -0.2823  0.1280  0.7969
22424SOL     OW67849   8.303   1.738   3.898 -0.0029 -0.2468 -0.3054
22424SOL    HW167850   8.289   1.743   3.804 -0.7265 -0.3038 -0.2026
22424SOL    HW267851   8.327   1.827   3.924  0.3458 -0.2630 -0.5586
22425SOL     OW67852   9.494   0.871   0.260 -0.0878 -0.1024 -0.0557
22425SOL    HW167853   9.504   0.873   0.165  1.3420 -1.4639  0.0260
22425SOL    HW267854   9.429   0.803   0.276  0.4075 -0.5771 -0.0319
22426SOL     OW67855   5.764   6.420   3.157  0.6002 -0.2738  0.2188
22426SOL    HW167856   5.792   6.361   3.087  1.3712  1.5958 -1.1386
22426SOL    HW267857   5.750   6.504   3.114 -1.1762  0.4025  1.9443
22427SOL     OW67858   7.441   3.766   3.299 -0.0571  0.4786  0.1160
22427SOL    HW167859   7.532   3.760   3.328 -0.0811 -0.9600 -0.0025
22427SOL    HW267860   7.432   3.695   3.235 -0.4823  2.4134 -2.1169
22428SOL     OW67861   0.981   6.112   7.052  1.1051  0.5105 -0.3647
22428SOL    HW167862   0.890   6.091   7.030  0.7646  0.3903  1.0694
22428SOL    HW267863   1.033   6.050   7.001  0.3932  0.6263 -1.2546
22429SOL     OW67864   1.106   6.268   1.917  0.1055  0.7938  0.1406
22429SOL    HW167865   1.156   6.247   1.838 -0.0083 -0.0798  0.2849
22429SOL    HW267866   1.163   6.326   1.967  0.4526  0.8252 -0.2806
22430SOL     OW67867  -0.018   4.644   1.646 -0.0377  0.0378 -0.6499
22430SOL    HW167868  -0.032   4.722   1.701 -0.9193 -1.9558  2.1662
22430SOL    HW267869   0.073   4.620   1.663  0.0431  0.0638 -1.0317
22431SOL     OW67870   3.419   9.438   4.757 -0.1475  0.0390 -0.3039
22431SOL    HW167871   3.423   9.343   4.746 -1.2243  0.0118 -0.6678
22431SOL    HW267872   3.326   9.455   4.774 -0.0247  1.0536 -0.6028
22432SOL     OW67873   2.501   1.216   6.669  0.0626 -0.0584 -0.2857
22432SOL    HW167874   2.508   1.273   6.746  1.7506 -0.8797  0.2182
22432SOL    HW267875   2.502   1.127   6.705  0.6904 -0.4478 -1.2300
22433SOL     OW67876   4.525   8.078   9.874 -0.1829 -0.0744 -0.1841
22433SOL    HW167877   4.587   8.042   9.937  0.3497  1.0958 -0.0252
22433SOL    HW267878   4.493   8.159   9.915 -2.0369 -0.7710 -0.1339
22434SOL     OW67879   1.537   5.298   8.828  0.1341  0.3737  0.1451
22434SOL    HW167880   1.495   5.374   8.870 -0.4560 -0.3831  0.9471
22434SOL    HW267881   1.527   5.315   8.734 -1.4783  0.4904  0.3109
22435SOL     OW67882   2.788   1.008   9.973 -0.0347 -0.1703  0.3012
22435SOL    HW167883   2.852   1.066   9.933 -0.0307  0.4083  1.1347
22435SOL    HW267884   2.728   1.066  10.020 -0.1967 -0.8144  0.9064
22436SOL     OW67885   6.923   6.222   9.021 -0.4112 -0.5318  0.2515
22436SOL    HW167886   7.018   6.206   9.024 -0.1817  0.4936 -0.6560
22436SOL    HW267887   6.901   6.217   8.928 -1.5738 -2.3628  0.5855
22437SOL     OW67888   9.562   9.376   6.862  0.0093 -0.1373  0.6453
22437SOL    HW167889   9.555   9.453   6.805 -0.1857  0.8854  1.9984
22437SOL    HW267890   9.656   9.365   6.877 -0.0210  0.5720  1.3962
22438SOL     OW67891   5.052   4.322   4.307  0.2287 -0.1878 -0.6620
22438SOL    HW167892   5.088   4.374   4.235 -0.7056 -0.7125 -1.5360
22438SOL    HW267893   5.117   4.329   4.377  1.0331  0.5496 -1.4592
22439SOL     OW67894   2.927   1.334   7.564  0.2655  0.1851  0.2095
22439SOL    HW167895   2.919   1.329   7.659  0.1649  0.3569  0.2100
22439SOL    HW267896   2.974   1.254   7.540 -1.3596 -0.8210  0.2090
22440SOL     OW67897   4.660   5.999   5.298  0.1501  0.4209 -0.0733
22440SOL    HW167898   4.707   6.008   5.216  1.0227 -0.1414  0.3412
22440SOL    HW267899   4.669   6.083   5.342  1.6378  0.0303  0.4248
22441SOL     OW67900   3.520   2.663   1.355 -0.2172  0.0450 -0.1892
22441SOL    HW167901   3.452   2.687   1.419 -0.0181  0.0588  0.0193
22441SOL    HW267902   3.575   2.742   1.348 -0.6017  0.2604 -0.8499
22442SOL     OW67903   7.817   1.136   7.098 -0.0509 -0.0547 -0.1862
22442SOL    HW167904   7.898   1.105   7.139 -1.4741 -1.7645  1.4993
22442SOL    HW267905   7.766   1.057   7.082 -1.6422  1.0322 -0.6610
22443SOL     OW67906   2.052   2.294   1.694 -0.1074 -0.0228  0.0573
22443SOL    HW167907   2.122   2.304   1.758 -0.5212  0.2918  0.4615
22443SOL    HW267908   1.997   2.224   1.729 -1.8601  1.9482  1.4656
22444SOL     OW67909   3.734   1.700   0.097 -0.7469 -0.2611  0.4268
22444SOL    HW167910   3.773   1.686   0.011  0.3530 -0.4896  0.9439
22444SOL    HW267911   3.725   1.612   0.134 -2.4222 -0.2768  0.0594
22445SOL     OW67912   2.380   2.869   2.559 -0.2015 -0.3906 -0.1170
22445SOL    HW167913   2.344   2.830   2.639 -2.0972  1.0085 -0.2298
22445SOL    HW267914   2.326   2.833   2.489  1.6633 -1.8709 -0.8941
22446SOL     OW67915   1.561   7.180   8.454 -0.4120  1.2195 -0.4270
22446SOL    HW167916   1.553   7.189   8.549  1.5700  0.6260 -0.1679
22446SOL    HW267917   1.471   7.188   8.422 -1.2553  0.3999  1.5836
22447SOL     OW67918   7.558   7.687   6.748  0.3655  0.0160 -0.3067
22447SOL    HW167919   7.565   7.780   6.771  1.8519 -0.1906  0.2267
22447SOL    HW267920   7.639   7.668   6.702  0.1765 -1.0745 -0.2092
22448SOL     OW67921   9.620   4.133   9.286 -0.7316  0.0873  0.3215
22448SOL    HW167922   9.672   4.117   9.365 -0.6877  0.9607  0.4807
22448SOL    HW267923   9.681   4.116   9.214  0.1817  2.2370  0.5131
22449SOL     OW67924   6.233   1.435   3.780 -0.0535  0.6404 -0.2203
22449SOL    HW167925   6.240   1.527   3.804  0.5550  0.5791 -0.1516
22449SOL    HW267926   6.320   1.399   3.795 -0.5646 -0.2107  0.8674
22450SOL     OW67927   2.212   2.521   6.241 -0.3339  0.0940  0.4252
22450SOL    HW167928   2.213   2.510   6.146  0.7178  0.9909  0.3091
22450SOL    HW267929   2.257   2.604   6.256 -0.3147 -0.1276  1.7223
22451SOL     OW67930   4.152   4.268   3.352 -0.3337  0.3372 -0.2867
22451SOL    HW167931   4.170   4.212   3.276  2.1225 -1.1709  1.2385
22451SOL    HW267932   4.198   4.350   3.334  1.5110 -0.5520  0.0949
22452SOL     OW67933   7.541   1.309   2.475  0.5338  0.4519 -0.3230
22452SOL    HW167934   7.625   1.329   2.517 -0.1288  1.1664  0.6789
22452SOL    HW267935   7.499   1.394   2.463 -0.2257  0.0634 -0.4409
22453SOL     OW67936   1.577   0.993   1.917 -0.6496  0.4029 -0.3432
22453SOL    HW167937   1.557   1.018   1.827  1.1031  2.5611 -0.2474
22453SOL    HW267938   1.537   1.062   1.970 -1.6301 -0.8231  0.5473
22454SOL     OW67939   4.850   7.979   4.280  0.0994  0.0573 -0.2406
22454SOL    HW167940   4.802   7.931   4.348  1.0809 -0.9306 -0.2189
22454SOL    HW267941   4.813   7.947   4.198  0.2949 -0.2521 -0.2105
22455SOL     OW67942   5.426   1.631   8.931  0.1784 -0.5326  0.1769
22455SOL    HW167943   5.487   1.557   8.928  0.3664 -0.4340  1.2326
22455SOL    HW267944   5.439   1.670   9.018  0.2072  0.8605 -0.4330
22456SOL     OW67945   5.022   8.046   7.267  0.5350  0.3882 -0.6497
22456SOL    HW167946   5.040   7.968   7.215 -0.0756 -0.2300  0.0422
22456SOL    HW267947   4.954   8.092   7.218 -1.3590 -1.1102  0.4296
22457SOL     OW67948   7.119   3.720   7.346  0.0675  0.0816 -0.3356
22457SOL    HW167949   7.033   3.688   7.372 -0.1236  0.8137 -0.0358
22457SOL    HW267950   7.178   3.648   7.364 -0.5385 -0.5818 -0.9367
22458SOL     OW67951   0.473   6.797   0.756  0.3412  0.2627 -0.1674
22458SOL    HW167952   0.533   6.726   0.734  0.8172  0.6724 -0.2331
22458SOL    HW267953   0.403   6.790   0.691  0.4985 -0.0095 -0.3116
22459SOL     OW67954   0.579   4.585   9.932 -0.2989 -0.0617 -0.0054
22459SOL    HW167955   0.490   4.553   9.948  0.7772 -3.3569  0.1664
22459SOL    HW267956   0.623   4.577  10.016  0.6874 -0.5675 -0.5455
22460SOL     OW67957   9.798   3.017   4.424  0.1997 -0.1640  0.0016
22460SOL    HW167958   9.828   2.959   4.353 -2.4019  0.2857 -1.5694
22460SOL    HW267959   9.773   2.957   4.494 -2.4852 -1.1116 -1.6146
22461SOL     OW67960   6.388   8.638   1.346 -0.0028 -0.2489 -0.2329
22461SOL    HW167961   6.382   8.732   1.332  1.6219  0.1515  1.3827
22461SOL    HW267962   6.481   8.621   1.363 -0.6318 -1.5622  2.7558
22462SOL     OW67963   1.348   9.076   9.398  0.4193  0.1916 -0.2212
22462SOL    HW167964   1.374   9.122   9.318  0.4342 -0.2134 -0.4482
22462SOL    HW267965   1.426   9.028   9.425  0.6834  0.9781  0.5072
22463SOL     OW67966   2.634   9.176   0.474 -0.7891  0.2178  0.3536
22463SOL    HW167967   2.606   9.203   0.387 -1.6159 -0.3060  0.4355
22463SOL    HW267968   2.652   9.082   0.465 -0.3406  0.2754  0.6225
22464SOL     OW67969   7.439   3.850   9.673  0.3349  0.4154 -0.1366
22464SOL    HW167970   7.460   3.781   9.610  0.1995  0.5665 -0.3489
22464SOL    HW267971   7.353   3.883   9.646  0.2074  0.3785  0.2192
22465SOL     OW67972   7.329   2.106   3.333 -0.3577 -0.4109  0.2814
22465SOL    HW167973   7.322   2.018   3.370 -1.3609 -0.1902  0.6378
22465SOL    HW267974   7.245   2.147   3.353  0.6381  1.1518  1.4341
22466SOL     OW67975   3.381   3.057   5.771 -0.0631  0.3680 -0.7681
22466SOL    HW167976   3.307   3.018   5.817 -0.2892  0.6899 -0.8533
22466SOL    HW267977   3.449   2.990   5.773 -0.3404  0.0883 -0.6474
22467SOL     OW67978   2.318   3.635   0.737 -0.0411 -0.1164  0.2752
22467SOL    HW167979   2.299   3.668   0.649  1.3113  1.1048  0.4018
22467SOL    HW267980   2.305   3.710   0.794  2.0999 -0.0109  0.7069
22468SOL     OW67981   5.543   2.556   0.688 -0.0344 -0.9512 -0.3644
22468SOL    HW167982   5.550   2.552   0.783  2.0740 -0.1909 -0.4324
22468SOL    HW267983   5.634   2.558   0.658 -0.6046  2.2356 -2.2310
22469SOL     OW67984   3.837   4.216   3.928 -0.5308 -0.1416 -0.0776
22469SOL    HW167985   3.927   4.213   3.895 -0.4976  0.8390 -0.0936
22469SOL    HW267986   3.785   4.246   3.853 -0.5172  1.6508  0.5772
22470SOL     OW67987   4.131   3.466   2.902  0.4790  0.0700  0.5431
22470SOL    HW167988   4.202   3.441   2.843  2.1009 -0.8124  2.7060
22470SOL    HW267989   4.067   3.395   2.894  0.8154 -0.1849  0.0665
22471SOL     OW67990   1.229   3.591   0.526 -0.0659  0.2703 -0.1091
22471SOL    HW167991   1.286   3.584   0.603 -1.6030  0.6046  1.1246
22471SOL    HW267992   1.200   3.501   0.510  1.2966 -0.0080 -1.1690
22472SOL     OW67993   3.124   5.910   6.795 -0.0261 -0.0955  0.0871
22472SOL    HW167994   3.063   5.931   6.866 -2.1335 -0.2224 -1.5956
22472SOL    HW267995   3.210   5.912   6.837 -1.2455 -1.9278  3.0794
22473SOL     OW67996   8.047   0.460   2.809  0.0331  0.2293 -0.8229
22473SOL    HW167997   8.099   0.491   2.735 -0.8065 -0.6693 -1.8262
22473SOL    HW267998   8.005   0.380   2.778  0.7490 -0.9747  1.0964
22474SOL     OW67999   1.850   6.314   9.244 -0.0349 -0.1930 -0.0461
22474SOL    HW168000   1.798   6.277   9.315  0.7962  1.5146  1.5327
22474SOL    HW268001   1.927   6.256   9.239  0.2945  0.1195  1.0408
22475SOL     OW68002   2.386  -0.007   1.720 -0.2786 -0.1007  0.3711
22475SOL    HW168003   2.450   0.046   1.766 -2.1061  0.2889  2.6311
22475SOL    HW268004   2.322   0.056   1.687  0.6571 -0.4319 -2.3218
22476SOL     OW68005   8.648   5.962   6.547 -0.7804  0.1279 -0.0925
22476SOL    HW168006   8.666   5.980   6.454  0.6801 -0.1636  0.1084
22476SOL    HW268007   8.721   6.002   6.594 -0.3722 -1.5326  0.7604
22477SOL     OW68008   6.690   7.415   8.519  0.8692 -0.3691  0.4740
22477SOL    HW168009   6.652   7.450   8.600  0.5143  0.7076 -0.1446
22477SOL    HW268010   6.616   7.371   8.476  0.7407  0.1742  0.1290
22478SOL     OW68011   1.422   0.994   2.538  0.0326  1.2047  0.4285
22478SOL    HW168012   1.473   1.034   2.609 -0.6303  1.2069  0.9040
22478SOL    HW268013   1.337   1.037   2.542  0.0137  1.2692 -0.4340
22479SOL     OW68014   9.453   5.602   5.232 -0.5750  0.4047  0.1483
22479SOL    HW168015   9.522   5.540   5.256 -1.2074  0.0569  1.0917
22479SOL    HW268016   9.405   5.557   5.162  0.3010  0.7587 -0.6998
22480SOL     OW68017   0.910   0.764   7.484  0.0810 -0.2025  0.0827
22480SOL    HW168018   0.904   0.837   7.423 -2.7333 -1.2264 -1.0555
22480SOL    HW268019   0.971   0.702   7.443  0.7844  0.5476 -0.0199
22481SOL     OW68020   3.733   2.299   8.599  0.1248 -0.2469 -0.2383
22481SOL    HW168021   3.721   2.320   8.506  0.6006 -1.5649 -0.6321
22481SOL    HW268022   3.828   2.295   8.610  0.0645 -0.7347  0.1365
22482SOL     OW68023   6.948   1.412   9.615  0.3902 -0.1087  0.1495
22482SOL    HW168024   6.867   1.361   9.609  0.2634  0.0913  0.1544
22482SOL    HW268025   6.932   1.489   9.561  0.5708 -0.0580  0.1673
22483SOL     OW68026   9.374   0.926   5.329  0.7085 -0.0226 -0.2117
22483SOL    HW168027   9.363   0.873   5.250  0.2907  0.4975 -0.5056
22483SOL    HW268028   9.435   0.995   5.304  0.0954  0.5051 -0.2664
22484SOL     OW68029   6.087   0.598   4.463 -0.7179 -0.1610 -0.2777
22484SOL    HW168030   6.129   0.672   4.419  1.3376 -1.6898 -1.0261
22484SOL    HW268031   6.139   0.584   4.542 -0.0074 -1.8258 -1.0004
22485SOL     OW68032   1.352   0.461   9.311  0.1300  0.0725  0.1543
22485SOL    HW168033   1.436   0.461   9.357 -0.2166 -3.8916  1.1347
22485SOL    HW268034   1.290   0.426   9.374 -1.4089 -0.8337 -1.7628
22486SOL     OW68035   2.808   7.206   9.703  0.2923 -0.0947 -0.0661
22486SOL    HW168036   2.812   7.209   9.798  1.1601 -1.7071 -0.0288
22486SOL    HW268037   2.739   7.269   9.680 -0.0478  0.1844  1.6122
22487SOL     OW68038   5.610   7.550   2.493  0.6012 -0.3806 -0.3519
22487SOL    HW168039   5.568   7.570   2.409  0.5860  0.9913 -0.0265
22487SOL    HW268040   5.543   7.502   2.542  0.2037 -0.1662 -0.6775
22488SOL     OW68041   3.068   5.491   9.134 -0.6222  0.6730 -0.0972
22488SOL    HW168042   3.073   5.580   9.169 -0.1497  0.7615 -0.3846
22488SOL    HW268043   2.975   5.467   9.144 -0.6862  1.0607  0.3058
22489SOL     OW68044   4.319   9.886   6.039  0.1633 -0.6292  0.1254
22489SOL    HW168045   4.301   9.804   6.084 -0.4706  0.6242  2.3179
22489SOL    HW268046   4.340   9.948   6.109  1.0581  0.9777 -1.4796
22490SOL     OW68047   1.906   1.531   6.408 -0.4641  0.5166  0.5167
22490SOL    HW168048   1.845   1.585   6.459  0.7504  2.4322  0.0559
22490SOL    HW268049   1.929   1.585   6.333  1.3411 -0.3747  0.3691
22491SOL     OW68050   9.714   7.864   8.586 -0.7531 -0.1746  0.1555
22491SOL    HW168051   9.795   7.815   8.571 -0.5079  0.0966  0.5857
22491SOL    HW268052   9.731   7.916   8.665 -1.6283 -0.7096  0.7072
22492SOL     OW68053   8.343   1.827   8.003 -0.3960 -0.0417 -0.4456
22492SOL    HW168054   8.421   1.818   8.058 -0.4774 -2.1508 -0.5846
22492SOL    HW268055   8.285   1.884   8.053  0.9850  1.0855 -0.0726
22493SOL     OW68056   2.170   7.898   1.922  0.0995 -0.4016 -0.0152
22493SOL    HW168057   2.264   7.913   1.927  0.1204 -0.3478 -0.5202
22493SOL    HW268058   2.151   7.896   1.828 -0.5970  0.8506  0.0835
22494SOL     OW68059   3.831   6.326   3.750  0.7143  0.5204  0.3475
22494SOL    HW168060   3.893   6.348   3.820  1.0223  1.1874 -0.1196
22494SOL    HW268061   3.834   6.402   3.691 -1.0959  0.9086  0.6923
22495SOL     OW68062   3.754   2.324   5.148 -0.3723 -0.0079 -0.6062
22495SOL    HW168063   3.761   2.417   5.170 -0.0184  0.4941 -2.6225
22495SOL    HW268064   3.679   2.320   5.088 -0.1989 -0.9791 -0.7674
22496SOL     OW68065   2.239   4.851   2.875  1.0457  0.3938  0.0855
22496SOL    HW168066   2.245   4.788   2.803 -1.2192  0.6286 -0.3917
22496SOL    HW268067   2.149   4.883   2.871  0.9976  0.8003  2.7460
22497SOL     OW68068   6.857   0.687   4.543  0.0509 -0.4121  0.9908
22497SOL    HW168069   6.898   0.772   4.557  0.5092 -0.6501  1.1277
22497SOL    HW268070   6.915   0.625   4.586 -0.5385 -0.7458  1.3139
22498SOL     OW68071   9.684   1.646   8.577  0.8178  0.0765  0.6760
22498SOL    HW168072   9.592   1.619   8.570  1.3374 -1.6228  0.0690
22498SOL    HW268073   9.684   1.707   8.651 -1.0657  1.4425 -0.3460
22499SOL     OW68074   3.855   6.880   4.367 -0.5187 -0.1086 -0.2318
22499SOL    HW168075   3.874   6.787   4.358  1.5588  0.4183 -2.2041
22499SOL    HW268076   3.900   6.906   4.447  1.6178 -0.2508 -1.3094
22500SOL     OW68077   4.074   3.470   0.770 -0.4765  0.0274  0.3338
22500SOL    HW168078   4.049   3.381   0.744 -1.8796  0.2335  0.8806
22500SOL    HW268079   4.157   3.459   0.815 -0.1710 -0.8851 -0.4017
22501SOL     OW68080   8.209   2.571   3.956  0.0411  0.0342 -0.0395
22501SOL    HW168081   8.231   2.495   4.010 -0.9227 -0.7062 -0.6494
22501SOL    HW268082   8.226   2.543   3.867 -1.1482  0.2159 -0.3421
22502SOL     OW68083   8.024   8.806   6.758 -0.8958  0.1028  0.0753
22502SOL    HW168084   7.999   8.765   6.675  1.4714 -1.1726 -0.0974
22502SOL    HW268085   7.959   8.774   6.821 -0.6484 -1.8452 -0.5923
22503SOL     OW68086   5.002   2.113   1.408 -0.1934 -0.5194 -0.2092
22503SOL    HW168087   4.935   2.062   1.363 -0.4546  0.5497 -1.0803
22503SOL    HW268088   4.955   2.157   1.479 -0.1129 -0.9243  0.0960
22504SOL     OW68089   7.202   7.881   5.741  0.4124  0.3860  0.3287
22504SOL    HW168090   7.184   7.950   5.677 -2.1034  1.3545  1.9495
22504SOL    HW268091   7.155   7.805   5.709 -0.1678  0.6264  0.6081
22505SOL     OW68092   5.243   5.701   4.849  0.5117 -0.2577 -0.2082
22505SOL    HW168093   5.221   5.640   4.919  0.8226 -0.1675 -0.0291
22505SOL    HW268094   5.182   5.680   4.778  1.5484 -1.7496 -0.7143
22506SOL     OW68095   5.394   6.152   0.490  0.0006 -0.0497  0.3480
22506SOL    HW168096   5.469   6.204   0.518 -2.1409  3.3091  0.4581
22506SOL    HW268097   5.400   6.153   0.394 -0.5009  1.3426  0.3005
22507SOL     OW68098   2.519   7.983   3.919 -0.4050 -0.4502  0.5900
22507SOL    HW168099   2.606   7.987   3.959 -0.6310 -1.2747  1.1909
22507SOL    HW268100   2.522   7.904   3.865 -0.9857 -0.8501  1.1302
22508SOL     OW68101   4.403   0.747   6.841 -1.1252 -1.0794  0.1462
22508SOL    HW168102   4.444   0.796   6.912 -0.8301  0.7610 -1.2066
22508SOL    HW268103   4.369   0.815   6.782 -0.8444 -2.5215 -1.7633
22509SOL     OW68104   0.264   2.139   6.128  0.0387 -0.2200  0.1343
22509SOL    HW168105   0.206   2.112   6.056 -0.7897  0.5547  0.4880
22509SOL    HW268106   0.283   2.058   6.175 -1.4938 -0.4024  0.5133
22510SOL     OW68107   4.497   6.182   4.130 -0.5385 -0.7119  0.5395
22510SOL    HW168108   4.420   6.231   4.158 -0.6358 -0.6080  0.0984
22510SOL    HW268109   4.547   6.243   4.076 -0.5449 -1.0188  0.1784
22511SOL     OW68110   4.505   9.161   9.700 -0.0877 -0.0625  0.0589
22511SOL    HW168111   4.477   9.111   9.623  2.1370 -0.3901 -0.6226
22511SOL    HW268112   4.523   9.249   9.667  1.3370 -0.3270  0.0516
22512SOL     OW68113   8.437   6.482   3.841  0.5717 -0.1862 -0.3998
22512SOL    HW168114   8.527   6.501   3.869  0.5895 -1.1661  0.2595
22512SOL    HW268115   8.382   6.513   3.912  0.4023  0.1248 -0.6627
22513SOL     OW68116   5.529   7.761   7.037  0.1950 -0.4112  0.1173
22513SOL    HW168117   5.435   7.767   7.023  0.0072  0.7005  1.5256
22513SOL    HW268118   5.552   7.845   7.077  1.9889 -0.2105 -1.2167
22514SOL     OW68119   5.685   3.311   0.066 -0.0095 -0.4445 -0.1578
22514SOL    HW168120   5.697   3.406   0.063  0.4665 -0.4361  1.2957
22514SOL    HW268121   5.616   3.294   0.003  0.7838  0.7095 -1.3947
22515SOL     OW68122   7.541   4.079   4.970  0.7640  0.3855  0.4477
22515SOL    HW168123   7.490   4.037   4.901  0.4957  0.2993  0.6962
22515SOL    HW268124   7.501   4.049   5.051 -1.6465  3.6252  0.7009
22516SOL     OW68125   4.905   2.428   5.672  0.2747 -0.2667 -0.6006
22516SOL    HW168126   4.906   2.506   5.616  0.7300  0.2722  0.1272
22516SOL    HW268127   4.873   2.358   5.616 -1.8777  0.8082 -0.7986
22517SOL     OW68128   5.598   1.995   7.039  0.1758  0.2710  0.2012
22517SOL    HW168129   5.512   2.018   7.075 -1.2887 -0.5653 -2.5349
22517SOL    HW268130   5.585   1.994   6.945  3.6005  1.5660 -0.4175
22518SOL     OW68131   2.603   7.351   0.037  0.2000 -0.5113 -0.1992
22518SOL    HW168132   2.513   7.341   0.004 -0.6762  1.0803  1.5306
22518SOL    HW268133   2.607   7.292   0.113  0.4377 -0.1780  0.0471
22519SOL     OW68134   1.764   8.257   4.816 -0.2199 -0.8324  0.4587
22519SOL    HW168135   1.705   8.267   4.891 -2.4229  3.2586 -1.5259
22519SOL    HW268136   1.710   8.218   4.748 -0.2991  1.4762 -0.8882
22520SOL     OW68137   4.540   5.905   4.119  0.2815  0.1321  0.4165
22520SOL    HW168138   4.549   5.997   4.140  3.0142 -0.2274  1.1170
22520SOL    HW268139   4.506   5.865   4.200  1.5586  0.1871  1.0067
22521SOL     OW68140   6.400   0.688   6.207  0.0266 -0.3512 -0.0757
22521SOL    HW168141   6.344   0.720   6.136 -0.9750 -0.3703  0.6779
22521SOL    HW268142   6.380   0.595   6.213 -0.8773 -0.1038  1.0643
22522SOL     OW68143   1.987   8.830   7.717  0.4169  0.5277  0.0831
22522SOL    HW168144   1.900   8.791   7.723 -1.1121  3.0832 -2.4543
22522SOL    HW268145   1.997   8.881   7.797 -0.9777  1.0507 -0.0407
22523SOL     OW68146   4.409   9.487   5.755  0.5097 -0.0479 -0.1054
22523SOL    HW168147   4.324   9.444   5.743  0.5475 -0.1822  0.1003
22523SOL    HW268148   4.439   9.506   5.667 -1.7645  4.0697 -0.2222
22524SOL     OW68149   4.173   7.553   2.191  0.0524 -0.1497 -0.2979
22524SOL    HW168150   4.236   7.486   2.219 -0.4101 -0.3433  0.3120
22524SOL    HW268151   4.110   7.558   2.263 -1.4622 -0.9996 -1.5061
22525SOL     OW68152   0.917   0.953   8.908 -0.2567  0.5500 -0.1503
22525SOL    HW168153   0.930   0.917   8.996 -0.1002  1.7686  0.3410
22525SOL    HW268154   0.829   0.922   8.883 -1.1518  1.8063  1.2650
22526SOL     OW68155   6.642   9.534   1.163 -0.0218  0.3925  0.1232
22526SOL    HW168156   6.706   9.465   1.180 -0.9732 -0.1052  1.9501
22526SOL    HW268157   6.694   9.614   1.156  0.8939 -0.1667  0.4184
22527SOL     OW68158   7.222   2.297   9.509  0.0632  0.2111 -0.3787
22527SOL    HW168159   7.245   2.378   9.555 -1.0112  0.1269  0.3245
22527SOL    HW268160   7.249   2.313   9.418  2.0546  0.4479  0.2113
22528SOL     OW68161   2.120   5.032   6.272 -0.0910  0.2641 -0.6139
22528SOL    HW168162   2.128   4.937   6.278  0.7888  0.3960  0.7564
22528SOL    HW268163   2.040   5.046   6.221 -0.8902 -1.2132  0.1632
22529SOL     OW68164   7.192   3.391   2.827  0.3626 -0.1870  0.0870
22529SOL    HW168165   7.187   3.440   2.910 -1.2576 -0.3378  0.1117
22529SOL    HW268166   7.244   3.314   2.849  1.5989  0.7229  0.4562
22530SOL     OW68167   5.061   3.442   8.183  0.0226 -0.0820 -0.4829
22530SOL    HW168168   5.022   3.367   8.227 -0.7040 -0.2022 -1.3132
22530SOL    HW268169   5.155   3.427   8.189 -0.1118 -0.9631 -0.4876
22531SOL     OW68170   9.383   8.144   6.082 -0.3376 -0.4313 -0.0736
22531SOL    HW168171   9.423   8.213   6.133  1.6838 -1.3142 -0.3640
22531SOL    HW268172   9.394   8.172   5.991 -1.0934 -0.3346 -0.1436
22532SOL     OW68173   0.732   2.580   2.889  0.8155 -0.1274  0.4494
22532SOL    HW168174   0.756   2.488   2.875  1.6974  0.1294  0.2509
22532SOL    HW268175   0.721   2.587   2.984  0.8997 -0.3979  0.4816
22533SOL     OW68176   5.717   3.766   2.643  0.0119 -0.5540  0.3009
22533SOL    HW168177   5.695   3.676   2.665  0.7485 -0.4889  1.4347
22533SOL    HW268178   5.688   3.778   2.553 -1.3808 -1.4863  0.6024
22534SOL     OW68179   4.569   4.399   9.442 -0.3337 -0.1548  0.1233
22534SOL    HW168180   4.664   4.402   9.427 -0.1867 -0.8187  0.8975
22534SOL    HW268181   4.540   4.319   9.397 -0.5262  0.0129 -0.0564
22535SOL     OW68182   8.119   5.141   4.730 -0.5722 -0.0545 -0.4484
22535SOL    HW168183   8.061   5.217   4.725  0.5265  0.8385 -0.0131
22535SOL    HW268184   8.173   5.157   4.807  1.7251  0.2389 -2.0263
22536SOL     OW68185   9.454   4.331   6.052 -0.3437 -0.0584  0.4113
22536SOL    HW168186   9.441   4.405   5.994 -1.7431 -0.3877  0.2736
22536SOL    HW268187   9.518   4.276   6.007  0.8013  1.0852  0.5691
22537SOL     OW68188   4.897   3.306   1.876  0.5905 -0.0581 -0.2891
22537SOL    HW168189   4.933   3.228   1.918  0.4973  0.6994  1.2518
22537SOL    HW268190   4.973   3.359   1.853  0.7088 -0.9038 -2.0756
22538SOL     OW68191   7.508   2.492   1.735  0.2611 -0.5649  0.5629
22538SOL    HW168192   7.424   2.469   1.776  0.1343  1.2609  1.3913
22538SOL    HW268193   7.531   2.576   1.772  1.4377 -0.0325 -1.2429
22539SOL     OW68194   7.730   6.745   0.645  0.5388 -0.2328  0.2652
22539SOL    HW168195   7.805   6.802   0.663  1.6598 -0.6067 -2.5788
22539SOL    HW268196   7.768   6.659   0.631  0.1165  0.0273 -3.7711
22540SOL     OW68197   8.146   9.107   5.239  0.1530  0.2714  0.4719
22540SOL    HW168198   8.109   9.128   5.325 -0.0874  0.1035  0.4081
22540SOL    HW268199   8.074   9.121   5.178 -0.2669 -1.4950  0.5054
22541SOL     OW68200   5.209   4.067   0.888 -0.3566  0.1645 -0.6462
22541SOL    HW168201   5.301   4.066   0.863 -0.1524 -0.1008  0.1061
22541SOL    HW268202   5.180   4.156   0.869  0.1589  0.3665 -0.4964
22542SOL     OW68203   7.284  -0.001   8.896 -0.0447 -0.0238  0.0563
22542SOL    HW168204   7.318   0.001   8.807  0.8225  1.2105  0.3936
22542SOL    HW268205   7.251   0.088   8.911 -1.8819 -0.7034  0.3506
22543SOL     OW68206   5.680   5.178   4.256  0.1484 -0.9016 -0.1856
22543SOL    HW168207   5.677   5.210   4.346  0.7435 -1.1479 -0.0725
22543SOL    HW268208   5.590   5.156   4.235 -0.3383  1.0591 -0.3587
22544SOL     OW68209   4.511   5.576   9.270  0.1073  0.6551  1.1342
22544SOL    HW168210   4.461   5.633   9.329 -1.5961  1.6774 -1.1141
22544SOL    HW268211   4.541   5.634   9.200 -0.5378 -0.9182 -0.5501
22545SOL     OW68212   9.261   9.786   6.009  0.0113  0.4930  0.2914
22545SOL    HW168213   9.280   9.873   5.974 -1.2930  1.4818  1.8690
22545SOL    HW268214   9.346   9.747   6.027  0.6494  2.2867  1.4262
22546SOL     OW68215   4.067   6.434   5.082 -0.2230 -0.4928  0.1408
22546SOL    HW168216   4.132   6.448   5.013 -1.5995 -0.7539 -1.2469
22546SOL    HW268217   4.063   6.518   5.127  0.7893 -0.3565  0.0170
22547SOL     OW68218   6.604   1.069   7.547  0.5350 -0.2594  0.1740
22547SOL    HW168219   6.535   1.004   7.557  0.6450 -0.7557 -1.8248
22547SOL    HW268220   6.684   1.023   7.573  0.7109 -1.2342 -1.8679
22548SOL     OW68221   8.642   1.513   5.947 -0.6913  0.0212  0.4752
22548SOL    HW168222   8.575   1.444   5.944  1.1449 -1.8308 -0.6658
22548SOL    HW268223   8.645   1.546   5.857 -0.7581  0.7898  0.7538
22549SOL     OW68224   2.748   5.561   1.340  0.4415  0.2628  0.7076
22549SOL    HW168225   2.810   5.585   1.409  0.1023  1.1748  0.7074
22549SOL    HW268226   2.674   5.522   1.387  0.9999 -0.8287  0.7083
22550SOL     OW68227   9.332   4.759   8.893 -0.5167  0.2133  0.2137
22550SOL    HW168228   9.395   4.821   8.930  0.7764 -1.6049  1.2118
22550SOL    HW268229   9.329   4.687   8.957 -2.6782 -0.3315 -0.4353
22551SOL     OW68230   0.761   1.250   5.348  0.2291  0.0678  0.2891
22551SOL    HW168231   0.835   1.214   5.300 -0.1926 -0.4152 -0.0053
22551SOL    HW268232   0.797   1.271   5.434  0.3536 -1.6995  0.7199
22552SOL     OW68233   3.636   5.012   3.312  0.3085 -0.6789 -0.0573
22552SOL    HW168234   3.580   4.938   3.332  0.4350 -1.1494 -1.3521
22552SOL    HW268235   3.606   5.043   3.227  0.7413  0.3040  0.1275
22553SOL     OW68236   5.362   1.227   2.946  0.4745  0.5409  0.1905
22553SOL    HW168237   5.286   1.189   2.991  0.5530  0.8277  0.5695
22553SOL    HW268238   5.351   1.200   2.855  0.4775 -0.3030  0.4290
22554SOL     OW68239   3.553   2.236   3.920 -0.5090 -0.8519 -1.1241
22554SOL    HW168240   3.506   2.318   3.933  0.8339 -0.2651  0.3902
22554SOL    HW268241   3.615   2.255   3.849 -0.9898 -0.9154 -1.5600
22555SOL     OW68242   0.776   4.084   5.467  0.3554 -0.2675  0.4319
22555SOL    HW168243   0.849   4.035   5.429 -0.9006 -1.4740 -0.5463
22555SOL    HW268244   0.719   4.104   5.392  0.6305  2.4762  0.8331
22556SOL     OW68245   0.155   3.672   3.325  0.0871 -0.0093  0.2018
22556SOL    HW168246   0.116   3.622   3.396  1.0340 -2.6135 -0.9725
22556SOL    HW268247   0.249   3.653   3.331  0.5822  2.0726 -0.0380
22557SOL     OW68248   6.386   6.658   3.959 -0.4168 -0.4744  0.1281
22557SOL    HW168249   6.334   6.578   3.954  0.6504 -1.1844  0.1333
22557SOL    HW268250   6.346   6.717   3.895  0.3198 -1.9277 -1.7589
22558SOL     OW68251   7.232   8.145   7.962  0.1623  0.3096 -0.5448
22558SOL    HW168252   7.223   8.173   8.053  3.1840 -2.6873  0.8913
22558SOL    HW268253   7.281   8.215   7.920  0.4099  0.8830  0.6570
22559SOL     OW68254   1.921   5.444   6.358 -0.2968 -0.7827 -0.2341
22559SOL    HW168255   1.990   5.425   6.294  0.4043 -0.0513  0.2850
22559SOL    HW268256   1.840   5.420   6.313  0.0725  0.6937 -1.8408
22560SOL     OW68257   3.593   4.485   3.407 -0.5811 -0.3096 -0.1708
22560SOL    HW168258   3.620   4.471   3.498 -1.1170 -2.1331 -0.2517
22560SOL    HW268259   3.549   4.570   3.408  0.2215  0.1253  1.0728
22561SOL     OW68260   2.852   3.491   4.272  0.1896 -1.0594  0.2035
22561SOL    HW168261   2.803   3.480   4.190  0.8207 -3.5235  0.0793
22561SOL    HW268262   2.941   3.467   4.249  0.6922 -0.2887  1.3028
22562SOL     OW68263   7.400   9.715   0.720  0.0282 -0.3714  0.2645
22562SOL    HW168264   7.351   9.725   0.638 -0.5562 -0.4017  0.6027
22562SOL    HW268265   7.434   9.802   0.738  1.1380 -0.6060 -0.6054
22563SOL     OW68266   2.163   1.227   4.242  0.5002 -0.0493  0.0749
22563SOL    HW168267   2.193   1.240   4.332  0.7060 -0.4356  0.0634
22563SOL    HW268268   2.068   1.240   4.246  0.8230  3.2086 -0.2440
22564SOL     OW68269   8.084   1.081   7.735  0.5403  0.5692 -0.0783
22564SOL    HW168270   8.143   1.145   7.696  1.1948 -0.1564 -0.2880
22564SOL    HW268271   8.130   1.049   7.812 -0.0631  0.8186  0.3954
22565SOL     OW68272   9.818   9.794   3.129  0.3936  0.2367 -0.5503
22565SOL    HW168273   9.794   9.718   3.077  1.1798  0.3326 -1.0707
22565SOL    HW268274   9.785   9.774   3.217 -1.5102  0.3604 -1.1965
22566SOL     OW68275   1.183   8.516   9.530 -0.8321  0.0473  0.1520
22566SOL    HW168276   1.240   8.439   9.534 -0.1193  0.6253  1.8180
22566SOL    HW268277   1.133   8.504   9.449  1.3912 -0.6746 -1.2325
22567SOL     OW68278   0.124   3.134   9.491  0.0502 -0.0030  0.9468
22567SOL    HW168279   0.193   3.200   9.484 -1.2165  1.1779 -1.6218
22567SOL    HW268280   0.075   3.158   9.570  1.0477  0.6312  1.3871
22568SOL     OW68281   0.548   1.213   7.739 -0.6217 -0.5351  0.3403
22568SOL    HW168282   0.490   1.284   7.711 -1.6923 -1.5766 -0.2186
22568SOL    HW268283   0.557   1.225   7.833 -1.6576 -0.2541  0.4227
22569SOL     OW68284   2.876   1.625   3.924  0.0176 -0.0795  0.6985
22569SOL    HW168285   2.802   1.684   3.929 -0.2843 -0.3849 -0.0591
22569SOL    HW268286   2.838   1.538   3.936 -0.0278 -0.4014 -1.3427
22570SOL     OW68287   5.615   7.770   7.657  0.1785 -0.0849 -0.2510
22570SOL    HW168288   5.656   7.702   7.710  0.5420  0.5490  0.3032
22570SOL    HW268289   5.548   7.808   7.715 -2.2196 -2.0168 -1.5823
22571SOL     OW68290   4.342   2.619   5.475 -0.1760 -0.4156 -0.6520
22571SOL    HW168291   4.342   2.586   5.565  0.0411 -0.7268 -0.7668
22571SOL    HW268292   4.253   2.651   5.461 -0.1582 -0.1852 -0.2604
22572SOL     OW68293   8.164   1.349   7.320 -0.0222  0.0512  0.3967
22572SOL    HW168294   8.134   1.327   7.408 -2.9602  1.8669 -0.0288
22572SOL    HW268295   8.190   1.441   7.327 -1.2456  0.5143 -0.8031
22573SOL     OW68296   9.325   7.466   5.678 -0.3082 -0.0283  0.1817
22573SOL    HW168297   9.407   7.437   5.719 -0.3920 -1.5197 -0.6398
22573SOL    HW268298   9.351   7.541   5.624  0.7167 -1.0402 -0.7886
22574SOL     OW68299   4.637   8.131   3.905  1.2208 -0.5480 -0.4615
22574SOL    HW168300   4.561   8.187   3.920  1.4840 -0.2779 -0.1114
22574SOL    HW268301   4.620   8.088   3.821 -0.1968 -1.9270  0.4725
22575SOL     OW68302   1.781   4.223   0.503 -0.5950 -0.4476  0.1341
22575SOL    HW168303   1.800   4.169   0.580 -0.8930 -0.1895  0.3959
22575SOL    HW268304   1.815   4.174   0.429 -1.0415 -1.0900  0.3462
22576SOL     OW68305   5.374   4.656   3.515 -0.1478  0.0130  0.1103
22576SOL    HW168306   5.297   4.598   3.522  0.4085 -0.8840 -0.8615
22576SOL    HW268307   5.391   4.661   3.421  1.6054 -0.6711  0.3551
22577SOL     OW68308   8.195   8.922   0.089 -0.3572  0.4889  0.7446
22577SOL    HW168309   8.216   9.015   0.083 -1.3748  0.7327  0.8761
22577SOL    HW268310   8.141   8.914   0.167 -1.4340  0.0153 -0.0240
22578SOL     OW68311   3.774   1.938   8.366  0.1516 -0.5616 -0.2778
22578SOL    HW168312   3.690   1.981   8.384  0.0172 -1.2690  0.9313
22578SOL    HW268313   3.785   1.877   8.439  3.4061  1.9726  1.6074
22579SOL     OW68314   4.132   7.433   9.740 -0.2425  0.1219  0.8702
22579SOL    HW168315   4.108   7.426   9.647  1.2135 -1.4473  0.5798
22579SOL    HW268316   4.050   7.457   9.784 -0.9919  0.7422 -0.7789
22580SOL     OW68317   5.833   2.239   4.402 -0.2949  0.5693  0.1999
22580SOL    HW168318   5.872   2.185   4.333 -0.5904  0.6723 -0.0498
22580SOL    HW268319   5.756   2.189   4.431 -0.3422  0.6685  0.2447
22581SOL     OW68320   8.579   7.036   5.319  0.3246  0.3159 -0.4689
22581SOL    HW168321   8.672   7.034   5.342  0.4326  3.5590 -0.1497
22581SOL    HW268322   8.533   7.033   5.403  0.2356  0.8450 -0.4967
22582SOL     OW68323   8.387   6.646   8.829  0.1022  0.4083 -0.1232
22582SOL    HW168324   8.457   6.585   8.804  0.5978  1.1301 -0.5210
22582SOL    HW268325   8.310   6.614   8.782 -0.0047 -0.7526  0.7884
22583SOL     OW68326   4.405   7.371   4.027 -0.2854  0.3292  0.1102
22583SOL    HW168327   4.484   7.386   3.975  0.0249  0.1721  0.5240
22583SOL    HW268328   4.373   7.458   4.049 -0.1043  0.3947  0.1163
22584SOL     OW68329   4.349   8.075   4.310  0.3547  0.1094 -0.5558
22584SOL    HW168330   4.270   8.074   4.363  0.9053  0.0197  0.2798
22584SOL    HW268331   4.318   8.063   4.220 -0.4184 -2.2685 -0.0403
22585SOL     OW68332   8.504   8.508   1.691  0.0456 -0.7005 -0.4648
22585SOL    HW168333   8.450   8.494   1.769  0.5752  0.6603  0.1791
22585SOL    HW268334   8.446   8.554   1.630 -0.3529 -1.7199 -0.8873
22586SOL     OW68335   2.794   3.597   1.503 -0.3841 -0.7336  0.2920
22586SOL    HW168336   2.730   3.555   1.445 -0.9922 -0.2815  0.6355
22586SOL    HW268337   2.845   3.524   1.539 -0.3247 -1.0537 -0.4206
22587SOL     OW68338   9.939   3.536   6.643 -0.1444  0.2780 -0.1494
22587SOL    HW168339  10.014   3.595   6.647  0.7068 -0.6433 -1.5125
22587SOL    HW268340   9.896   3.546   6.728 -0.6654  3.5733 -0.6756
22588SOL     OW68341   7.938   0.091   3.123 -0.0077 -0.3401  0.1182
22588SOL    HW168342   7.880   0.033   3.172 -1.9656  1.5851  0.2160
22588SOL    HW268343   7.880   0.154   3.082  1.9116  0.5710 -1.3595
22589SOL     OW68344   8.975   3.123   1.604  0.0303  0.3424 -0.2211
22589SOL    HW168345   8.975   3.170   1.687 -0.2900 -0.2163  0.1024
22589SOL    HW268346   8.899   3.156   1.558  0.5405  1.0867 -0.5513
22590SOL     OW68347   8.795   1.899   5.868 -0.1288  0.0838  0.1632
22590SOL    HW168348   8.796   1.821   5.813 -1.0900 -0.4057  0.8146
22590SOL    HW268349   8.884   1.907   5.901 -0.2630 -1.3842  0.9706
22591SOL     OW68350   1.732   8.161   9.353 -0.4186 -0.4090  0.0923
22591SOL    HW168351   1.673   8.228   9.385  0.8334  0.0461  1.5734
22591SOL    HW268352   1.779   8.202   9.280 -1.3786 -0.5421 -0.6245
22592SOL     OW68353   9.232   4.690   7.234  0.4833  0.0990  0.8105
22592SOL    HW168354   9.233   4.607   7.186  2.0089  2.0606 -2.9215
22592SOL    HW268355   9.312   4.688   7.287 -0.1453 -1.2675  1.7673
22593SOL     OW68356   9.637   4.195   7.253 -0.6103  0.2726 -0.2791
22593SOL    HW168357   9.721   4.158   7.279 -1.0388 -1.0823 -0.7398
22593SOL    HW268358   9.572   4.137   7.293 -1.3025  0.0995 -1.5900
22594SOL     OW68359   7.802   9.248   1.959  0.7455  0.0590  0.0994
22594SOL    HW168360   7.853   9.329   1.952 -1.2708  1.4077  0.4366
22594SOL    HW268361   7.765   9.236   1.871  0.9662 -0.4899  0.0729
22595SOL     OW68362   2.400   2.774   8.992  0.3165  0.0066  0.0260
22595SOL    HW168363   2.351   2.824   9.057  1.1883  0.7480  0.1315
22595SOL    HW268364   2.492   2.797   9.008  0.7873 -1.9667  0.3603
22596SOL     OW68365   6.224   1.552   7.238  0.1182 -0.0416 -0.7655
22596SOL    HW168366   6.141   1.599   7.224  0.7593  0.9809 -1.2740
22596SOL    HW268367   6.271   1.561   7.155 -0.4700 -3.1963 -1.5377
22597SOL     OW68368   2.882   1.025   9.598 -0.5947 -0.4493 -0.0902
22597SOL    HW168369   2.831   0.974   9.535 -1.5705  0.4845 -0.0790
22597SOL    HW268370   2.955   0.967   9.621 -0.3778 -0.9298 -1.8282
22598SOL     OW68371   0.005   8.490   6.664  0.3670  0.2535 -0.2026
22598SOL    HW168372   0.097   8.491   6.690  0.3679  0.3701 -0.2107
22598SOL    HW268373  -0.007   8.573   6.617  0.7641 -0.5858 -1.9046
22599SOL     OW68374   0.683   3.508   1.305  0.0192  0.1182 -0.4939
22599SOL    HW168375   0.728   3.582   1.267  0.3081 -0.0756 -0.5289
22599SOL    HW268376   0.596   3.508   1.264 -0.6277  1.4688  0.7645
22600SOL     OW68377   0.481   0.196   2.461 -0.1000  0.6087 -0.8521
22600SOL    HW168378   0.413   0.154   2.408 -0.7871  1.3025 -0.5295
22600SOL    HW268379   0.442   0.278   2.489 -0.7454 -0.7768  2.8328
22601SOL     OW68380   5.632   3.408   8.803 -0.0242  0.1289 -0.5214
22601SOL    HW168381   5.700   3.413   8.736 -0.0897 -0.7526 -0.6669
22601SOL    HW268382   5.673   3.363   8.877  0.0540  1.1187  0.0430
22602SOL     OW68383   7.012   5.030   3.304  0.0302 -0.4348  0.0301
22602SOL    HW168384   6.957   4.952   3.302 -0.4249 -0.2457  2.4848
22602SOL    HW268385   6.954   5.101   3.277  0.0453 -0.7164 -0.7663
22603SOL     OW68386   6.202   7.828   8.340 -0.0446 -0.3844  0.4299
22603SOL    HW168387   6.214   7.818   8.246  1.8473 -1.5176  0.7427
22603SOL    HW268388   6.111   7.804   8.355 -0.4481  0.0505 -1.1127
22604SOL     OW68389   6.937   6.343   4.567 -0.2177  0.6701 -0.2720
22604SOL    HW168390   6.846   6.375   4.565 -0.3886  0.1606 -1.6147
22604SOL    HW268391   6.969   6.357   4.477  0.1802 -1.5501 -0.5135
22605SOL     OW68392   2.893   1.846   4.995  0.0135  0.0090 -0.4914
22605SOL    HW168393   2.913   1.931   5.033 -1.2199  0.2289 -0.2953
22605SOL    HW268394   2.957   1.835   4.924 -0.4165  1.5257 -1.1450
22606SOL     OW68395   6.124   0.183   4.403  0.0289  0.2922 -0.4273
22606SOL    HW168396   6.161   0.181   4.491  1.4962 -2.4102 -0.9971
22606SOL    HW268397   6.177   0.247   4.356  1.5025 -0.6762 -0.1679
22607SOL     OW68398   3.564   5.824   7.607 -0.1609 -0.2910 -0.0957
22607SOL    HW168399   3.585   5.733   7.626  0.4720 -0.1560 -0.1195
22607SOL    HW268400   3.501   5.821   7.536  0.7352 -0.6868 -0.8948
22608SOL     OW68401   7.491   7.686   4.039 -0.5886  0.3773  0.1292
22608SOL    HW168402   7.572   7.716   3.997 -0.6397  1.3869  0.7078
22608SOL    HW268403   7.465   7.759   4.096 -0.6829 -0.8179  1.6874
22609SOL     OW68404   2.973   1.074   9.301 -0.3160 -0.1109  0.7497
22609SOL    HW168405   2.976   1.116   9.215  0.6075 -0.8603  0.4011
22609SOL    HW268406   2.882   1.084   9.330 -0.4758  0.7521  0.0015
22610SOL     OW68407   1.942   2.044   8.871 -0.6220 -0.3131 -0.1263
22610SOL    HW168408   2.001   2.118   8.887 -0.1595 -0.7757  0.3593
22610SOL    HW268409   1.956   2.022   8.779 -0.7982  0.2363 -0.2863
22611SOL     OW68410   2.466   3.839   0.126 -0.3831 -0.1092 -0.0682
22611SOL    HW168411   2.457   3.860   0.033  0.6488 -1.3541 -0.4742
22611SOL    HW268412   2.534   3.898   0.157 -1.0733  0.6484  0.0233
22612SOL     OW68413   7.508   5.118   4.362 -0.5117  0.9913  0.4025
22612SOL    HW168414   7.599   5.113   4.389 -0.4392  0.9728  0.1548
22612SOL    HW268415   7.476   5.200   4.401 -1.1127 -0.2059  2.6413
22613SOL     OW68416   6.728   8.682   8.832 -0.4113  0.2412 -0.4658
22613SOL    HW168417   6.728   8.726   8.747 -1.6576  0.1597 -0.5330
22613SOL    HW268418   6.635   8.677   8.856 -0.1187 -0.2706  0.6210
22614SOL     OW68419   7.425   5.905   7.165 -0.1754 -0.1948 -0.0766
22614SOL    HW168420   7.507   5.950   7.143 -0.5620  1.0626  0.9398
22614SOL    HW268421   7.357   5.964   7.132 -0.6827 -0.5796  0.2765
22615SOL     OW68422   8.967   9.809   3.515  0.2980  0.0724 -0.0788
22615SOL    HW168423   8.882   9.828   3.556 -0.1080  1.4383 -1.4379
22615SOL    HW268424   9.030   9.859   3.567  0.3671 -1.3123  1.2171
22616SOL     OW68425   0.313   4.254   7.583  0.4564  0.1596  0.2246
22616SOL    HW168426   0.299   4.163   7.608 -1.1442  0.2800 -0.1146
22616SOL    HW268427   0.227   4.284   7.553  1.3477  1.2418 -1.4131
22617SOL     OW68428   0.304   3.812   4.994 -0.5081  0.9701  0.4746
22617SOL    HW168429   0.381   3.845   5.041 -1.2038  0.4139  2.0789
22617SOL    HW268430   0.340   3.764   4.919  0.7225  0.3939  1.4078
22618SOL     OW68431   8.150   8.080   1.339 -0.4520 -0.3142 -0.2698
22618SOL    HW168432   8.244   8.090   1.356 -0.6033  0.5306  0.0984
22618SOL    HW268433   8.108   8.095   1.424 -0.9495 -0.2283 -0.5276
22619SOL     OW68434   8.499   5.504   3.265 -0.4772 -0.3543  0.3223
22619SOL    HW168435   8.460   5.544   3.188 -1.8054 -0.3414  0.9731
22619SOL    HW268436   8.478   5.564   3.337  2.0177  0.4090  0.5164
22620SOL     OW68437   9.298   5.028   6.550  0.0755  0.0487 -0.2697
22620SOL    HW168438   9.363   5.098   6.542  1.1466 -0.7531  1.0437
22620SOL    HW268439   9.323   4.963   6.484  0.2456  0.0057 -0.1610
22621SOL     OW68440   8.016   9.645   4.523 -0.1312 -0.3522 -0.2736
22621SOL    HW168441   8.070   9.644   4.444  0.8910  3.8425  0.1070
22621SOL    HW268442   8.074   9.615   4.592  1.0727  1.7517 -0.2751
22622SOL     OW68443   7.915   4.973   3.412  0.0181  0.3888 -0.0848
22622SOL    HW168444   7.857   4.954   3.339 -1.3095  1.1345  0.7394
22622SOL    HW268445   7.857   4.990   3.486  1.2684  1.3681  0.7246
22623SOL     OW68446   7.334   7.957   5.967  0.0764 -0.1118 -0.3002
22623SOL    HW168447   7.304   7.940   5.878 -0.2002 -1.2661 -0.0050
22623SOL    HW268448   7.288   8.036   5.994 -2.1470 -1.3843 -0.1393
22624SOL     OW68449   7.433   6.998   4.015  0.0257  0.0533  0.3209
22624SOL    HW168450   7.470   6.963   3.934 -2.3815 -0.2697 -0.7183
22624SOL    HW268451   7.429   7.093   4.001  0.1157  0.0549  0.3045
22625SOL     OW68452   5.487   0.674   2.463 -0.0888  0.1730  0.2202
22625SOL    HW168453   5.469   0.735   2.534 -3.5590  1.2482 -1.3549
22625SOL    HW268454   5.413   0.614   2.464  1.0012 -1.2603 -1.0267
22626SOL     OW68455   6.077   1.269   3.196  0.1012  0.5838  0.2709
22626SOL    HW168456   6.076   1.181   3.232 -2.5927  0.2692 -0.3694
22626SOL    HW268457   6.060   1.257   3.102 -1.3594  1.8144  0.3462
22627SOL     OW68458   1.799   5.218   4.218 -0.0872 -0.2505  0.0593
22627SOL    HW168459   1.749   5.138   4.198  0.1341 -1.0726  2.5379
22627SOL    HW268460   1.738   5.272   4.267 -0.1019  0.9892 -1.2666
22628SOL     OW68461   7.367   3.395   6.097  0.5458 -0.6680  0.6347
22628SOL    HW168462   7.375   3.331   6.168  1.7391 -0.0625  1.0597
22628SOL    HW268463   7.401   3.349   6.020 -0.1554 -1.1010  0.5675
22629SOL     OW68464   7.686   8.144   3.695 -0.2029  0.5606 -0.0853
22629SOL    HW168465   7.769   8.110   3.727  0.0643  1.5707  0.3042
22629SOL    HW268466   7.642   8.178   3.773 -1.2683 -0.5354 -0.1799
22630SOL     OW68467   0.633   6.736   6.250 -0.2154  0.2070 -0.2403
22630SOL    HW168468   0.661   6.734   6.342 -2.4735  0.6756  0.5351
22630SOL    HW268469   0.679   6.663   6.209  2.9351  1.5679  0.5500
22631SOL     OW68470   8.592   3.910   2.520 -0.9613 -0.1423 -0.1550
22631SOL    HW168471   8.660   3.887   2.584 -1.8166 -2.0961  0.1266
22631SOL    HW268472   8.561   3.997   2.548  0.4061  0.1483  0.5500
22632SOL     OW68473   8.871   4.093   8.773  0.3618 -0.2578  0.6345
22632SOL    HW168474   8.848   4.125   8.861 -0.5612  0.4984  0.1360
22632SOL    HW268475   8.949   4.040   8.787  3.6077  4.1360  1.2362
22633SOL     OW68476   2.641   1.196   0.582 -0.2060 -0.5240  0.1609
22633SOL    HW168477   2.645   1.246   0.663 -0.3142 -2.5988  1.5166
22633SOL    HW268478   2.640   1.263   0.513 -0.0696  1.3035  1.8296
22634SOL     OW68479   9.866   6.164   3.515  0.0628 -0.1125 -0.0833
22634SOL    HW168480   9.853   6.144   3.608  1.2126  0.5548  0.2362
22634SOL    HW268481   9.795   6.225   3.494 -0.0575 -0.0687  0.4223
22635SOL     OW68482   2.574   2.401   3.672  0.2743 -0.0252  0.3299
22635SOL    HW168483   2.502   2.370   3.726  0.4941 -0.1892  0.5315
22635SOL    HW268484   2.537   2.407   3.584 -0.2999  0.9736  0.6237
22636SOL     OW68485   4.044   8.423   5.483  0.3214  0.1054  0.3944
22636SOL    HW168486   4.134   8.429   5.515 -0.5100 -0.5401  3.1093
22636SOL    HW268487   3.999   8.369   5.548 -2.2383  1.1191 -0.4061
22637SOL     OW68488   9.501   3.363   0.293  0.2640 -0.4908 -0.5536
22637SOL    HW168489   9.530   3.280   0.255  1.9082 -0.3948  0.3668
22637SOL    HW268490   9.489   3.343   0.386 -1.0800 -0.1037 -0.6337
22638SOL     OW68491   8.820   9.487   0.909 -0.0701  0.8152  0.1998
22638SOL    HW168492   8.882   9.477   0.982 -1.3830  2.1385  1.5705
22638SOL    HW268493   8.761   9.413   0.918  1.6646 -0.9076 -1.5890
22639SOL     OW68494   6.038   7.093   2.896 -0.5515  0.1800 -0.8473
22639SOL    HW168495   6.034   7.104   2.991 -0.9193 -0.2354 -0.8118
22639SOL    HW268496   5.973   7.025   2.876 -1.2768  1.0439 -1.5186
22640SOL     OW68497   2.220   1.620   3.744  0.2506  0.3519 -0.3084
22640SOL    HW168498   2.148   1.650   3.689  0.1182 -0.3135 -0.5156
22640SOL    HW268499   2.283   1.692   3.742  0.3215  0.2822 -1.4730
22641SOL     OW68500   9.922   6.160   7.576  0.7593 -0.0711 -0.3894
22641SOL    HW168501   9.831   6.190   7.572  0.5269 -0.8486 -1.3776
22641SOL    HW268502   9.974   6.238   7.558  0.2492  0.2003 -0.7040
22642SOL     OW68503   2.941   7.037   7.218 -0.1090  0.2280  0.3902
22642SOL    HW168504   3.029   7.050   7.253  0.0166 -0.2867  0.2777
22642SOL    HW268505   2.949   7.054   7.124 -0.0478 -0.1575  0.3218
22643SOL     OW68506   0.490   1.504   4.763  0.2057 -0.1244  0.0266
22643SOL    HW168507   0.396   1.494   4.749  0.1114 -0.7246  1.0661
22643SOL    HW268508   0.502   1.497   4.857  1.4659 -1.5519 -0.2073
22644SOL     OW68509   1.401   0.368   6.321 -0.4432 -1.0457 -0.5355
22644SOL    HW168510   1.344   0.299   6.356 -1.7521  0.2323 -0.0501
22644SOL    HW268511   1.366   0.386   6.234 -0.5536 -0.5199 -0.3846
22645SOL     OW68512   9.301   7.806   9.307 -0.1146 -0.0176  0.1452
22645SOL    HW168513   9.228   7.863   9.331 -1.1745 -1.8830  1.6471
22645SOL    HW268514   9.269   7.718   9.324  1.4494 -1.1225 -2.0812
22646SOL     OW68515   9.752   6.791   7.394  0.0195  0.4737 -0.0837
22646SOL    HW168516   9.679   6.774   7.453  0.6966  0.2857  0.7046
22646SOL    HW268517   9.740   6.728   7.322  0.1405 -0.4593  0.6973
22647SOL     OW68518   6.730   0.974   8.250  0.1551 -0.3410 -0.8734
22647SOL    HW168519   6.799   0.909   8.260  0.8252  0.2415 -1.6082
22647SOL    HW268520   6.712   1.004   8.339 -0.4438 -1.8027 -0.4760
22648SOL     OW68521   1.620   8.967   0.358  0.1005 -0.1510 -0.3958
22648SOL    HW168522   1.530   8.935   0.349 -0.4791  1.1121  0.5529
22648SOL    HW268523   1.625   9.041   0.298  1.1884 -1.4386 -1.9860
22649SOL     OW68524   4.508   2.439   5.357  0.1433  0.2074  0.2974
22649SOL    HW168525   4.469   2.522   5.387 -1.0961 -0.0708 -0.4907
22649SOL    HW268526   4.445   2.372   5.383  0.0366 -0.2513 -1.0711
22650SOL     OW68527   0.815   8.131   4.987  0.1628  0.1738  0.6553
22650SOL    HW168528   0.721   8.126   4.966  0.3412  1.0516 -0.4643
22650SOL    HW268529   0.856   8.069   4.927  0.3595  0.1871  0.7760
22651SOL     OW68530   7.573   4.207   0.489  0.2232  0.4116 -0.8577
22651SOL    HW168531   7.652   4.244   0.527 -0.3914  0.0767  0.8672
22651SOL    HW268532   7.534   4.279   0.440  0.7283  1.0889 -0.2862
22652SOL     OW68533   4.675   4.628   0.913  0.0364  0.5578 -0.2813
22652SOL    HW168534   4.650   4.680   0.837 -2.5477 -0.8847 -0.5283
22652SOL    HW268535   4.718   4.550   0.877  0.9212  0.9573 -0.1073
22653SOL     OW68536   0.621   9.218   5.579  0.4317 -0.3099  0.0228
22653SOL    HW168537   0.687   9.178   5.522  0.7883 -0.1865  0.3471
22653SOL    HW268538   0.540   9.173   5.557  0.3714  0.3636 -1.2502
22654SOL     OW68539   4.856   5.487   7.176 -0.3126 -0.0523 -0.3159
22654SOL    HW168540   4.915   5.432   7.226 -1.8505 -2.1604 -0.6838
22654SOL    HW268541   4.820   5.429   7.109 -2.5423  1.1955 -0.2982
22655SOL     OW68542   2.277   3.129   3.107 -0.4721 -0.3965  0.9636
22655SOL    HW168543   2.263   3.154   3.015 -2.0070  0.4145  1.3846
22655SOL    HW268544   2.206   3.068   3.126  0.0647 -0.8558  1.5170
22656SOL     OW68545   1.104   8.413   5.544  0.1529  0.3606  0.2466
22656SOL    HW168546   1.195   8.390   5.564 -0.8100 -3.6743  0.9040
22656SOL    HW268547   1.095   8.394   5.451  0.2915  2.1636 -0.1551
22657SOL     OW68548   6.347   4.797   7.133  0.1375  0.1282  0.2958
22657SOL    HW168549   6.269   4.801   7.189 -0.0588 -0.8520  0.1204
22657SOL    HW268550   6.340   4.873   7.076 -1.3044 -0.5348 -0.4833
22658SOL     OW68551   8.689   1.505   4.188 -0.7184  0.2292  0.6071
22658SOL    HW168552   8.765   1.511   4.129 -0.5858  1.0099  0.8410
22658SOL    HW268553   8.644   1.425   4.161  0.2928 -0.3541  0.5871
22659SOL     OW68554   3.479   1.491   2.948  0.2589 -0.4700  0.5458
22659SOL    HW168555   3.506   1.414   2.898  1.1750 -0.5995  1.2069
22659SOL    HW268556   3.509   1.473   3.037 -0.4748  0.1845  0.9326
22660SOL     OW68557   0.555   1.059   8.832  0.5425  0.6049 -0.1598
22660SOL    HW168558   0.590   1.145   8.856 -1.7773  1.7226 -0.4947
22660SOL    HW268559   0.496   1.077   8.759 -1.8571 -0.8795  1.3052
22661SOL     OW68560   8.312   6.756   6.366  0.3135  0.2282  0.4221
22661SOL    HW168561   8.237   6.809   6.391 -0.0341 -0.0896  0.0567
22661SOL    HW268562   8.327   6.777   6.274  0.7588  0.3963  0.5321
22662SOL     OW68563   6.852   6.933   8.654 -0.0367 -0.1429 -0.3897
22662SOL    HW168564   6.820   7.020   8.677  0.3281 -0.0656 -0.1746
22662SOL    HW268565   6.947   6.941   8.653  0.0147 -0.6474  0.0659
22663SOL     OW68566   7.423   1.965   0.670  0.3546 -0.5358 -0.2893
22663SOL    HW168567   7.434   1.879   0.629  0.5474  0.4131 -2.3468
22663SOL    HW268568   7.513   1.996   0.684  0.3154 -1.2980  1.9547
22664SOL     OW68569   5.936   8.576   3.777 -0.3368 -0.3691 -0.7125
22664SOL    HW168570   5.972   8.628   3.849  0.8328 -0.6967 -1.0455
22664SOL    HW268571   5.996   8.503   3.767 -0.9171 -0.7525 -1.5140
22665SOL     OW68572   6.842   1.645   9.451 -0.2826 -0.1327  0.1536
22665SOL    HW168573   6.766   1.599   9.414 -0.5620  1.7831 -1.8318
22665SOL    HW268574   6.805   1.716   9.502  0.1872 -0.6112  1.1967
22666SOL     OW68575   7.825   3.139   9.401  0.5089 -0.4166  0.1381
22666SOL    HW168576   7.854   3.069   9.342 -0.9071 -1.1384  0.2554
22666SOL    HW268577   7.798   3.210   9.343  0.6603 -0.4905 -0.0229
22667SOL     OW68578   4.420   5.593   5.636 -0.4778  0.2385  0.0080
22667SOL    HW168579   4.440   5.530   5.705  0.5896 -1.3845 -1.6966
22667SOL    HW268580   4.480   5.666   5.652  0.2902 -0.4586  0.3949
22668SOL     OW68581   6.001   7.351   6.033 -0.3630  0.3142  0.3686
22668SOL    HW168582   5.941   7.421   6.006  0.2022  1.9057  2.9166
22668SOL    HW268583   6.078   7.396   6.065  1.4214 -1.6516 -0.8869
22669SOL     OW68584   6.220   6.017   6.382  0.2095 -0.1398 -0.2167
22669SOL    HW168585   6.311   6.001   6.356 -0.0620 -0.5964 -0.9295
22669SOL    HW268586   6.182   5.930   6.392 -0.0339  0.0488  0.5247
22670SOL     OW68587   3.922   4.942   7.998  0.2709  0.0660  0.0605
22670SOL    HW168588   3.915   4.909   8.088 -1.0047  0.9542  0.3188
22670SOL    HW268589   4.012   4.971   7.990  0.4319 -0.1428  1.0175
22671SOL     OW68590   1.169   6.575   8.733  0.5603  0.3828 -0.0578
22671SOL    HW168591   1.226   6.629   8.678  0.5200 -0.3833 -0.8925
22671SOL    HW268592   1.145   6.501   8.676 -1.8287  1.0202  0.0356
22672SOL     OW68593   0.541   7.774   8.329 -0.5276  0.0568 -0.8329
22672SOL    HW168594   0.582   7.801   8.411 -1.2517  0.1677 -0.4969
22672SOL    HW268595   0.606   7.717   8.287  0.0522  0.4092 -0.4263
22673SOL     OW68596   8.462   2.036   0.589 -0.6073 -0.1784  0.9892
22673SOL    HW168597   8.551   1.999   0.586  0.1035  1.4146  1.2101
22673SOL    HW268598   8.410   1.970   0.635  0.5352 -1.0042  1.1411
22674SOL     OW68599   2.897   9.790   7.575  0.4739 -0.0433 -0.0151
22674SOL    HW168600   2.848   9.815   7.653  1.0625 -0.6145  0.5492
22674SOL    HW268601   2.899   9.869   7.522  0.1392  0.3777  0.5868
22675SOL     OW68602   2.506   6.869   6.694 -0.4036  0.0494 -0.3977
22675SOL    HW168603   2.583   6.878   6.638 -0.4858 -1.7194 -0.8515
22675SOL    HW268604   2.529   6.801   6.756 -1.6734 -0.6733 -0.6836
22676SOL     OW68605   0.870   3.370   1.634  0.5581  0.1065  0.2982
22676SOL    HW168606   0.869   3.393   1.726  0.3162  0.2555  0.2585
22676SOL    HW268607   0.882   3.275   1.633  0.5464  0.1028  0.4825
22677SOL     OW68608   3.928   5.491   0.164 -0.2007  0.7080  0.0369
22677SOL    HW168609   4.023   5.494   0.166 -0.1701 -0.2835  0.4464
22677SOL    HW268610   3.901   5.530   0.247 -0.0445 -1.7866  1.3385
22678SOL     OW68611   4.598   0.719   5.409 -0.1640  0.5006  0.2255
22678SOL    HW168612   4.635   0.753   5.490 -0.1381 -3.1376  1.9298
22678SOL    HW268613   4.516   0.766   5.398  0.4322  1.9496  1.6440
22679SOL     OW68614   4.182   9.695   6.939  0.3929 -0.1318 -0.5891
22679SOL    HW168615   4.272   9.664   6.946  0.3077 -0.0161  2.0307
22679SOL    HW268616   4.182   9.781   6.981 -0.6920  0.5003 -1.7916
22680SOL     OW68617   0.449   0.508   8.780 -0.4686 -0.1288 -0.5946
22680SOL    HW168618   0.506   0.432   8.778  0.7757  0.7907 -0.9870
22680SOL    HW268619   0.365   0.476   8.745  0.1632 -1.2041 -1.1714
22681SOL     OW68620   3.521   2.701   0.913 -0.5841 -0.2845  0.1895
22681SOL    HW168621   3.477   2.765   0.857 -0.5714 -0.0186  0.4805
22681SOL    HW268622   3.611   2.734   0.922 -0.6193 -0.2585  0.4659
22682SOL     OW68623   3.124   7.548   6.240 -0.0240 -0.1187  0.4356
22682SOL    HW168624   3.135   7.577   6.331  3.0271  0.1064  0.0993
22682SOL    HW268625   3.138   7.453   6.243 -0.8800 -0.2599  0.2947
22683SOL     OW68626   1.698   3.159   6.497  0.6216 -0.6996 -0.3672
22683SOL    HW168627   1.613   3.122   6.473 -0.1825  0.3966  0.6672
22683SOL    HW268628   1.696   3.249   6.465 -0.2038  0.5958  2.8675
22684SOL     OW68629   7.284   4.225   5.263  0.1572 -0.3169 -0.1363
22684SOL    HW168630   7.343   4.153   5.283  2.2933  1.8456  1.9540
22684SOL    HW268631   7.335   4.284   5.208  0.0072  1.5501  1.6021
22685SOL     OW68632   9.258   5.827   8.959 -0.4368 -0.5252 -0.6259
22685SOL    HW168633   9.239   5.783   9.042 -1.2580  2.4149  0.9006
22685SOL    HW268634   9.314   5.766   8.912  1.4224 -1.7468  2.7818
22686SOL     OW68635   3.527   2.070   8.369  0.2119  0.1077  0.1470
22686SOL    HW168636   3.461   2.000   8.368  0.0282  0.1791  2.2334
22686SOL    HW268637   3.481   2.145   8.408  0.7811  1.0014 -0.8618
22687SOL     OW68638   6.159   3.862   4.364 -0.1137  0.2142  0.0051
22687SOL    HW168639   6.101   3.880   4.437 -1.4027  1.0872 -1.1843
22687SOL    HW268640   6.193   3.948   4.338  0.4631 -0.1029 -0.3195
22688SOL     OW68641   0.399   8.522   9.180 -0.0857  0.1644  0.4895
22688SOL    HW168642   0.341   8.541   9.107 -0.8188  0.0472  1.0357
22688SOL    HW268643   0.349   8.545   9.258 -0.2690 -2.0714  1.0862
22689SOL     OW68644   6.440   7.792   7.267  0.3421 -0.0427  0.6049
22689SOL    HW168645   6.474   7.740   7.194  0.4907 -0.3483  0.8866
22689SOL    HW268646   6.515   7.804   7.325  0.1466 -0.0811  0.8678
22690SOL     OW68647   1.627   1.069   6.082 -0.1143 -0.1678  0.3557
22690SOL    HW168648   1.606   1.058   5.989 -0.4864  0.9544  0.2840
22690SOL    HW268649   1.671   0.988   6.107 -0.7311 -0.8217 -0.5968
22691SOL     OW68650   9.789   2.113   3.687 -0.1110 -0.5885  0.2975
22691SOL    HW168651   9.859   2.098   3.751  0.8047 -0.7572 -0.7349
22691SOL    HW268652   9.751   2.026   3.674 -0.7999 -0.4312  1.1609
22692SOL     OW68653   2.137   3.642   3.863  0.1223 -0.2754  0.3717
22692SOL    HW168654   2.081   3.644   3.785 -1.2780 -2.6035  1.2212
22692SOL    HW268655   2.082   3.674   3.934  0.7935  0.0699  0.7469
22693SOL     OW68656   8.085   3.371   6.419 -0.0825  0.0903 -0.2315
22693SOL    HW168657   8.089   3.291   6.366 -0.4084  0.6832 -1.1666
22693SOL    HW268658   8.170   3.375   6.462 -0.0308 -0.7138 -0.2390
22694SOL     OW68659   9.942   0.474   3.204  0.1961  0.2228 -0.0009
22694SOL    HW168660  10.025   0.483   3.158 -0.4696  2.0904 -0.9354
22694SOL    HW268661   9.876   0.472   3.135 -0.6632  0.6937  0.7692
22695SOL     OW68662   2.455   1.924   1.499  0.2939  0.5253 -0.4243
22695SOL    HW168663   2.370   1.957   1.526 -0.5503 -1.9142  0.1544
22695SOL    HW268664   2.491   1.883   1.578  1.1075 -0.2137 -1.1574
22696SOL     OW68665   2.611   7.090   1.860  0.5187 -0.3256  0.0215
22696SOL    HW168666   2.526   7.131   1.877  1.3886  1.6003  0.0400
22696SOL    HW268667   2.597   7.036   1.783 -0.6849  0.1207 -0.0926
22697SOL     OW68668   2.810   8.500   8.083 -0.1843 -0.1502 -0.4754
22697SOL    HW168669   2.749   8.428   8.103  1.4195 -1.1771  1.0545
22697SOL    HW268670   2.825   8.542   8.167  0.7120  0.4993 -0.9458
22698SOL     OW68671   0.959   0.117   2.215 -0.0950  0.0615 -0.3375
22698SOL    HW168672   0.965   0.136   2.308  0.4450  1.9757 -0.7282
22698SOL    HW268673   1.005   0.034   2.204 -0.3998 -0.3165  1.1211
22699SOL     OW68674   9.476   0.919   5.839  0.0568  0.1753 -0.2047
22699SOL    HW168675   9.541   0.900   5.906 -0.6418  0.0987  0.4670
22699SOL    HW268676   9.512   0.881   5.759  1.0763  0.6067  0.0358
22700SOL     OW68677   4.295   9.162   7.889 -0.4745  0.5016 -0.2020
22700SOL    HW168678   4.245   9.235   7.925 -2.1046 -0.4000 -0.5535
22700SOL    HW268679   4.330   9.116   7.965 -1.6714  0.1405  0.1476
22701SOL     OW68680   1.714   7.265   1.333 -0.1859 -0.0329  0.4751
22701SOL    HW168681   1.780   7.198   1.349 -1.0747 -0.9997  0.1820
22701SOL    HW268682   1.712   7.275   1.238 -0.4163  0.0378  0.4853
22702SOL     OW68683   1.728   5.316   1.047  0.4268 -0.9017  0.2965
22702SOL    HW168684   1.805   5.367   1.023  1.3039 -2.2955  0.0451
22702SOL    HW268685   1.739   5.298   1.141 -0.2858  0.0163  0.5709
22703SOL     OW68686   3.134   9.656   2.756 -0.0296  0.2247 -0.5912
22703SOL    HW168687   3.228   9.668   2.745  0.2287  0.1938  1.1852
22703SOL    HW268688   3.116   9.569   2.721  1.1744 -1.0190  1.6519
22704SOL     OW68689   9.163   8.173   6.536  0.0299  0.2351  0.1173
22704SOL    HW168690   9.181   8.230   6.462  1.7096 -0.9148 -0.4027
22704SOL    HW268691   9.187   8.225   6.613  2.6049 -0.0789 -0.3989
22705SOL     OW68692   0.803   5.637   5.927 -0.3866 -0.1886  0.1993
22705SOL    HW168693   0.793   5.637   6.022  1.8339  2.1000  0.5416
22705SOL    HW268694   0.748   5.709   5.897 -0.4139 -0.3611 -0.1670
22706SOL     OW68695   8.664   7.952   2.527  0.0799 -0.1089 -0.0219
22706SOL    HW168696   8.713   7.993   2.599  0.1197  0.9792 -0.6570
22706SOL    HW268697   8.638   7.867   2.562  3.4485 -1.2845 -0.0373
22707SOL     OW68698   8.698   8.588   7.621  0.5027  0.5154  0.1708
22707SOL    HW168699   8.626   8.651   7.613  0.4735  0.5447  0.6131
22707SOL    HW268700   8.659   8.504   7.597  0.5174  0.6512 -0.3338
22708SOL     OW68701   4.599   4.578   6.058  0.6121 -0.7933  0.0930
22708SOL    HW168702   4.560   4.496   6.026  1.5496 -1.0319 -0.4948
22708SOL    HW268703   4.593   4.638   5.984  1.5138 -0.8967 -0.0745
22709SOL     OW68704   2.195   1.191   3.619 -0.0121  0.0660  0.6026
22709SOL    HW168705   2.144   1.200   3.700 -0.4408  1.4941  0.2004
22709SOL    HW268706   2.198   1.279   3.582  0.7362 -0.4371 -0.6161
22710SOL     OW68707   5.506   0.863   7.772 -0.2640 -0.4857 -0.6249
22710SOL    HW168708   5.518   0.872   7.678 -1.1532 -0.2677 -0.7264
22710SOL    HW268709   5.411   0.863   7.785 -0.1723 -1.1152  0.2132
22711SOL     OW68710   1.847   1.071   2.967  0.3482 -0.2389 -0.3830
22711SOL    HW168711   1.915   1.137   2.958 -1.6123  2.4805  2.6344
22711SOL    HW268712   1.857   1.039   3.057 -2.4370  0.5017  0.2686
22712SOL     OW68713   4.678   9.502   9.297  0.2719 -0.1421  0.0995
22712SOL    HW168714   4.636   9.507   9.211 -0.8614 -0.2395  0.6230
22712SOL    HW268715   4.766   9.469   9.279 -0.2477 -1.0450 -0.9445
22713SOL     OW68716   0.004   1.167   0.067 -0.1312 -0.1338 -0.0313
22713SOL    HW168717   0.088   1.128   0.093 -0.4435 -1.2039 -0.5533
22713SOL    HW268718  -0.052   1.158   0.144  0.5001  1.4514  0.6436
22714SOL     OW68719   9.562   1.101   5.196 -0.0978 -0.2962  0.2667
22714SOL    HW168720   9.584   1.185   5.158 -2.9572  0.0417 -0.9148
22714SOL    HW268721   9.602   1.036   5.138  2.9215  0.1072  1.6994
22715SOL     OW68722   8.864   7.780   3.058  0.1915  0.3621  0.2921
22715SOL    HW168723   8.933   7.723   3.094 -1.7700 -1.1574  1.9176
22715SOL    HW268724   8.829   7.826   3.134 -2.5473 -1.1842  0.0876
22716SOL     OW68725   5.622   3.957   3.651 -0.0584  0.1809  0.6572
22716SOL    HW168726   5.565   3.965   3.728 -0.7670  1.4452  0.0307
22716SOL    HW268727   5.698   4.011   3.672 -0.1153  0.2874  0.5871
22717SOL     OW68728   7.999   9.114   3.392 -0.2268 -0.3588  0.9124
22717SOL    HW168729   7.992   9.208   3.374 -0.3760 -0.5373 -0.0551
22717SOL    HW268730   8.073   9.085   3.338 -1.4549 -1.1470 -0.4351
22718SOL     OW68731   3.275   1.396   8.512 -0.0937 -0.2824  0.0547
22718SOL    HW168732   3.358   1.349   8.515  0.5398  0.7696 -0.4688
22718SOL    HW268733   3.256   1.417   8.604  1.4666  1.5523  0.0160
22719SOL     OW68734   5.227   0.387   9.557  0.1679  0.0097  0.1167
22719SOL    HW168735   5.195   0.426   9.639 -2.0365  0.6295 -0.9658
22719SOL    HW268736   5.196   0.446   9.489 -0.3969 -1.8880 -1.3511
22720SOL     OW68737   6.535   5.930   8.681 -0.3590 -0.3151  0.3762
22720SOL    HW168738   6.600   5.992   8.715 -0.2621  0.1979 -0.6790
22720SOL    HW268739   6.523   5.866   8.751  0.3462  0.2980  1.0745
22721SOL     OW68740   6.328   3.372   7.612 -0.9465 -0.2902 -0.3011
22721SOL    HW168741   6.294   3.369   7.702 -1.0745 -2.1829 -0.3776
22721SOL    HW268742   6.376   3.290   7.602  0.5587  0.6761 -1.4097
22722SOL     OW68743   0.346   5.935   3.501 -0.3506 -0.0941 -0.4359
22722SOL    HW168744   0.274   5.994   3.480 -0.6974 -0.5210 -0.4691
22722SOL    HW268745   0.390   5.976   3.575  0.7384  1.2998 -1.8144
22723SOL     OW68746   8.251   3.177   1.153 -0.3388 -0.0392  1.0717
22723SOL    HW168747   8.246   3.164   1.248 -0.2343 -2.6567  0.8072
22723SOL    HW268748   8.344   3.174   1.133 -0.3596  0.5228  0.8763
22724SOL     OW68749   8.306   8.205   6.150  0.0276 -0.0154  0.1747
22724SOL    HW168750   8.358   8.286   6.145 -1.1423  0.7641  0.1663
22724SOL    HW268751   8.240   8.224   6.216  0.2222 -1.2781  0.7609
22725SOL     OW68752   5.366   6.523   6.626  0.5071  0.0359  1.0995
22725SOL    HW168753   5.431   6.576   6.672  0.8847  0.1646  0.4355
22725SOL    HW268754   5.297   6.507   6.690  0.3868  1.3364  1.3178
22726SOL     OW68755   3.881   2.959   3.512 -0.2965  0.0984  0.5104
22726SOL    HW168756   3.849   2.869   3.515  1.5781 -0.6707 -0.4349
22726SOL    HW268757   3.807   3.010   3.481 -0.5370 -1.6364 -2.0669
22727SOL     OW68758   8.905   9.909   1.968  0.3097 -0.8513 -0.5916
22727SOL    HW168759   8.841   9.841   1.947 -0.6823  0.2471 -1.2741
22727SOL    HW268760   8.921   9.899   2.062 -0.4414 -1.4967 -0.5191
22728SOL     OW68761   8.334   8.841   3.491  0.0613  0.2838  0.0777
22728SOL    HW168762   8.248   8.874   3.466  0.5641  1.5599 -0.0453
22728SOL    HW268763   8.322   8.813   3.582 -0.2796  1.3380  0.3847
22729SOL     OW68764   8.553   8.516   2.803  0.0199 -0.3225  0.2907
22729SOL    HW168765   8.633   8.482   2.763  0.3298  0.0472  0.5817
22729SOL    HW268766   8.583   8.587   2.861 -0.4621 -0.5604  0.8457
22730SOL     OW68767   0.727   7.838   4.780 -0.2292 -0.5175 -0.7352
22730SOL    HW168768   0.751   7.747   4.762  1.3932 -0.0052 -1.3638
22730SOL    HW268769   0.702   7.838   4.872  0.0286 -1.5370 -0.6483
22731SOL     OW68770   7.686   1.257   6.117  0.2232 -0.6366 -0.3378
22731SOL    HW168771   7.618   1.216   6.063 -3.1385  2.5515  1.0908
22731SOL    HW268772   7.690   1.347   6.086  2.4155 -0.1983  0.9990
22732SOL     OW68773   0.659   3.879   4.343 -0.1233  0.0196 -0.5981
22732SOL    HW168774   0.712   3.862   4.421 -0.3905  0.0383 -0.4143
22732SOL    HW268775   0.573   3.842   4.363 -0.3036  0.3618 -0.7305
22733SOL     OW68776   5.970   7.279   9.906  0.8685  0.5025  0.1439
22733SOL    HW168777   6.013   7.289   9.822  1.5409 -0.8052  0.3190
22733SOL    HW268778   5.999   7.355   9.957  1.1985  0.7968 -0.4777
22734SOL     OW68779   5.351   1.528   9.704  0.6819 -0.1728 -0.5701
22734SOL    HW168780   5.405   1.582   9.762  0.8774 -0.0432 -0.8704
22734SOL    HW268781   5.264   1.568   9.709  0.0322 -1.6841  1.6309
22735SOL     OW68782   4.914   6.805   2.075  0.3198  0.9358 -0.0114
22735SOL    HW168783   4.897   6.895   2.047 -2.4522  0.5320  0.1583
22735SOL    HW268784   4.926   6.810   2.170 -2.1236  0.9202  0.3497
22736SOL     OW68785   9.773   3.857   4.806  0.0470  0.2672  0.3689
22736SOL    HW168786   9.807   3.782   4.856  0.1962  1.0437  1.4561
22736SOL    HW268787   9.847   3.916   4.798 -0.3744  0.8134  0.4973
22737SOL     OW68788   8.971   1.424   5.710 -0.1619 -0.3244  0.5754
22737SOL    HW168789   9.015   1.379   5.781 -1.1900  0.6584  1.8986
22737SOL    HW268790   8.880   1.393   5.714 -0.8267  1.5249  1.3326
22738SOL     OW68791   3.045   9.501   0.720 -0.2669 -0.1735 -0.6199
22738SOL    HW168792   3.053   9.550   0.801  0.8136 -1.2846 -0.0189
22738SOL    HW268793   2.956   9.519   0.690 -0.2928  1.1811  0.1786
22739SOL     OW68794   2.295   6.186   0.256  0.1266 -0.0423 -0.7662
22739SOL    HW168795   2.207   6.223   0.266  0.9096  1.6676  0.4124
22739SOL    HW268796   2.288   6.096   0.288 -1.0427  0.3183  0.0457
22740SOL     OW68797   9.551   9.363   9.043  0.3415  0.1380 -0.3175
22740SOL    HW168798   9.535   9.402   9.129  0.5779 -2.1425  0.8640
22740SOL    HW268799   9.636   9.319   9.053 -0.1376 -1.0742 -1.3394
22741SOL     OW68800   1.490   7.022   8.797  0.0708 -0.4229 -0.0113
22741SOL    HW168801   1.483   7.082   8.723 -0.1410  0.0691  0.3942
22741SOL    HW268802   1.404   6.980   8.802 -0.8135  1.4053  1.4750
22742SOL     OW68803   9.119   0.898   6.017  0.1053 -0.3106  0.8812
22742SOL    HW168804   9.121   0.911   5.922  0.5308 -0.4427  0.8681
22742SOL    HW268805   9.027   0.905   6.040 -0.2509 -2.1025  0.1914
22743SOL     OW68806   9.884   6.169   0.428 -0.0076  0.3062  0.0020
22743SOL    HW168807   9.980   6.170   0.425  0.0473 -1.3626  0.0941
22743SOL    HW268808   9.864   6.141   0.517 -0.5758  0.1617 -0.1713
22744SOL     OW68809  -0.021   7.173   4.332  0.2118 -0.0334  0.2925
22744SOL    HW168810  -0.003   7.140   4.420  1.2261  2.4881  1.0995
22744SOL    HW268811   0.062   7.164   4.285  0.3267  0.7639  0.3337
22745SOL     OW68812   2.875   2.045   3.689 -0.6274  0.3023 -0.3153
22745SOL    HW168813   2.795   2.096   3.703 -1.5715 -1.0556 -0.5226
22745SOL    HW268814   2.905   2.024   3.777 -1.6202 -0.8277 -0.2244
22746SOL     OW68815   4.204   8.865   6.466  0.5942  0.1723 -0.1637
22746SOL    HW168816   4.259   8.917   6.407 -3.8908  3.9193 -1.7121
22746SOL    HW268817   4.205   8.915   6.548  0.0654 -0.0579 -0.0159
22747SOL     OW68818   5.453   7.703   3.158  0.2491  0.2061 -0.8033
22747SOL    HW168819   5.510   7.699   3.234  1.4541 -0.8034 -1.7301
22747SOL    HW268820   5.503   7.751   3.093 -0.0050 -0.5747 -1.5924
22748SOL     OW68821   5.937   9.763   6.782  0.2410 -0.2056  0.0250
22748SOL    HW168822   5.968   9.840   6.830  0.6402 -0.1114 -0.3808
22748SOL    HW268823   5.899   9.798   6.701 -0.1920 -0.3844  0.1469
22749SOL     OW68824   8.167   4.213   7.692 -0.2984 -0.5551  0.2009
22749SOL    HW168825   8.213   4.220   7.608  0.7900 -2.5761  0.5670
22749SOL    HW268826   8.155   4.304   7.720 -3.8114  0.4927 -3.6974
22750SOL     OW68827   3.365   3.638   3.306  0.6775 -0.3624  0.0152
22750SOL    HW168828   3.312   3.562   3.285  1.4641 -0.6472 -1.0298
22750SOL    HW268829   3.338   3.705   3.243  1.5322 -0.5125 -0.5318
22751SOL     OW68830   0.502   3.488   6.954  0.0526  0.4140  0.6992
22751SOL    HW168831   0.525   3.493   7.046 -1.4583 -0.1013  1.1411
22751SOL    HW268832   0.513   3.577   6.921  2.2305  0.2725  0.9261
22752SOL     OW68833   9.610   2.538   5.761 -0.3027 -0.5588  0.4562
22752SOL    HW168834   9.616   2.612   5.822  1.7220 -1.2009  1.1247
22752SOL    HW268835   9.518   2.511   5.765 -1.6431  3.0596 -1.2837
22753SOL     OW68836   4.284   0.666   3.446 -0.0387 -0.0157  0.2054
22753SOL    HW168837   4.270   0.627   3.532 -0.1640 -3.0850 -1.0784
22753SOL    HW268838   4.203   0.713   3.427 -0.0666  0.5643  1.6551
22754SOL     OW68839   2.351   7.343   8.237  0.6175 -0.1994  0.0406
22754SOL    HW168840   2.421   7.389   8.283  2.1911 -1.2621 -1.1572
22754SOL    HW268841   2.371   7.250   8.251 -0.1733 -0.5259 -0.8733
22755SOL     OW68842   4.511   3.272   2.858 -0.0920 -0.2071 -0.1311
22755SOL    HW168843   4.427   3.310   2.832  1.4458  2.4672 -1.7095
22755SOL    HW268844   4.558   3.257   2.776  0.9969 -1.6415  0.6979
22756SOL     OW68845   9.841   2.707   1.981 -0.8424 -0.2956  0.3124
22756SOL    HW168846   9.914   2.670   2.031 -0.2259 -0.2643 -0.5538
22756SOL    HW268847   9.768   2.647   1.998 -0.9542  0.2905  2.0996
22757SOL     OW68848   6.969   1.741   2.528 -0.0982  0.3691  0.3700
22757SOL    HW168849   7.020   1.682   2.584  1.5662 -0.7170 -2.0793
22757SOL    HW268850   6.930   1.683   2.462 -1.9083  1.5830  0.3166
22758SOL     OW68851   4.454   8.903  -0.024 -0.1860  0.2172 -0.3413
22758SOL    HW168852   4.455   8.863   0.063  3.6236  0.8401  0.0820
22758SOL    HW268853   4.448   8.997  -0.007 -2.6929  0.2344 -1.0045
22759SOL     OW68854   4.741   3.995   7.803  0.5804  0.6372 -0.2074
22759SOL    HW168855   4.751   4.087   7.783 -0.7731  1.0364  0.7451
22759SOL    HW268856   4.664   3.968   7.753 -0.2834  0.5926  1.0707
22760SOL     OW68857   7.419   0.306   3.338 -0.1737 -0.5183 -0.3056
22760SOL    HW168858   7.479   0.236   3.364  0.1289  0.2586  1.2295
22760SOL    HW268859   7.439   0.378   3.398 -1.9389  0.1285 -0.4186
22761SOL     OW68860   5.774   4.809   4.389  0.5745  0.1833 -0.1660
22761SOL    HW168861   5.827   4.872   4.340  2.9365  1.3915  3.5229
22761SOL    HW268862   5.725   4.862   4.452  0.4421 -1.4391  1.1699
22762SOL     OW68863   7.731   6.052   4.172  0.5412 -0.4611 -0.0035
22762SOL    HW168864   7.769   5.971   4.205 -2.0696 -2.4203 -1.4630
22762SOL    HW268865   7.788   6.077   4.099  2.2566 -0.0307  1.4096
22763SOL     OW68866   2.321   1.648   7.054  0.1688 -0.1340  0.0731
22763SOL    HW168867   2.283   1.700   6.983 -0.1628 -1.4095 -0.6991
22763SOL    HW268868   2.295   1.694   7.134 -1.2851  0.1232 -0.5308
22764SOL     OW68869   1.951   8.539   4.332 -0.5160  0.1706  0.3618
22764SOL    HW168870   1.959   8.598   4.407 -1.4275  1.0157 -0.1686
22764SOL    HW268871   2.004   8.463   4.354  1.1881  1.4519  0.8269
22765SOL     OW68872   7.760   1.678   5.771  0.4127  0.1017 -0.2244
22765SOL    HW168873   7.823   1.713   5.835  0.8303 -0.5830 -0.2498
22765SOL    HW268874   7.791   1.712   5.687  0.6564 -0.0949 -0.2164
22766SOL     OW68875   9.309   8.210   1.021 -0.2836  0.0497  0.2263
22766SOL    HW168876   9.292   8.148   1.092 -0.5107  0.8882  0.9220
22766SOL    HW268877   9.359   8.280   1.062  0.2259  0.1956 -0.6157
22767SOL     OW68878   9.442   9.610   3.926  0.2384 -0.0512  0.2090
22767SOL    HW168879   9.440   9.705   3.932  0.2945 -0.0601  0.3542
22767SOL    HW268880   9.490   9.591   3.846 -0.7587  0.0651 -0.4406
22768SOL     OW68881   4.302   6.043   9.156 -0.0239 -0.1155  0.2347
22768SOL    HW168882   4.297   6.028   9.251  1.0312 -3.0718 -0.0529
22768SOL    HW268883   4.395   6.035   9.136 -0.2088  0.7526 -1.0480
22769SOL     OW68884   4.936   1.542   9.256  0.3460  0.2545  0.8455
22769SOL    HW168885   4.928   1.574   9.346 -1.0531  1.2987  0.3838
22769SOL    HW268886   4.851   1.560   9.217 -0.2055 -3.0816  0.2111
22770SOL     OW68887   5.868   1.494   1.651 -0.4319 -0.4065 -0.0852
22770SOL    HW168888   5.772   1.485   1.652 -0.5966  0.8589 -1.6063
22770SOL    HW268889   5.899   1.409   1.618 -1.0977 -0.4608 -0.6003
22771SOL     OW68890   1.406   1.485   7.987  0.1931 -0.2217 -0.3606
22771SOL    HW168891   1.415   1.430   8.065  0.5555 -1.0652 -0.9762
22771SOL    HW268892   1.495   1.492   7.953 -0.0814 -0.6332 -1.1979
22772SOL     OW68893   6.327   1.850   0.529  0.3830 -0.2711 -0.3343
22772SOL    HW168894   6.266   1.922   0.510  0.1605 -0.1068  0.9512
22772SOL    HW268895   6.298   1.780   0.471 -1.2462 -0.3007  0.4500
22773SOL     OW68896   9.662   0.663   2.824  0.2032  0.1500  0.1878
22773SOL    HW168897   9.672   0.602   2.750  2.3571 -0.6455  1.0506
22773SOL    HW268898   9.697   0.745   2.791 -0.7204  0.3586 -0.2993
22774SOL     OW68899   9.193   5.121   9.500 -0.2606 -0.1998  0.2039
22774SOL    HW168900   9.243   5.101   9.421  1.5180  0.3725  1.1306
22774SOL    HW268901   9.171   5.214   9.492  0.3188 -0.0286  0.5899
22775SOL     OW68902   2.020   0.343   7.610 -0.3802 -0.7241 -0.3472
22775SOL    HW168903   2.065   0.282   7.669 -1.5669 -1.6969 -0.4149
22775SOL    HW268904   2.036   0.429   7.648  0.1938 -1.1919  0.5051
22776SOL     OW68905   7.552   0.865   0.835 -0.1924 -0.5338 -0.4898
22776SOL    HW168906   7.491   0.833   0.902 -0.4640  0.8358 -0.0299
22776SOL    HW268907   7.591   0.786   0.797 -0.8699 -1.3764  0.5080
22777SOL     OW68908   1.306   9.760   6.043  0.2118  0.2790  0.4107
22777SOL    HW168909   1.391   9.727   6.016  0.2398  1.4862 -1.0917
22777SOL    HW268910   1.308   9.853   6.022 -1.7901  0.1673 -0.5075
22778SOL     OW68911   4.203   2.123   0.367  0.0842  0.1494 -0.5026
22778SOL    HW168912   4.224   2.182   0.439 -1.2926  1.1175 -0.8522
22778SOL    HW268913   4.125   2.161   0.326  0.7933 -0.3940 -2.4795
22779SOL     OW68914   9.372   0.822   1.520 -0.1703  0.6651  0.1166
22779SOL    HW168915   9.463   0.846   1.503 -0.0274  0.4033  0.4924
22779SOL    HW268916   9.322   0.867   1.451 -0.0562  2.9649  1.4421
22780SOL     OW68917   3.739   8.447   2.612  0.2960  0.1595 -0.7172
22780SOL    HW168918   3.664   8.468   2.556  1.6173  1.0832 -2.2129
22780SOL    HW268919   3.791   8.527   2.612  1.4049 -0.5526  0.0987
22781SOL     OW68920   4.140   3.825   4.742  0.2455  0.2529  0.4529
22781SOL    HW168921   4.184   3.888   4.685 -1.2192  0.2882 -0.7171
22781SOL    HW268922   4.066   3.873   4.778 -0.7228 -0.6767 -0.2296
22782SOL     OW68923   6.191   4.928   0.177  0.3828  0.3758 -0.5574
22782SOL    HW168924   6.232   4.991   0.237  0.7004 -0.2730 -0.0756
22782SOL    HW268925   6.168   4.979   0.100 -3.7152  2.1875  1.5772
22783SOL     OW68926   0.779   3.391   0.424  0.6363  0.1938 -0.2762
22783SOL    HW168927   0.763   3.411   0.516 -0.4042 -1.1438 -0.1265
22783SOL    HW268928   0.737   3.462   0.375  0.8286  0.6887  0.2756
22784SOL     OW68929   2.336   5.164   7.405  0.4709  0.6534 -0.0604
22784SOL    HW168930   2.382   5.129   7.328  0.4154  0.5687 -0.0550
22784SOL    HW268931   2.312   5.253   7.380  0.0323  0.4694 -0.3202
22785SOL     OW68932   2.724   2.268   5.443 -0.8282  0.0733 -0.1665
22785SOL    HW168933   2.632   2.244   5.439 -0.3578 -1.7186 -2.5977
22785SOL    HW268934   2.772   2.186   5.431  1.0359  1.1478 -0.5852
22786SOL     OW68935   5.306   7.117   9.445  0.1864 -0.6812  0.2190
22786SOL    HW168936   5.222   7.147   9.479 -0.1792  0.5687 -1.6240
22786SOL    HW268937   5.370   7.145   9.510 -0.4324  1.9651 -0.2236
22787SOL     OW68938   5.046   9.599   7.127  0.1906 -0.3014 -0.1563
22787SOL    HW168939   5.117   9.536   7.120 -0.5007 -1.1312  0.0887
22787SOL    HW268940   4.982   9.557   7.185  0.3283  1.2097  1.1859
22788SOL     OW68941   8.835   9.381   0.350  0.4276 -0.2571  0.0590
22788SOL    HW168942   8.863   9.436   0.423 -1.7522  0.8490  0.1407
22788SOL    HW268943   8.884   9.413   0.275 -0.6013  1.6578  0.1637
22789SOL     OW68944   9.488   5.018   3.227 -0.3260  0.5544  0.5345
22789SOL    HW168945   9.495   5.099   3.277 -0.6963  1.1146 -0.3036
22789SOL    HW268946   9.487   5.046   3.136 -3.4679 -0.1242  0.2463
22790SOL     OW68947   2.657   2.531   2.048 -0.1948  0.2477  0.3403
22790SOL    HW168948   2.577   2.584   2.046 -1.3737 -1.4039  1.4817
22790SOL    HW268949   2.698   2.548   1.963 -1.4633  1.5606 -0.0681
22791SOL     OW68950   1.795   5.232   0.698 -0.1475 -0.0364  1.0029
22791SOL    HW168951   1.890   5.243   0.692 -0.2945  0.8095 -0.1835
22791SOL    HW268952   1.762   5.318   0.726 -0.6319 -0.0292  0.4365
22792SOL     OW68953   4.073   8.188   0.159 -0.1472  0.1187 -0.2584
22792SOL    HW168954   4.154   8.139   0.177  0.0874  0.4424 -0.4131
22792SOL    HW268955   4.013   8.122   0.125  0.3462  0.0255 -0.9870
22793SOL     OW68956   5.804   4.418   3.058  1.1196 -0.3725 -0.0860
22793SOL    HW168957   5.755   4.478   3.114  0.4122 -0.2438 -0.8328
22793SOL    HW268958   5.800   4.457   2.971  0.4600 -1.6045 -0.6358
22794SOL     OW68959   0.712   2.832   9.777 -0.2957  0.2253 -0.6202
22794SOL    HW168960   0.623   2.799   9.783 -0.0175 -0.7554 -1.5744
22794SOL    HW268961   0.742   2.837   9.867 -1.0875 -0.0842 -0.3323
22795SOL     OW68962   7.125   0.713   6.997  0.0450  0.1266  0.1227
22795SOL    HW168963   7.154   0.627   7.028  0.7457  0.4147  0.2694
22795SOL    HW268964   7.194   0.773   7.024 -0.2968  0.6924 -0.2485
22796SOL     OW68965   9.116   7.359   0.625  0.1701  0.0376  1.1086
22796SOL    HW168966   9.129   7.453   0.613  0.7415  0.1535  2.4407
22796SOL    HW268967   9.098   7.349   0.719 -3.3010 -0.8520  0.4604
22797SOL     OW68968   0.228   5.125   7.844  0.6477  0.0596  0.4207
22797SOL    HW168969   0.235   5.060   7.914 -0.5292  0.8517  1.3096
22797SOL    HW268970   0.317   5.160   7.835  1.3122 -1.6199 -0.0792
22798SOL     OW68971   6.283   3.318   1.918 -0.2022 -0.9342 -0.0894
22798SOL    HW168972   6.259   3.398   1.966  1.4019 -0.6153  0.2481
22798SOL    HW268973   6.359   3.343   1.867 -0.2977 -1.9985 -0.7757
22799SOL     OW68974   0.532   0.956   3.116 -0.2519  0.5290  0.0820
22799SOL    HW168975   0.594   0.911   3.059  0.3506  2.2923 -0.7259
22799SOL    HW268976   0.455   0.899   3.117  0.3102 -0.3097 -1.2191
22800SOL     OW68977   4.662   4.954   3.476  0.4004  0.3166  0.0670
22800SOL    HW168978   4.589   5.014   3.459 -1.7774 -1.5722  2.0349
22800SOL    HW268979   4.709   4.993   3.549 -0.4149  0.1335  0.6991
22801SOL     OW68980   7.269   5.550   1.086 -0.5630 -0.0085 -0.2794
22801SOL    HW168981   7.189   5.537   1.137 -0.3916  1.6808  0.4701
22801SOL    HW268982   7.335   5.500   1.134 -1.0445 -1.0766 -0.6770
22802SOL     OW68983   7.749   2.857   5.316  0.2866 -0.5998 -0.2200
22802SOL    HW168984   7.701   2.831   5.238 -3.4075  1.4476  1.1067
22802SOL    HW268985   7.711   2.803   5.386  0.6417  0.3455  0.7360
22803SOL     OW68986   2.579   6.950   3.558  0.2878 -0.8020  0.0196
22803SOL    HW168987   2.602   6.992   3.475  1.8848  0.6663  1.1112
22803SOL    HW268988   2.608   6.859   3.548  1.5962 -0.3443 -0.6296
22804SOL     OW68989   1.550   4.474   4.839  0.3115 -0.2624  0.0155
22804SOL    HW168990   1.511   4.491   4.925  0.6608 -0.2858  0.1806
22804SOL    HW268991   1.481   4.429   4.790 -1.1442  2.6862 -0.9005
22805SOL     OW68992   9.911   1.846   1.204 -0.3969  0.6754 -0.5412
22805SOL    HW168993   9.891   1.928   1.250 -0.3159 -0.0920  0.9203
22805SOL    HW268994   9.839   1.835   1.142 -0.7121  1.5610 -0.3498
22806SOL     OW68995   8.992   7.300   5.552  0.0716  0.1049 -0.3202
22806SOL    HW168996   9.058   7.344   5.498  1.3539 -0.1581  0.9509
22806SOL    HW268997   8.933   7.370   5.580  0.1362  0.4449 -1.0113
22807SOL     OW68998   0.836   1.322   2.149  0.1334 -0.0616 -0.2668
22807SOL    HW168999   0.845   1.388   2.218 -0.3091 -0.6582  0.3682
22807SOL    HW269000   0.785   1.252   2.189  0.2701 -0.6234 -1.0588
22808SOL     OW69001   7.071   1.573   5.731 -0.2659  0.4977 -0.7044
22808SOL    HW169002   7.113   1.615   5.807  0.7087  1.1324 -1.5607
22808SOL    HW269003   6.978   1.572   5.753  0.0120  0.5018  0.5739
22809SOL     OW69004   2.917   2.457   8.315 -0.0422 -0.3395  0.9370
22809SOL    HW169005   2.873   2.459   8.230  0.4451  0.3035  0.7002
22809SOL    HW269006   2.928   2.549   8.339  1.8301 -0.4509  0.6524
22810SOL     OW69007   3.906   7.846   4.286 -0.3707 -0.9270 -0.1626
22810SOL    HW169008   3.874   7.809   4.369 -2.1590  0.1810 -0.3062
22810SOL    HW269009   3.827   7.863   4.235  0.3080  2.4190 -0.3637
22811SOL     OW69010   2.619   5.633   1.742  0.0447  0.0043 -0.3461
22811SOL    HW169011   2.562   5.689   1.690 -0.3246 -1.8789 -2.0887
22811SOL    HW269012   2.560   5.580   1.796  0.4145  1.7417  1.9105
22812SOL     OW69013   1.071   2.206   0.977  0.6277  0.0713  0.1039
22812SOL    HW169014   1.109   2.160   1.053  1.8596  2.4079  0.9891
22812SOL    HW269015   1.136   2.194   0.908  1.6996  1.6603  0.7804
22813SOL     OW69016   9.459   5.691   6.432  0.2119  0.2647  0.3829
22813SOL    HW169017   9.524   5.736   6.378  0.9707 -2.3447 -1.0703
22813SOL    HW269018   9.501   5.681   6.517  1.8352 -1.3884 -0.5340
22814SOL     OW69019   6.458   6.614   0.902  0.2827 -0.6768  0.4461
22814SOL    HW169020   6.533   6.560   0.925 -0.0776 -1.4977 -0.2339
22814SOL    HW269021   6.468   6.632   0.808 -0.8408 -1.6079  0.1181
22815SOL     OW69022   9.164   3.535   6.471 -0.0301 -0.5310 -0.3417
22815SOL    HW169023   9.078   3.543   6.430 -0.4609 -1.0778  0.4372
22815SOL    HW269024   9.151   3.564   6.561  0.4242 -1.3209 -0.0074
22816SOL     OW69025   0.323   2.571   7.447 -0.6761  0.0327 -0.1803
22816SOL    HW169026   0.309   2.503   7.381  0.0167  0.9716 -1.3342
22816SOL    HW269027   0.248   2.630   7.438 -0.3267  0.4408 -0.5131
22817SOL     OW69028   7.690   3.190   5.618  0.1169 -0.2605  0.2952
22817SOL    HW169029   7.633   3.202   5.542  0.2079  0.3893  0.3238
22817SOL    HW269030   7.642   3.133   5.676  0.2526 -1.1821 -0.4754
22818SOL     OW69031   9.515   6.819   6.359 -0.3938 -0.8921  0.7239
22818SOL    HW169032   9.547   6.732   6.384 -0.4186 -1.1566 -0.1208
22818SOL    HW269033   9.521   6.820   6.263 -0.0843  0.1567  0.7365
22819SOL     OW69034   1.619   4.408   4.542 -0.0180 -0.5276 -0.1992
22819SOL    HW169035   1.559   4.450   4.480 -0.2035  0.1771  0.4523
22819SOL    HW269036   1.589   4.317   4.547  0.0147 -0.6009 -1.1587
22820SOL     OW69037   0.422   7.632   4.216 -0.1768 -0.1425  0.2096
22820SOL    HW169038   0.444   7.652   4.125 -1.1972  2.8862  0.5084
22820SOL    HW269039   0.491   7.675   4.267  0.2477 -1.6069  0.9010
22821SOL     OW69040   1.862   6.844   9.449 -0.2399  0.6705 -0.1504
22821SOL    HW169041   1.943   6.869   9.492  0.4863 -1.2983 -0.2902
22821SOL    HW269042   1.866   6.749   9.442 -1.1984  0.7240 -2.8239
22822SOL     OW69043   9.826   5.655   5.705 -0.4370  0.5270  0.3986
22822SOL    HW169044   9.795   5.635   5.794 -0.6175 -0.4667  0.1258
22822SOL    HW269045   9.817   5.572   5.658 -1.5423  1.3543 -0.9055
22823SOL     OW69046   9.910   7.025   9.613 -0.1312 -0.0721 -0.8503
22823SOL    HW169047   9.889   7.086   9.543 -1.9298  1.9763  1.2844
22823SOL    HW269048   9.848   6.954   9.602 -0.1490  0.0419 -1.5444
22824SOL     OW69049   8.697   0.342   3.927 -0.1941 -0.2516  0.6233
22824SOL    HW169050   8.757   0.412   3.954 -0.8863  0.3590  0.6207
22824SOL    HW269051   8.614   0.365   3.968 -0.0689 -1.9069  1.8733
22825SOL     OW69052   9.550   9.082   4.518  0.1559  0.3473 -0.3492
22825SOL    HW169053   9.615   9.013   4.532  0.1250  0.2244 -0.7918
22825SOL    HW269054   9.602   9.163   4.518  0.3777  0.2175 -1.1182
22826SOL     OW69055   0.334   3.569   9.889  0.2736  0.0056  0.1407
22826SOL    HW169056   0.301   3.563   9.799  0.7738 -2.4203  0.0442
22826SOL    HW269057   0.329   3.662   9.911 -0.0093  0.6319 -2.3337
22827SOL     OW69058   4.747   3.083   3.756 -0.4292 -0.0576 -0.0578
22827SOL    HW169059   4.669   3.111   3.708 -0.1550  0.1642 -0.3776
22827SOL    HW269060   4.745   2.987   3.752 -0.6429 -0.0506 -0.1263
22828SOL     OW69061   8.725   1.882   7.846 -0.2665  0.1674 -0.4126
22828SOL    HW169062   8.700   1.790   7.839 -2.4542  0.6469  0.3626
22828SOL    HW269063   8.815   1.880   7.880 -0.3943 -1.6595 -0.0833
22829SOL     OW69064   2.339   3.080   3.541 -0.0045  0.1936  0.4754
22829SOL    HW169065   2.270   3.146   3.537  1.2816  1.5972  0.2288
22829SOL    HW269066   2.349   3.061   3.634 -0.9635 -0.3156  0.4848
22830SOL     OW69067   8.020   6.386   3.533  0.0631  1.0841 -0.3121
22830SOL    HW169068   8.107   6.374   3.495  1.0642 -1.1663  2.3214
22830SOL    HW269069   8.036   6.433   3.615 -1.0265 -0.0120  0.5756
22831SOL     OW69070   3.836   5.970   3.898 -0.2551 -0.4300  0.6223
22831SOL    HW169071   3.839   5.901   3.831 -0.9056 -0.4920  0.6411
22831SOL    HW269072   3.760   5.946   3.953 -0.7838  0.5549  0.3482
22832SOL     OW69073   9.725   0.785   9.102 -0.4692  0.1863 -0.0983
22832SOL    HW169074   9.713   0.699   9.142 -0.3873 -1.5693 -3.5000
22832SOL    HW269075   9.820   0.796   9.098 -0.3923 -0.8038 -1.9018
22833SOL     OW69076   4.389   2.506   0.064 -0.0915  0.3924  0.1218
22833SOL    HW169077   4.362   2.595   0.042 -0.2840  0.2578 -0.1928
22833SOL    HW269078   4.479   2.515   0.096 -0.3752  0.7953  0.8210
22834SOL     OW69079   6.876   8.226   7.076  0.1427  0.2811  0.2861
22834SOL    HW169080   6.820   8.272   7.014  1.8043  0.9979 -0.7547
22834SOL    HW269081   6.819   8.158   7.114 -1.2605  0.6259 -1.0928
22835SOL     OW69082   8.670   5.382   7.825  0.3652  0.3247 -0.3972
22835SOL    HW169083   8.645   5.397   7.916  3.0717  0.7253  0.3423
22835SOL    HW269084   8.627   5.299   7.803 -0.3672  0.2323  1.2000
22836SOL     OW69085   1.103   2.947   2.815 -0.0883  0.6698  0.4609
22836SOL    HW169086   1.026   2.891   2.812 -1.2819  2.2563 -1.3621
22836SOL    HW269087   1.174   2.890   2.844 -1.1666 -1.8433 -1.4933
22837SOL     OW69088   5.912   8.165   4.590  0.6472 -0.1349  0.1813
22837SOL    HW169089   5.849   8.237   4.579 -0.8045 -1.7801 -4.4518
22837SOL    HW269090   5.875   8.111   4.660  0.0728  1.8459  1.4994
22838SOL     OW69091   1.659   1.763   1.692 -0.9097 -1.1292 -0.4839
22838SOL    HW169092   1.572   1.756   1.654 -1.0841 -0.5564 -0.1988
22838SOL    HW269093   1.712   1.701   1.642 -1.2897 -0.8919 -1.1924
22839SOL     OW69094   2.465   9.833   2.545  0.3206  0.1968 -0.0104
22839SOL    HW169095   2.547   9.783   2.543 -0.1087 -0.8398  3.0057
22839SOL    HW269096   2.493   9.924   2.555  1.1544 -0.1743  1.3293
22840SOL     OW69097   5.609   8.723   9.624  0.2636 -0.4905  0.4487
22840SOL    HW169098   5.641   8.788   9.687 -1.3232 -1.8350  2.8097
22840SOL    HW269099   5.534   8.765   9.581  2.0705  0.8860 -1.5962
22841SOL     OW69100   4.112   5.640   7.098 -0.0243  0.4780  0.2399
22841SOL    HW169101   4.150   5.587   7.168 -0.3129  0.8032  0.6469
22841SOL    HW269102   4.018   5.625   7.104  0.0941 -1.3269 -1.5822
22842SOL     OW69103   3.973   3.389   9.184 -0.6041 -0.1351 -0.4093
22842SOL    HW169104   3.976   3.466   9.127 -1.9516  2.1519  2.3432
22842SOL    HW269105   3.926   3.323   9.133 -0.3997  1.2363 -2.4720
22843SOL     OW69106   7.638   1.742   3.900 -0.0920  0.0312 -0.3012
22843SOL    HW169107   7.676   1.780   3.821 -0.0995 -0.6940 -0.6651
22843SOL    HW269108   7.692   1.775   3.972 -0.8004  1.6360 -0.4797
22844SOL     OW69109   8.643   3.023   1.783  0.2688 -0.6657  0.0274
22844SOL    HW169110   8.692   2.983   1.711  0.6423 -0.7120  0.3005
22844SOL    HW269111   8.658   3.117   1.773  2.4770 -0.7720  1.5112
22845SOL     OW69112   7.281   7.341   9.841 -0.1809  0.3841  0.1441
22845SOL    HW169113   7.366   7.304   9.867 -0.4472  0.2881  0.8948
22845SOL    HW269114   7.293   7.436   9.850 -0.3405  0.3450  0.8804
22846SOL     OW69115   2.277   7.004   1.208  0.3839 -0.4250 -0.2760
22846SOL    HW169116   2.338   7.073   1.183 -0.1406  0.1667  0.0364
22846SOL    HW269117   2.206   7.011   1.144 -0.9704  1.1030  1.2864
22847SOL     OW69118   9.409   2.098   7.836 -0.0595  0.2745 -0.0045
22847SOL    HW169119   9.408   2.007   7.805  3.6488  0.8587 -2.4076
22847SOL    HW269120   9.346   2.143   7.781  0.0529 -0.3473 -0.6549
22848SOL     OW69121   0.451   4.950   5.251 -0.5498  0.2328 -0.0736
22848SOL    HW169122   0.434   4.986   5.338  1.8613  1.0172  0.1487
22848SOL    HW269123   0.474   4.858   5.268  0.5153  0.5400  0.2161
22849SOL     OW69124   8.334   7.059   4.377  0.7392 -0.1824 -0.3741
22849SOL    HW169125   8.318   7.132   4.437  0.9434  0.2189 -0.8073
22849SOL    HW269126   8.287   7.082   4.297 -1.2786 -1.6788  0.3116
22850SOL     OW69127   9.852   6.518   6.568  0.1925 -0.4384 -0.5171
22850SOL    HW169128   9.841   6.611   6.584 -0.0026 -0.2229 -1.8103
22850SOL    HW269129   9.946   6.502   6.580  0.5905  0.3505 -2.2487
22851SOL     OW69130   6.192   5.180   3.965 -0.1371 -0.2742  0.4690
22851SOL    HW169131   6.174   5.088   3.942  1.3300 -0.5346  0.2582
22851SOL    HW269132   6.238   5.174   4.049 -0.2651  0.2879  0.5779
22852SOL     OW69133   3.766   5.773   5.559 -0.3463 -0.2421 -0.1300
22852SOL    HW169134   3.685   5.735   5.593  0.1162 -1.4275 -0.3105
22852SOL    HW269135   3.782   5.849   5.615 -1.3600 -0.2262  0.1634
22853SOL     OW69136   5.004   5.637   5.969  0.4008 -0.1878 -0.4919
22853SOL    HW169137   4.943   5.567   5.944  0.4853 -0.0909 -0.9910
22853SOL    HW269138   4.992   5.647   6.063  1.3106 -1.7648 -0.1709
22854SOL     OW69139   3.824   2.979   9.415 -0.1197 -0.5480  0.2944
22854SOL    HW169140   3.763   3.052   9.402  0.3717 -0.4167 -1.4728
22854SOL    HW269141   3.885   2.985   9.342  1.6323 -1.0853  1.6367
22855SOL     OW69142   5.919   8.884   2.975 -0.5121 -0.3009  0.2072
22855SOL    HW169143   5.903   8.888   2.881 -1.0891  2.3384  0.3209
22855SOL    HW269144   5.933   8.976   3.000 -1.0594 -0.8552  2.7910
22856SOL     OW69145   1.936   9.885   6.094  0.1332 -0.2265 -0.0625
22856SOL    HW169146   1.972   9.973   6.108  0.8784 -0.3580 -1.0429
22856SOL    HW269147   1.940   9.844   6.180 -1.9738  1.2953  0.8620
22857SOL     OW69148   1.062   6.726   7.624  0.4147 -0.4942  0.0928
22857SOL    HW169149   1.100   6.668   7.689  1.6459 -0.7184 -0.7936
22857SOL    HW269150   0.988   6.677   7.587  0.6717 -0.9779  0.2250
22858SOL     OW69151   9.353   7.363   1.610 -0.1816  0.0423  0.1060
22858SOL    HW169152   9.334   7.285   1.556 -1.7312  0.7961 -0.5067
22858SOL    HW269153   9.447   7.376   1.600  0.0606 -1.5582 -0.0445
22859SOL     OW69154   4.677   2.413   5.895  0.3019 -0.5904 -0.0800
22859SOL    HW169155   4.638   2.329   5.872  0.2160 -0.7328  0.5649
22859SOL    HW269156   4.751   2.422   5.835  0.2678 -1.0925 -0.2046
22860SOL     OW69157   3.377   1.213   2.563  0.4590 -0.8276 -0.0690
22860SOL    HW169158   3.304   1.233   2.504 -0.0445 -1.7154  0.2431
22860SOL    HW269159   3.335   1.182   2.643  1.1257  0.5879  0.8706
22861SOL     OW69160   6.969   0.735   9.604 -0.4405 -0.2099  0.2567
22861SOL    HW169161   7.017   0.702   9.528 -0.1923 -0.6547  0.5923
22861SOL    HW269162   6.917   0.660   9.634 -0.1825 -0.1845  0.7918
22862SOL     OW69163   1.471   3.722   8.524 -0.1410 -0.1614  0.2172
22862SOL    HW169164   1.439   3.809   8.547 -1.1799 -0.0096 -1.6435
22862SOL    HW269165   1.415   3.662   8.574  0.6538  0.1921  1.5915
22863SOL     OW69166   1.371   3.256   7.783 -0.1111 -0.4313 -0.4635
22863SOL    HW169167   1.335   3.262   7.694  0.3707  0.0971 -0.6238
22863SOL    HW269168   1.403   3.344   7.802  0.7740 -0.8121 -0.1820
22864SOL     OW69169   0.777   7.080   5.227  0.4893 -0.2145 -0.0502
22864SOL    HW169170   0.733   7.124   5.154  0.3332  1.7601  1.1675
22864SOL    HW269171   0.752   7.130   5.304 -0.7337 -3.2248  1.6843
22865SOL     OW69172   3.570   7.254   8.405 -0.4051  0.4226  0.6344
22865SOL    HW169173   3.570   7.349   8.414  2.2964  0.6120 -0.2056
22865SOL    HW269174   3.490   7.225   8.448 -1.7585  3.1148  0.1504
22866SOL     OW69175   0.354   1.154   5.364 -0.3202  0.2528  0.4204
22866SOL    HW169176   0.436   1.159   5.315  0.0518  0.0173  1.0081
22866SOL    HW269177   0.310   1.077   5.329 -1.2910  1.5385 -1.3798
22867SOL     OW69178   8.300   0.723   1.801 -0.8599 -0.4067  0.1620
22867SOL    HW169179   8.264   0.662   1.865 -1.0495 -0.6415 -0.1674
22867SOL    HW269180   8.316   0.670   1.723 -2.5706  0.2737 -0.6963
22868SOL     OW69181   1.922   2.319   8.099 -0.0336 -0.4161 -0.2289
22868SOL    HW169182   1.834   2.327   8.137 -0.0133 -1.6466  0.1400
22868SOL    HW269183   1.968   2.261   8.160  1.2439  0.7058 -0.0956
22869SOL     OW69184   5.851   8.955   6.450  0.3979 -0.3622  0.1578
22869SOL    HW169185   5.865   8.921   6.538 -3.0310 -0.2672  0.9078
22869SOL    HW269186   5.899   9.038   6.448  0.6368 -0.4182  1.9291
22870SOL     OW69187   6.392   7.127   6.566 -0.5847 -0.5180 -0.3981
22870SOL    HW169188   6.412   7.217   6.540 -0.4545 -0.3702  0.1994
22870SOL    HW269189   6.460   7.075   6.523  2.0026  0.0986  2.6057
22871SOL     OW69190   7.450   7.674   2.574  0.2073  0.1216  0.5701
22871SOL    HW169191   7.535   7.704   2.607  1.5203 -1.5332 -1.0864
22871SOL    HW269192   7.419   7.612   2.639  2.1611 -2.1500 -0.5013
22872SOL     OW69193   1.306   0.798   6.514 -0.2280 -0.0633 -0.1193
22872SOL    HW169194   1.331   0.789   6.606 -3.1014  0.1100  0.7739
22872SOL    HW269195   1.357   0.731   6.469  1.5423  0.1051  1.5042
22873SOL     OW69196   4.463   9.931   1.032  0.1922  0.4673  0.2017
22873SOL    HW169197   4.406   9.917   1.108  0.1619 -0.3518  0.0276
22873SOL    HW269198   4.548   9.954   1.070 -0.2439  1.7398  0.4638
22874SOL     OW69199   0.876   3.697   6.638 -0.2639 -0.3301  0.4826
22874SOL    HW169200   0.892   3.754   6.563 -1.0082 -1.7411 -0.7939
22874SOL    HW269201   0.913   3.745   6.713  1.4154  0.6700 -0.9083
22875SOL     OW69202   6.366   3.419   2.822  0.1346 -0.0971 -0.0015
22875SOL    HW169203   6.395   3.361   2.892  0.5038  1.3270  1.0875
22875SOL    HW269204   6.289   3.463   2.858 -0.6732 -0.5281 -1.1401
22876SOL     OW69205   2.460   9.456   3.185 -0.3312 -0.2767 -0.0834
22876SOL    HW169206   2.373   9.419   3.173  0.1557 -1.3127 -0.6114
22876SOL    HW269207   2.458   9.538   3.137 -1.1002 -0.1563  0.1497
22877SOL     OW69208   4.319   8.819   4.115  0.4622 -0.3879  0.2675
22877SOL    HW169209   4.312   8.727   4.142 -1.9696 -0.8052 -1.3991
22877SOL    HW269210   4.228   8.848   4.108  1.1730  1.9056 -0.1192
22878SOL     OW69211   4.138   4.983   0.323 -0.0554 -0.0503  0.0555
22878SOL    HW169212   4.125   4.927   0.400  2.2354  0.8813  1.2219
22878SOL    HW269213   4.050   4.993   0.286 -1.0328 -1.6438  1.7534
22879SOL     OW69214   2.051   9.214   4.907 -0.0465 -0.0169 -0.4791
22879SOL    HW169215   1.969   9.260   4.927 -0.0884 -0.5961  0.7819
22879SOL    HW269216   2.061   9.152   4.979  0.8728 -0.8093 -1.2702
22880SOL     OW69217   1.861   2.828   5.338 -0.4450  0.4022  0.1002
22880SOL    HW169218   1.932   2.839   5.402  0.6294 -0.5166 -0.8900
22880SOL    HW269219   1.845   2.917   5.304  0.8628  0.5045 -0.3021
22881SOL     OW69220   6.661   8.115   3.471 -0.5387 -0.1897 -0.2996
22881SOL    HW169221   6.631   8.086   3.385 -0.4526 -1.4042  0.0617
22881SOL    HW269222   6.751   8.083   3.477 -0.1499  0.8952 -0.2128
22882SOL     OW69223   0.582  -0.008   0.822  0.1487  0.4472 -0.3691
22882SOL    HW169224   0.621   0.073   0.856  2.3970 -0.9595  0.6034
22882SOL    HW269225   0.593  -0.001   0.727  0.5706  1.1620 -0.2771
22883SOL     OW69226   3.362   6.685   1.298  0.3866 -0.2463  0.0474
22883SOL    HW169227   3.425   6.687   1.371  0.5289  1.4822 -0.0672
22883SOL    HW269228   3.278   6.665   1.339  0.3247  1.4564  0.8664
22884SOL     OW69229   2.802   0.310   0.467  0.2905  0.5233  0.0295
22884SOL    HW169230   2.757   0.328   0.550  0.8895  0.2371  0.4288
22884SOL    HW269231   2.793   0.215   0.456  0.6941  0.4773  0.0642
22885SOL     OW69232   3.934   0.949   4.953 -0.1114  0.6303 -0.0035
22885SOL    HW169233   3.956   0.900   4.874 -1.4485  0.7303 -0.4663
22885SOL    HW269234   3.890   1.028   4.921 -1.8154  0.0861  0.8300
22886SOL     OW69235   9.814   3.338   9.910  0.1183  0.3454  0.0629
22886SOL    HW169236   9.820   3.278   9.984  0.5789  0.3298  0.0136
22886SOL    HW269237   9.816   3.425   9.949 -0.2200  0.3339  0.1100
22887SOL     OW69238   2.715   3.401   5.539  0.1971  0.1789 -0.1129
22887SOL    HW169239   2.653   3.329   5.533 -0.0235 -0.0382  3.0711
22887SOL    HW269240   2.796   3.366   5.503 -0.4871 -0.8540 -0.7124
22888SOL     OW69241   6.913   7.425   1.755 -0.5019 -0.4906  0.5648
22888SOL    HW169242   6.850   7.490   1.786 -0.2167  0.5631 -0.9666
22888SOL    HW269243   6.980   7.477   1.711  0.3115 -1.7600  0.2842
22889SOL     OW69244   0.902   2.479   6.907 -0.2667  0.8349 -0.1159
22889SOL    HW169245   0.871   2.543   6.971  1.4798 -1.1755  3.0150
22889SOL    HW269246   0.996   2.497   6.898 -0.3799  0.7493 -1.7807
22890SOL     OW69247   7.416   3.164   0.287 -0.0758 -0.1565  0.9289
22890SOL    HW169248   7.489   3.102   0.283  0.7025  0.7447  0.8476
22890SOL    HW269249   7.438   3.224   0.357  0.3372  1.4238 -0.4874
22891SOL     OW69250   3.460   6.940   7.329 -0.3642 -0.2840  0.0707
22891SOL    HW169251   3.512   6.946   7.409  1.5542 -0.4593 -1.0843
22891SOL    HW269252   3.421   6.853   7.333 -1.1917  0.1261  1.3110
22892SOL     OW69253   6.187   2.043   6.177  0.1044  0.6607  0.1668
22892SOL    HW169254   6.123   1.976   6.150  0.7572  0.2469 -0.3658
22892SOL    HW269255   6.253   1.994   6.226 -0.7880  1.3179  2.1066
22893SOL     OW69256   0.547   4.501   2.394  0.1691 -0.1320  0.0017
22893SOL    HW169257   0.573   4.547   2.314 -1.2721  0.0314 -0.3950
22893SOL    HW269258   0.620   4.514   2.454  1.3606 -0.3996 -1.3371
22894SOL     OW69259   2.118   9.433   3.870 -0.5077 -0.4316 -0.3269
22894SOL    HW169260   2.049   9.380   3.829  0.2733 -3.3366  1.7970
22894SOL    HW269261   2.073   9.477   3.943 -0.3187 -1.7979  0.6485
22895SOL     OW69262   5.536   1.226   5.696  0.0597  0.1312 -0.5034
22895SOL    HW169263   5.561   1.137   5.671  0.3124 -0.0444  0.3341
22895SOL    HW269264   5.564   1.233   5.787 -0.0076  1.0545 -0.5516
22896SOL     OW69265   6.284   3.250   8.136  0.0884 -0.3358  0.6823
22896SOL    HW169266   6.297   3.280   8.226 -1.5535  0.2085  0.7708
22896SOL    HW269267   6.207   3.298   8.105  1.8808  1.2370 -1.8171
22897SOL     OW69268   5.930   5.495   6.569 -0.5143  0.3494 -0.9826
22897SOL    HW169269   6.021   5.515   6.590 -0.5188 -0.7312  0.2596
22897SOL    HW269270   5.898   5.450   6.647 -2.6314  2.2029 -0.6959
22898SOL     OW69271   8.051   5.669   5.450  0.3309  0.0316  0.0827
22898SOL    HW169272   8.043   5.589   5.399  0.3487 -0.8413  1.4077
22898SOL    HW269273   8.144   5.691   5.445  0.5238 -0.6294  0.5574
22899SOL     OW69274   7.295   0.398   0.294  0.3066 -0.4253  0.2839
22899SOL    HW169275   7.324   0.446   0.217 -1.3913 -0.7188 -0.5903
22899SOL    HW269276   7.267   0.313   0.260 -0.8110 -0.4281  1.1356
22900SOL     OW69277   6.082   9.835   7.414  0.2676 -0.2257  0.5203
22900SOL    HW169278   6.100   9.897   7.343 -1.8210  0.8645  0.8592
22900SOL    HW269279   6.131   9.757   7.391  2.7810  1.4118 -0.0939
22901SOL     OW69280   6.329   1.911   5.769  0.2792 -0.2336 -0.4113
22901SOL    HW169281   6.272   1.958   5.709  1.9251  0.5572 -1.4008
22901SOL    HW269282   6.272   1.843   5.807 -0.9624 -0.3779 -2.3778
22902SOL     OW69283   3.387   9.632   9.226 -0.5115  0.0858  0.4357
22902SOL    HW169284   3.394   9.559   9.288 -0.4847  0.7614  1.2459
22902SOL    HW269285   3.303   9.673   9.247 -0.4856  0.3422  0.0467
22903SOL     OW69286   8.004   7.862   8.001  0.1537  0.2757 -0.3319
22903SOL    HW169287   7.911   7.858   8.023  0.2416  0.0013  0.0070
22903SOL    HW269288   8.049   7.844   8.084  0.5538  2.7339  0.0488
22904SOL     OW69289   3.764   4.024   2.163 -0.1947  0.6906  0.4304
22904SOL    HW169290   3.786   3.931   2.155 -0.1621  0.7608 -0.4296
22904SOL    HW269291   3.846   4.069   2.141 -0.5397  0.9238 -0.4299
22905SOL     OW69292   6.430   4.632   9.090 -0.1262 -0.0287  0.4361
22905SOL    HW169293   6.458   4.613   9.000  1.8585  1.7506  0.5904
22905SOL    HW269294   6.337   4.650   9.084  0.1933  1.1858 -1.4904
22906SOL     OW69295   2.183   2.078   0.649 -0.6944 -0.1350  0.0321
22906SOL    HW169296   2.165   2.162   0.607 -1.0261  0.5893  1.5763
22906SOL    HW269297   2.193   2.016   0.576 -0.2905  1.2608 -1.1302
22907SOL     OW69298   4.269   4.528   3.320  0.0537 -0.2372  0.6693
22907SOL    HW169299   4.217   4.607   3.329  0.1704  0.0067 -0.6185
22907SOL    HW269300   4.320   4.523   3.401 -0.9812  0.2237  1.3776
22908SOL     OW69301   6.423   9.812   2.374  0.3521  0.3096 -0.2549
22908SOL    HW169302   6.414   9.801   2.279 -0.7850 -0.0350 -0.1167
22908SOL    HW269303   6.446   9.905   2.384  0.5153  0.3441 -0.8707
22909SOL     OW69304   7.603   9.525   6.905  0.1609  0.0356  0.4773
22909SOL    HW169305   7.532   9.461   6.913  0.4076 -0.3747 -0.4259
22909SOL    HW269306   7.615   9.536   6.810  1.5820 -0.2367  0.5971
22910SOL     OW69307   1.063   8.012   8.739 -0.2024 -0.7219 -0.3950
22910SOL    HW169308   1.057   8.101   8.774 -0.5254 -1.0548  0.4079
22910SOL    HW269309   1.028   8.019   8.650 -1.9027 -0.3688  0.2520
22911SOL     OW69310   2.331   5.132   7.692 -0.4724 -0.3389 -0.0107
22911SOL    HW169311   2.378   5.150   7.610  1.7715 -1.2333  0.9872
22911SOL    HW269312   2.313   5.038   7.687  0.8222 -0.6765  1.0089
22912SOL     OW69313   0.819   8.101   1.105  0.8019  0.4950  0.3130
22912SOL    HW169314   0.859   8.180   1.143  1.3508  0.1140  0.5473
22912SOL    HW269315   0.890   8.058   1.058  0.4530  0.2504  0.0010
22913SOL     OW69316   7.220   0.174   3.637 -0.5135 -0.3936  0.5006
22913SOL    HW169317   7.134   0.209   3.613 -0.5665 -0.6257  0.3484
22913SOL    HW269318   7.203   0.083   3.662  0.0713 -1.3550 -2.2495
22914SOL     OW69319   8.660   5.998   8.513  0.3342 -0.2840  0.9266
22914SOL    HW169320   8.645   5.923   8.456 -0.5286  0.3414  0.3098
22914SOL    HW269321   8.601   5.984   8.587  0.9769 -0.7634  1.3560
22915SOL     OW69322   0.554   7.159   8.275  0.1593  0.7364  0.0799
22915SOL    HW169323   0.493   7.123   8.340  0.3666  0.3337  0.0578
22915SOL    HW269324   0.533   7.113   8.194 -1.2247  2.4195 -0.5757
22916SOL     OW69325   4.093   1.165   4.402  0.3479 -0.1232  0.2202
22916SOL    HW169326   4.117   1.150   4.310 -1.5201 -1.4021 -0.1076
22916SOL    HW269327   4.160   1.116   4.451  0.8814 -0.1171 -0.4761
22917SOL     OW69328   7.246   1.583   7.243  0.1255 -0.0833 -0.5437
22917SOL    HW169329   7.299   1.646   7.293  2.0816 -1.6011 -0.5748
22917SOL    HW269330   7.162   1.581   7.289  0.7251  1.0260  0.6808
22918SOL     OW69331   6.390   9.618   3.318 -0.0776 -0.1171 -0.1852
22918SOL    HW169332   6.318   9.618   3.381  0.8415  0.9968  0.9223
22918SOL    HW269333   6.351   9.647   3.236 -0.9635  0.1503  0.3205
22919SOL     OW69334   8.553   1.796   2.252  0.4079 -0.1221 -0.3991
22919SOL    HW169335   8.475   1.803   2.197 -0.7637  1.0771  1.3092
22919SOL    HW269336   8.562   1.882   2.293  0.5019 -1.2375  2.1774
22920SOL     OW69337   7.279   0.393   4.004 -0.2899  0.5359 -0.5404
22920SOL    HW169338   7.192   0.429   4.020 -0.6038 -1.1086  2.3141
22920SOL    HW269339   7.267   0.298   4.010  1.8028  0.2926  1.0147
22921SOL     OW69340   4.316   1.739   6.249  0.4835 -0.4138 -0.4256
22921SOL    HW169341   4.259   1.779   6.183  0.6959  1.3576  0.4314
22921SOL    HW269342   4.328   1.649   6.217  0.4260  0.3075 -2.6994
22922SOL     OW69343   3.788   7.128   1.019 -0.1804 -0.8478 -0.5941
22922SOL    HW169344   3.863   7.092   0.970  0.3131 -1.2228  0.4094
22922SOL    HW269345   3.808   7.221   1.027  0.4158 -1.0232  0.0609
22923SOL     OW69346   7.822   4.618   6.199 -0.0410  0.4084 -0.0148
22923SOL    HW169347   7.777   4.558   6.258 -1.1755  1.1838 -0.0504
22923SOL    HW269348   7.755   4.683   6.176  1.2325  1.8747  0.2863
22924SOL     OW69349   1.467   5.464   1.303  0.0655  0.0296  0.1412
22924SOL    HW169350   1.452   5.436   1.212  1.2386  1.2922 -0.4770
22924SOL    HW269351   1.446   5.387   1.355 -1.1240 -0.5771 -1.1516
22925SOL     OW69352   5.265   7.931   4.667 -0.0920 -0.3658 -0.2119
22925SOL    HW169353   5.174   7.900   4.667 -0.7260  1.3397  0.7574
22925SOL    HW269354   5.259   8.023   4.641  1.5078 -0.5255 -1.2891
22926SOL     OW69355   1.599   1.399   1.852 -0.1647 -0.1153 -0.3309
22926SOL    HW169356   1.692   1.396   1.829 -0.1587 -1.2998 -0.2202
22926SOL    HW269357   1.556   1.350   1.782 -0.8026  1.0428 -0.7707
22927SOL     OW69358   7.330   8.803   2.496 -0.7389  0.5912 -0.3599
22927SOL    HW169359   7.272   8.875   2.470 -0.3316  1.3486  0.7286
22927SOL    HW269360   7.277   8.725   2.487 -1.4155  1.0947 -0.9025
22928SOL     OW69361   3.427   4.998   9.295  0.2694  0.1210 -0.0448
22928SOL    HW169362   3.386   4.936   9.234  1.3461  0.7086 -1.4109
22928SOL    HW269363   3.511   4.959   9.316 -0.0937 -0.0756  1.1007
22929SOL     OW69364   9.213   7.059   4.089 -0.0526  0.0863  0.7907
22929SOL    HW169365   9.152   7.130   4.068  0.5317 -0.2192 -2.5039
22929SOL    HW269366   9.287   7.103   4.131  0.5470  1.6883 -1.6661
22930SOL     OW69367   6.429   6.683   1.453  0.1473 -0.7404  0.2513
22930SOL    HW169368   6.455   6.722   1.369  1.5837 -1.0243  0.5435
22930SOL    HW269369   6.462   6.744   1.519  0.2049 -1.1922  0.6413
22931SOL     OW69370   9.814   3.942   5.566 -0.4631  0.0252  0.0885
22931SOL    HW169371   9.885   4.003   5.585 -0.7063  0.5579 -0.6671
22931SOL    HW269372   9.824   3.921   5.473  0.3113 -2.0111  0.5839
22932SOL     OW69373   0.697   4.687   4.369 -0.1391  0.4019  0.1578
22932SOL    HW169374   0.704   4.762   4.309 -0.3272  0.1832 -0.1436
22932SOL    HW269375   0.605   4.686   4.394  0.2411  1.4951  1.7777
22933SOL     OW69376   9.408   1.157   8.943  0.1341 -0.1518 -0.1019
22933SOL    HW169377   9.431   1.189   9.030 -0.7935  0.1774  0.0271
22933SOL    HW269378   9.455   1.074   8.935  0.7286  0.1219  0.4573
22934SOL     OW69379   6.845   9.101   1.878  0.0400 -0.0639  0.5880
22934SOL    HW169380   6.796   9.182   1.862  0.5049 -0.1058 -1.2085
22934SOL    HW269381   6.827   9.080   1.970 -1.9001  0.8443  0.4512
22935SOL     OW69382   3.488   6.318   0.976  0.1544  0.0842 -0.1231
22935SOL    HW169383   3.447   6.297   1.059 -0.1649 -1.8338 -0.7067
22935SOL    HW269384   3.582   6.316   0.994  0.0874  2.8184  0.8429
22936SOL     OW69385   5.895   3.772   4.730  0.0058  0.1754 -0.1226
22936SOL    HW169386   5.884   3.709   4.659 -0.5382  0.2822 -0.1406
22936SOL    HW269387   5.956   3.837   4.696  1.1135 -0.6985  0.1434
22937SOL     OW69388   2.142   0.213   9.385  0.3247  0.3939  0.1563
22937SOL    HW169389   2.193   0.213   9.304  0.6272 -0.5217  0.3341
22937SOL    HW269390   2.072   0.276   9.369  1.9879  2.3743  0.2197
22938SOL     OW69391   2.881   1.908   7.046 -0.2291  0.4647 -0.1788
22938SOL    HW169392   2.883   1.984   7.105  1.4295  0.2104  0.1374
22938SOL    HW269393   2.952   1.852   7.076 -0.6364 -0.6330 -1.1863
22939SOL     OW69394   0.693   7.072   7.356  0.4388 -0.3762  0.1674
22939SOL    HW169395   0.712   7.164   7.335  1.4951 -0.7973 -0.7840
22939SOL    HW269396   0.640   7.042   7.282 -1.2054 -0.1438  1.1998
22940SOL     OW69397   8.717   1.572   1.151 -0.4727 -0.0829  0.2725
22940SOL    HW169398   8.742   1.524   1.230 -3.2960 -0.4077  1.0898
22940SOL    HW269399   8.725   1.508   1.081 -0.8857 -0.7404  0.8082
22941SOL     OW69400   1.275   5.075   3.829 -0.2405  0.0828 -0.2430
22941SOL    HW169401   1.199   5.020   3.811 -0.2938  0.6329 -1.8807
22941SOL    HW269402   1.278   5.082   3.924 -1.4894 -0.9769 -0.0974
22942SOL     OW69403   2.289   0.281   2.548 -0.3067 -0.0818 -0.3451
22942SOL    HW169404   2.229   0.222   2.594 -0.6316  1.6953  1.6679
22942SOL    HW269405   2.374   0.237   2.553 -0.5034 -0.3622  1.2743
22943SOL     OW69406   5.594   2.289   1.644  0.4703 -0.2957  0.3712
22943SOL    HW169407   5.567   2.299   1.552 -0.2709 -0.2207  0.5857
22943SOL    HW269408   5.634   2.203   1.648  0.0776 -0.4975  0.0701
22944SOL     OW69409   2.241   9.915   9.293  0.3459  0.0144 -0.2032
22944SOL    HW169410   2.211   9.935   9.204  0.3769  0.7382 -0.0503
22944SOL    HW269411   2.329   9.951   9.298  0.2571  0.1836  0.1959
22945SOL     OW69412   3.399   8.738   9.687 -0.2517 -0.3617 -0.1335
22945SOL    HW169413   3.349   8.807   9.731 -1.7401 -0.2093 -1.9454
22945SOL    HW269414   3.406   8.669   9.752 -1.5409  0.2241  0.6651
22946SOL     OW69415   0.505   8.155   7.178  0.5239  0.1042 -0.3453
22946SOL    HW169416   0.423   8.175   7.224  0.2482 -1.1092 -0.2767
22946SOL    HW269417   0.568   8.143   7.249 -0.1160 -2.7353 -0.1488
22947SOL     OW69418   2.531   1.353   4.015  0.0495 -0.4980  0.1229
22947SOL    HW169419   2.438   1.366   3.994 -0.0313 -1.8628 -0.4682
22947SOL    HW269420   2.554   1.271   3.971  1.4955 -0.2712  0.4167
22948SOL     OW69421   9.002   6.853   2.194 -0.2659  0.1609 -0.0384
22948SOL    HW169422   8.954   6.855   2.277  1.1148  1.4894  0.7832
22948SOL    HW269423   9.043   6.940   2.188  2.2152 -0.9674 -0.5442
22949SOL     OW69424   8.845   3.463   9.261  0.0509 -0.3805 -0.5486
22949SOL    HW169425   8.761   3.436   9.224  1.7744 -2.7435 -3.1016
22949SOL    HW269426   8.888   3.381   9.285  0.9822  0.8662  2.4678
22950SOL     OW69427   1.371   8.220   9.826  0.1664  0.3557 -0.1611
22950SOL    HW169428   1.345   8.173   9.905 -0.8984  1.6788  0.3078
22950SOL    HW269429   1.464   8.240   9.839  0.4903 -1.0838 -0.1244
22951SOL     OW69430   5.575   5.088   0.468  0.1278  0.0373 -0.5367
22951SOL    HW169431   5.546   5.168   0.423 -0.6600 -0.1476 -0.3724
22951SOL    HW269432   5.644   5.118   0.527 -1.2869  0.9046  0.7513
22952SOL     OW69433   9.684   3.383   1.441  0.0192  0.4054 -0.2188
22952SOL    HW169434   9.689   3.327   1.363 -0.9740 -0.1352  0.0817
22952SOL    HW269435   9.645   3.464   1.408  2.9468  1.6356 -0.9875
22953SOL     OW69436   0.620   3.584   5.745 -0.2689  0.0460  0.0339
22953SOL    HW169437   0.715   3.571   5.741 -0.1006  1.3861 -1.2502
22953SOL    HW269438   0.609   3.665   5.794 -0.8323 -0.6496  1.0854
22954SOL     OW69439   7.316   4.764   5.782  0.7647  0.7579 -0.2911
22954SOL    HW169440   7.405   4.796   5.798 -0.1673  2.1988  2.5455
22954SOL    HW269441   7.273   4.768   5.867 -1.1091 -3.0652 -0.8590
22955SOL     OW69442   2.116   1.090   8.758  0.5621 -0.0072  0.5290
22955SOL    HW169443   2.124   1.144   8.679  0.2803  1.7372  1.6453
22955SOL    HW269444   2.125   1.000   8.726  0.5739  0.6486 -1.4659
22956SOL     OW69445   2.047   3.875   8.269 -0.3975 -0.2692 -0.0967
22956SOL    HW169446   2.053   3.948   8.207  0.7490  0.0031  0.3118
22956SOL    HW269447   1.976   3.899   8.327 -0.8309 -0.0583 -0.7068
22957SOL     OW69448   8.306   6.861   6.745  0.1081  0.1519  0.0079
22957SOL    HW169449   8.321   6.948   6.709 -0.4411  0.1783 -0.1675
22957SOL    HW269450   8.262   6.813   6.674  0.3916 -0.2627  0.1064
22958SOL     OW69451   3.918   0.320   7.919 -0.0061  0.5827 -0.4333
22958SOL    HW169452   3.891   0.312   7.827  0.6775 -0.0811 -0.5868
22958SOL    HW269453   3.962   0.237   7.938 -1.0182  0.2902  0.7939
22959SOL     OW69454   6.214   2.139   6.465  0.3598  0.0675 -0.5670
22959SOL    HW169455   6.143   2.160   6.525  0.6162  1.4861 -0.7371
22959SOL    HW269456   6.170   2.121   6.381  0.0606 -1.2188 -0.1638
22960SOL     OW69457   1.811   8.678   0.990 -0.3327 -0.3854  0.0254
22960SOL    HW169458   1.801   8.618   0.916 -0.3655  0.1059 -0.3768
22960SOL    HW269459   1.828   8.763   0.949  2.2258 -0.5428  0.5887
22961SOL     OW69460   7.754   1.347   7.344  0.0758  0.7942  0.2673
22961SOL    HW169461   7.827   1.375   7.288  0.4778  0.4840  0.6279
22961SOL    HW269462   7.747   1.416   7.410  1.3296 -0.0900  1.3981
22962SOL     OW69463   3.146   3.447   2.422  0.3296  0.4531  0.1209
22962SOL    HW169464   3.136   3.362   2.463  0.9863  0.4289  0.2333
22962SOL    HW269465   3.056   3.480   2.412  0.1376  0.2255  1.0694
22963SOL     OW69466   3.060   0.364   2.686 -0.3341 -0.7201  0.4547
22963SOL    HW169467   2.973   0.405   2.678  1.1729  2.3967 -2.1552
22963SOL    HW269468   3.097   0.403   2.765 -0.5353 -0.4110  0.4008
22964SOL     OW69469   0.100   7.564   3.751 -0.0854  0.2099  0.1971
22964SOL    HW169470   0.011   7.578   3.784 -0.8656 -1.7776 -0.9338
22964SOL    HW269471   0.101   7.608   3.666  0.1242  0.4990  0.3471
22965SOL     OW69472   1.318   6.537   3.569  0.1829  0.5192  0.8699
22965SOL    HW169473   1.237   6.566   3.528  0.8976  1.7699  0.2888
22965SOL    HW269474   1.290   6.493   3.649 -1.0686  0.8688  0.6431
22966SOL     OW69475   3.221   0.676   1.735  0.1367 -0.6686  1.0314
22966SOL    HW169476   3.224   0.763   1.774 -1.2580 -1.3810  2.8648
22966SOL    HW269477   3.303   0.669   1.685 -0.2653  2.1065 -0.1832
22967SOL     OW69478   8.583   6.745   6.827  0.1258 -0.1451 -0.4022
22967SOL    HW169479   8.498   6.746   6.782  0.0515  0.6584 -0.2451
22967SOL    HW269480   8.563   6.768   6.917  0.1998 -2.2896  0.2300
22968SOL     OW69481   6.635   6.787   8.608  0.0079  0.1291 -0.3374
22968SOL    HW169482   6.717   6.834   8.627 -0.3123  0.7794 -0.5230
22968SOL    HW269483   6.664   6.705   8.568  0.5785  0.3192 -0.3376
22969SOL     OW69484   9.002   0.755   1.724  0.5542 -0.5029 -0.2093
22969SOL    HW169485   9.039   0.819   1.786 -1.7017  0.7589 -0.0834
22969SOL    HW269486   9.052   0.768   1.643  1.1214  0.3532  0.2660
22970SOL     OW69487   4.299   8.805   7.606 -0.1572 -0.0941  0.1050
22970SOL    HW169488   4.331   8.721   7.572  2.0586  0.8283 -0.2406
22970SOL    HW269489   4.375   8.844   7.649 -0.7460  2.3165 -0.8845
22971SOL     OW69490   8.751   0.449   3.427 -0.6789  0.5903  0.2997
22971SOL    HW169491   8.760   0.544   3.432  0.2607  0.4660  1.9836
22971SOL    HW269492   8.702   0.425   3.506  0.3287 -0.4260  0.6524
22972SOL     OW69493   3.866   1.945   5.974  0.2783  0.4730 -0.1751
22972SOL    HW169494   3.831   1.912   5.892  0.6545  0.3287 -0.2801
22972SOL    HW269495   3.789   1.956   6.031  0.1398 -0.5337 -0.1571
22973SOL     OW69496   2.591   1.719   8.038  0.3573  0.3486  0.4108
22973SOL    HW169497   2.496   1.724   8.031  0.2421  0.1990  1.6424
22973SOL    HW269498   2.607   1.651   8.103  1.3261  0.1312 -0.0323
22974SOL     OW69499   2.777   0.048   0.350 -0.0245 -0.1620  0.0360
22974SOL    HW169500   2.735   0.059   0.265  1.9022  0.5306 -0.9067
22974SOL    HW269501   2.769  -0.045   0.369  0.4979 -0.5434 -1.4841
22975SOL     OW69502   3.652   9.398   1.564 -0.1056 -0.9301  0.0297
22975SOL    HW169503   3.724   9.335   1.569 -0.6944 -1.5606  0.9405
22975SOL    HW269504   3.579   9.355   1.609 -0.7014  0.1698  0.1565
22976SOL     OW69505   9.912   6.619   2.241  0.2400  0.5627 -0.0035
22976SOL    HW169506   9.924   6.714   2.236  3.4842  0.3596  1.9120
22976SOL    HW269507   9.968   6.591   2.312  1.0548 -3.0830 -1.8721
22977SOL     OW69508   4.039   9.599   0.747  0.0850 -0.1825 -0.5034
22977SOL    HW169509   4.086   9.654   0.685  0.2334 -0.0138 -0.2445
22977SOL    HW269510   3.957   9.646   0.763 -0.0088 -0.2888 -0.6654
22978SOL     OW69511   0.601   1.672   3.645 -0.5428  0.3741  0.0648
22978SOL    HW169512   0.672   1.614   3.673 -1.5010 -1.0815 -0.4107
22978SOL    HW269513   0.522   1.633   3.682 -1.2378  1.2611 -0.4476
22979SOL     OW69514   9.473   8.072   0.847 -0.0713 -0.2795 -0.0985
22979SOL    HW169515   9.406   8.108   0.905  0.2372  1.0216 -0.5224
22979SOL    HW269516   9.555   8.085   0.893  0.0955  0.0305 -0.4769
22980SOL     OW69517   8.350   8.817   9.260  1.0623 -0.3286 -0.1039
22980SOL    HW169518   8.330   8.724   9.265  1.2160 -0.3784 -0.4111
22980SOL    HW269519   8.436   8.821   9.218  2.1738 -0.1699  2.0307
22981SOL     OW69520   9.395   1.286   8.702  0.8742 -0.4643  0.4806
22981SOL    HW169521   9.440   1.370   8.695  2.9959 -1.5697  0.0982
22981SOL    HW269522   9.385   1.272   8.796 -0.7010  0.7614  0.5475
22982SOL     OW69523   9.436   5.393   0.903  0.3766  0.4139  0.3195
22982SOL    HW169524   9.440   5.309   0.949 -0.3853  0.4041  0.3665
22982SOL    HW269525   9.469   5.373   0.815  1.1260  0.2788  0.6191
22983SOL     OW69526   0.879   6.600   6.961  0.2072 -0.0077 -0.6885
22983SOL    HW169527   0.953   6.547   6.989  0.1291  0.4170  0.3578
22983SOL    HW269528   0.871   6.582   6.867  1.3610 -0.3799 -0.7291
22984SOL     OW69529   4.553   4.316   8.253  0.0883 -0.4435 -0.3757
22984SOL    HW169530   4.637   4.273   8.236  0.0492 -0.3700 -0.7612
22984SOL    HW269531   4.572   4.379   8.322  0.0303 -1.4587  0.5975
22985SOL     OW69532   5.298   9.318   7.258 -0.0356 -0.0075  0.5408
22985SOL    HW169533   5.278   9.247   7.197  1.0189  2.0598 -2.4650
22985SOL    HW269534   5.386   9.297   7.290  0.7791  0.4355 -1.2633
22986SOL     OW69535   5.767   0.493   1.794 -0.1711 -0.1338 -0.3661
22986SOL    HW169536   5.763   0.484   1.699 -0.3550  0.2788 -0.3956
22986SOL    HW269537   5.725   0.414   1.827  2.7289 -1.9446 -0.5980
22987SOL     OW69538   5.097   7.731   6.007  0.6779  0.2840 -0.4599
22987SOL    HW169539   5.143   7.800   5.957 -0.2133  0.3049 -1.2697
22987SOL    HW269540   5.121   7.749   6.098  0.9176  1.3274 -0.7055
22988SOL     OW69541   1.790   2.429   0.707 -0.1661 -0.0479 -0.3616
22988SOL    HW169542   1.775   2.522   0.692 -1.1139 -0.1709 -0.2508
22988SOL    HW269543   1.707   2.387   0.683 -0.1328 -0.7419  0.6887
22989SOL     OW69544   0.493   2.249   7.339  0.1857 -0.6300 -0.7356
22989SOL    HW169545   0.495   2.156   7.319  0.2030 -0.7753 -0.0948
22989SOL    HW269546   0.440   2.288   7.270 -0.0804 -1.1632 -0.8330
22990SOL     OW69547   9.805   8.360   9.967 -0.2023  0.2095 -0.3725
22990SOL    HW169548   9.730   8.412   9.997  0.1698  0.1933  0.6334
22990SOL    HW269549   9.807   8.374   9.872 -1.0731  0.7397 -0.3297
22991SOL     OW69550   6.547   6.086   0.005 -0.5740  0.1491 -0.2674
22991SOL    HW169551   6.483   6.137   0.055  0.2357  1.9263 -0.9915
22991SOL    HW269552   6.609   6.054   0.071  0.3396  2.2533 -0.0454
22992SOL     OW69553   5.554   9.504   9.167 -0.4680  0.5744  0.7009
22992SOL    HW169554   5.636   9.495   9.216 -0.6365 -2.6357  0.5885
22992SOL    HW269555   5.490   9.529   9.234 -0.1397 -0.9062  1.6182
22993SOL     OW69556   9.121   2.976   0.170 -0.2030 -0.1630 -0.2732
22993SOL    HW169557   9.053   3.025   0.125  1.1294 -0.7149 -3.0718
22993SOL    HW269558   9.140   2.902   0.112  1.3664 -1.1806  1.4150
22994SOL     OW69559   3.631   8.487   3.149 -0.2900  0.2356 -0.1313
22994SOL    HW169560   3.604   8.536   3.227  1.1151  0.9099 -0.0393
22994SOL    HW269561   3.557   8.429   3.131 -1.1840  0.9883  0.9314
22995SOL     OW69562   4.034  -0.035   7.040 -0.5538 -0.2510 -0.7629
22995SOL    HW169563   4.116   0.013   7.028 -0.7462  0.1944 -0.3342
22995SOL    HW269564   3.967   0.027   7.011 -1.0530  0.8850  2.4344
22996SOL     OW69565   5.752   4.487   1.645 -0.3468  0.5449  0.0166
22996SOL    HW169566   5.799   4.567   1.668  0.2845  0.3838 -0.6681
22996SOL    HW269567   5.803   4.449   1.573  0.1733 -1.1961  1.2194
22997SOL     OW69568   3.005   7.302   1.453 -0.8519 -0.0871  0.0686
22997SOL    HW169569   3.071   7.338   1.393 -0.1503 -0.2965  0.6967
22997SOL    HW269570   3.014   7.354   1.533 -1.4054 -0.1638  0.1812
22998SOL     OW69571   8.528   9.414   2.805 -0.1567  0.6047  0.1593
22998SOL    HW169572   8.452   9.393   2.860 -0.9155 -1.4246 -1.5056
22998SOL    HW269573   8.604   9.400   2.862 -0.9065 -1.3932  0.7426
22999SOL     OW69574   2.098   9.901   5.310 -0.6144 -0.0747 -0.0570
22999SOL    HW169575   2.135   9.911   5.398 -1.4480 -0.1823  0.3103
22999SOL    HW269576   2.010   9.867   5.324 -1.2648  1.1898 -0.8705
23000SOL     OW69577   6.639   1.730   0.887 -0.2263 -0.5395  0.2244
23000SOL    HW169578   6.634   1.644   0.929 -0.7874 -0.1666  0.9424
23000SOL    HW269579   6.558   1.737   0.837  1.1939 -1.7125 -2.4520
23001SOL     OW69580   7.294   9.596   7.548  0.5016 -0.3428  0.3378
23001SOL    HW169581   7.325   9.684   7.525 -0.8283 -0.0398 -0.4169
23001SOL    HW269582   7.202   9.609   7.571 -0.5961 -1.9467 -2.6736
23002SOL     OW69583   2.522   2.114   3.945  0.4701  0.4853 -0.3787
23002SOL    HW169584   2.459   2.044   3.962  0.3428  0.5794 -0.4623
23002SOL    HW269585   2.522   2.124   3.850  0.1994  0.8626 -0.3420
23003SOL     OW69586   2.965   4.286   0.283  0.1957  0.0733 -0.6414
23003SOL    HW169587   2.884   4.249   0.318  1.1041 -1.3171  0.0811
23003SOL    HW269588   2.980   4.364   0.337  0.5127 -0.9352  0.7870
23004SOL     OW69589   6.375   1.780   0.797 -0.7812  0.1936 -0.2335
23004SOL    HW169590   6.296   1.737   0.828 -0.7878  0.6618  0.3928
23004SOL    HW269591   6.357   1.799   0.705 -2.3512  2.4606  0.4637
23005SOL     OW69592   8.070   6.239   6.753 -0.1805 -0.3516  0.9461
23005SOL    HW169593   8.034   6.232   6.665  1.1705 -1.2747  0.4359
23005SOL    HW269594   8.071   6.333   6.772 -0.4405 -0.1443 -0.0336
23006SOL     OW69595   4.385   0.784   9.803  0.5731 -0.1311  0.2889
23006SOL    HW169596   4.322   0.753   9.868 -0.6970 -0.4138 -1.0285
23006SOL    HW269597   4.429   0.704   9.773 -1.5860 -0.5958 -1.9532
23007SOL     OW69598   4.918   3.954   4.702  0.0373  0.5576 -0.1061
23007SOL    HW169599   5.004   3.916   4.723 -0.3102  0.3204  0.9521
23007SOL    HW269600   4.924   4.044   4.733 -0.2985  0.3580  0.5659
23008SOL     OW69601   1.030   4.564   6.033 -0.0692 -0.0323 -0.4536
23008SOL    HW169602   1.064   4.499   5.971  1.9893  0.2605  0.2697
23008SOL    HW269603   1.060   4.648   5.998  0.0376  0.2419  0.2831
23009SOL     OW69604   2.059   6.222   8.925  0.0928  0.3745  0.6934
23009SOL    HW169605   2.122   6.293   8.918  1.9740 -1.3393 -1.0875
23009SOL    HW269606   2.034   6.221   9.018  1.8576  1.7829  1.2357
23010SOL     OW69607   3.902   1.951   7.652 -0.2761 -0.0304 -0.2149
23010SOL    HW169608   3.903   2.046   7.665  2.2367 -0.1534  1.0644
23010SOL    HW269609   3.904   1.914   7.740 -0.7226 -1.3019 -0.7031
23011SOL     OW69610   2.227   3.272   2.384 -0.6124  0.0654  0.1922
23011SOL    HW169611   2.259   3.203   2.326 -1.7801  0.3687 -0.8829
23011SOL    HW269612   2.274   3.259   2.466  1.2452 -0.2638 -0.8829
23012SOL     OW69613   9.109   7.214   9.165  0.0402  1.2679 -0.4115
23012SOL    HW169614   9.018   7.204   9.136 -0.5514 -0.7426  1.7421
23012SOL    HW269615   9.101   7.238   9.258  1.6434 -0.2151  0.1608
23013SOL     OW69616   7.584   2.714   5.487 -0.2578 -0.2113 -0.1583
23013SOL    HW169617   7.519   2.686   5.552  0.0458 -0.3476  0.0921
23013SOL    HW269618   7.617   2.633   5.450 -1.3194 -0.1087 -1.3919
23014SOL     OW69619   0.096   3.638   4.674  0.3178  0.4570  0.6081
23014SOL    HW169620   0.180   3.684   4.686  0.3838  0.3120  0.7047
23014SOL    HW269621   0.070   3.660   4.584  0.3375  0.7003  0.6588
23015SOL     OW69622   4.499   6.441   8.364 -1.0227 -0.0690 -0.4460
23015SOL    HW169623   4.456   6.364   8.404  0.1268 -1.0098 -0.9718
23015SOL    HW269624   4.436   6.512   8.377 -1.8639 -0.9570  0.5953
23016SOL     OW69625   2.763   8.356   4.707  0.3551 -0.5185  0.3438
23016SOL    HW169626   2.845   8.324   4.744  1.4205  2.0582  0.3933
23016SOL    HW269627   2.702   8.359   4.781  1.1827  0.5434  1.0003
23017SOL     OW69628   5.780   2.132   0.965  0.3911  0.0577 -0.3054
23017SOL    HW169629   5.712   2.168   1.022  0.1333  0.1928 -0.6959
23017SOL    HW269630   5.773   2.037   0.977  0.7604  0.1147  0.3701
23018SOL     OW69631   2.229   2.984   7.633 -0.2439  0.1972  0.1384
23018SOL    HW169632   2.274   2.913   7.680 -0.2642 -0.1301 -0.3322
23018SOL    HW269633   2.193   3.039   7.702  0.8892  0.4724  0.5407
23019SOL     OW69634   5.328   3.464   8.240  0.2463 -0.4470  0.7989
23019SOL    HW169635   5.338   3.473   8.334  0.2718 -2.6934  1.0576
23019SOL    HW269636   5.416   3.440   8.208  0.2137  0.1689  0.2200
23020SOL     OW69637   6.123   0.564   5.627  0.3112 -0.1918  0.1119
23020SOL    HW169638   6.215   0.583   5.610  0.4614  1.3112  2.1703
23020SOL    HW269639   6.076   0.638   5.588 -0.2577 -1.7291 -2.3456
23021SOL     OW69640   8.359   6.615   1.125  0.0489 -0.4605 -0.3012
23021SOL    HW169641   8.420   6.590   1.056 -2.5167  1.0030 -3.3341
23021SOL    HW269642   8.280   6.564   1.106 -1.5791  1.8528 -0.0565
23022SOL     OW69643   0.989   9.676   0.326  0.1881 -0.3645  0.7234
23022SOL    HW169644   1.032   9.734   0.263  0.3871 -0.6716  0.5760
23022SOL    HW269645   1.060   9.630   0.370  0.0327 -0.4594  0.8802
23023SOL     OW69646   4.957   8.857   1.909  0.3926 -0.4260  0.4451
23023SOL    HW169647   4.872   8.901   1.907  0.7983  0.3730 -1.2975
23023SOL    HW269648   4.941   8.771   1.870 -0.1977 -1.5692  2.9698
23024SOL     OW69649   0.094   2.184   9.782  0.0681  0.5086 -0.3418
23024SOL    HW169650   0.076   2.221   9.696 -0.5083  0.2445 -0.3377
23024SOL    HW269651   0.013   2.139   9.806  0.6350 -0.4529 -0.1918
23025SOL     OW69652   8.432   5.237   5.819 -0.2784  0.4893  0.1887
23025SOL    HW169653   8.490   5.161   5.809 -1.7197 -1.5008  4.7565
23025SOL    HW269654   8.346   5.206   5.792 -0.4468  1.4196 -0.4170
23026SOL     OW69655   8.248   6.406   5.575  0.0908 -0.9158  0.1732
23026SOL    HW169656   8.288   6.425   5.489  0.6358 -0.3749  0.5382
23026SOL    HW269657   8.203   6.486   5.599 -0.2765 -1.1518  0.2838
23027SOL     OW69658   4.672   7.889   1.837 -0.1375 -0.1553 -0.6081
23027SOL    HW169659   4.594   7.939   1.860  0.0618  0.8802 -2.0158
23027SOL    HW269660   4.720   7.946   1.777  1.8397 -0.6503  0.4097
23028SOL     OW69661   6.436   8.533   8.183  0.1815  0.0517  0.1366
23028SOL    HW169662   6.384   8.465   8.141 -0.5835 -0.5271  1.9193
23028SOL    HW269663   6.459   8.497   8.268  0.0740  1.8658  0.9902
23029SOL     OW69664   4.736   3.091   6.290  0.0918  0.0137 -0.1654
23029SOL    HW169665   4.739   3.056   6.201  0.5356 -0.8300  0.1739
23029SOL    HW269666   4.736   3.186   6.278 -1.1550 -0.0799 -1.1066
23030SOL     OW69667   1.301   1.923   4.330  0.3269 -0.0252  0.1475
23030SOL    HW169668   1.301   1.843   4.277 -0.7255 -0.3133  0.5627
23030SOL    HW269669   1.285   1.994   4.267  0.2120 -0.2467 -0.0719
23031SOL     OW69670   8.753   6.976   6.164 -0.4529 -0.3085 -0.4092
23031SOL    HW169671   8.715   6.893   6.193 -0.0931  0.2181  1.7625
23031SOL    HW269672   8.780   7.019   6.245  0.8312  1.2307 -1.5899
23032SOL     OW69673   1.517   8.632   1.040 -0.0802 -0.1127  0.0890
23032SOL    HW169674   1.514   8.606   1.132 -2.2732 -0.6534 -0.0893
23032SOL    HW269675   1.611   8.637   1.020  0.4566  0.5504  2.4629
23033SOL     OW69676   8.711   0.352   9.907  0.1919  0.0234 -0.2695
23033SOL    HW169677   8.763   0.406   9.966 -2.2553 -0.5772  2.6643
23033SOL    HW269678   8.759   0.269   9.901  0.6254  0.2021  0.6468
23034SOL     OW69679   0.656   3.503   3.135  0.4981  0.2904  0.0595
23034SOL    HW169680   0.744   3.467   3.145  0.9019  1.3198  0.3144
23034SOL    HW269681   0.601   3.450   3.193  0.7999 -0.8251 -0.6430
23035SOL     OW69682   4.848   8.570   4.635 -0.2260 -0.3293  0.2935
23035SOL    HW169683   4.888   8.501   4.582 -1.1351 -1.6245  1.2181
23035SOL    HW269684   4.816   8.634   4.572  4.2972  1.5131 -0.5116
23036SOL     OW69685   7.886   8.195   8.862  0.7719  0.2330  0.1757
23036SOL    HW169686   7.888   8.253   8.786  2.2680  0.7013  0.5493
23036SOL    HW269687   7.896   8.253   8.937  3.1674 -0.4961  0.5169
23037SOL     OW69688   6.934   8.358   9.045 -0.0289  0.5437 -0.7423
23037SOL    HW169689   6.927   8.439   9.096 -0.2655  0.2780 -0.3476
23037SOL    HW269690   7.010   8.313   9.082  0.0893  0.5769 -0.9462
23038SOL     OW69691   6.266   2.154   3.426 -0.3705 -0.0592  0.6593
23038SOL    HW169692   6.205   2.092   3.467 -2.3006  1.2453 -0.0871
23038SOL    HW269693   6.315   2.191   3.499 -0.0836 -1.5089  1.2380
23039SOL     OW69694   0.553   2.213   9.120 -0.7585  0.2754 -0.4526
23039SOL    HW169695   0.481   2.275   9.116 -0.0840  1.0942 -0.3116
23039SOL    HW269696   0.555   2.184   9.211 -1.8015 -0.8687 -0.7665
23040SOL     OW69697   4.302   0.719   6.115 -0.0772 -0.2438  0.4243
23040SOL    HW169698   4.381   0.760   6.079 -0.3555 -0.7558 -0.8226
23040SOL    HW269699   4.305   0.629   6.084 -1.0875 -0.3013  0.4493
23041SOL     OW69700   7.966   8.154   1.657 -0.3667 -0.2616  0.7302
23041SOL    HW169701   7.982   8.158   1.751  1.5525 -0.7807  0.4568
23041SOL    HW269702   8.027   8.217   1.619 -2.6070  1.5943 -0.0780
23042SOL     OW69703   1.389   5.978   8.415  0.1029  0.2999 -0.1759
23042SOL    HW169704   1.466   5.982   8.471  0.5489 -1.4560 -0.6083
23042SOL    HW269705   1.319   5.947   8.472 -0.1717  1.3143  0.0688
23043SOL     OW69706   2.060   0.264   4.935  0.1496 -0.1827  0.4653
23043SOL    HW169707   2.104   0.300   4.857 -0.8946  0.5614  0.2017
23043SOL    HW269708   2.014   0.338   4.973 -1.6672 -1.1040  0.1834
23044SOL     OW69709   0.964   3.102   0.981 -0.9194 -0.5718 -0.7386
23044SOL    HW169710   0.962   3.189   1.020 -0.8991 -1.5162  1.5166
23044SOL    HW269711   0.873   3.082   0.960 -1.0570 -0.3987 -0.3094
23045SOL     OW69712   1.776   4.238   7.704  0.3558 -0.2095 -0.8149
23045SOL    HW169713   1.832   4.263   7.630  1.1306  0.4475 -0.0356
23045SOL    HW269714   1.737   4.155   7.677  2.0707 -0.9388 -1.2235
23046SOL     OW69715   6.366   8.060   1.846  0.4297 -0.1903  0.1658
23046SOL    HW169716   6.340   8.150   1.829  1.1224  0.3575  1.8500
23046SOL    HW269717   6.461   8.061   1.846  0.4770 -0.5043  1.9855
23047SOL     OW69718   1.417   9.574   4.343  0.2602  0.6533 -0.2958
23047SOL    HW169719   1.398   9.666   4.357 -2.1600  0.2751 -0.6978
23047SOL    HW269720   1.342   9.528   4.381  1.1373 -1.1200 -0.6190
23048SOL     OW69721   1.769   8.040   9.042 -0.1189  0.2086  0.0076
23048SOL    HW169722   1.712   8.110   9.011  0.9890  0.9751 -0.3858
23048SOL    HW269723   1.764   7.972   8.975 -0.8701  0.0792  0.1846
23049SOL     OW69724   5.474   7.671   9.139  0.4260  0.3053  0.5061
23049SOL    HW169725   5.482   7.589   9.188  0.2863 -0.1759 -0.2441
23049SOL    HW269726   5.518   7.652   9.055 -0.5349  0.6396 -0.0904
23050SOL     OW69727   4.861   3.987   4.030 -0.2282  0.0727  0.2499
23050SOL    HW169728   4.858   3.895   4.054 -0.9140 -0.6156 -2.2122
23050SOL    HW269729   4.954   4.009   4.028  0.0484 -1.1000 -0.8860
23051SOL     OW69730   6.023   3.964   6.799  0.1698 -0.3035  0.1154
23051SOL    HW169731   6.070   4.022   6.859 -1.0410  2.0311 -1.0188
23051SOL    HW269732   6.092   3.921   6.749  1.1595 -1.3063  2.2105
23052SOL     OW69733   8.841   6.474   7.926 -1.0051 -0.4147  0.0600
23052SOL    HW169734   8.803   6.554   7.891 -0.5373 -0.4339 -0.5011
23052SOL    HW269735   8.802   6.403   7.874 -0.1199 -0.4252 -0.6115
23053SOL     OW69736   5.999   2.908   4.833 -0.2979 -0.2597 -0.4312
23053SOL    HW169737   5.908   2.879   4.834 -0.8042  1.1591 -1.2495
23053SOL    HW269738   6.047   2.838   4.789 -0.8310 -1.4091  0.7860
23054SOL     OW69739   2.329   7.066   0.478  0.3474  0.3463 -0.1190
23054SOL    HW169740   2.422   7.050   0.490  0.0599  0.0392  2.2505
23054SOL    HW269741   2.313   7.150   0.522 -0.3226  0.9838 -1.5138
23055SOL     OW69742   0.609   5.866   3.130 -0.5851 -0.2918  0.4779
23055SOL    HW169743   0.641   5.953   3.108  1.3169 -0.7195  1.4035
23055SOL    HW269744   0.514   5.877   3.138 -0.5287  1.4014 -0.6430
23056SOL     OW69745   2.776   2.005   5.518 -0.5299  0.5381  0.1656
23056SOL    HW169746   2.768   2.051   5.601  1.6038 -0.3963  0.9719
23056SOL    HW269747   2.711   1.935   5.523 -0.2604  0.3491  1.1690
23057SOL     OW69748   3.284   6.084   0.705 -0.4406 -0.5038 -0.5094
23057SOL    HW169749   3.279   6.072   0.800 -0.1138 -0.3997 -0.4779
23057SOL    HW269750   3.195   6.110   0.680 -0.5214 -0.4990 -0.2285
23058SOL     OW69751   7.739   1.828   2.404 -0.1567  0.3807 -0.4580
23058SOL    HW169752   7.733   1.911   2.357  0.2781 -0.1418 -1.4654
23058SOL    HW269753   7.756   1.763   2.336  0.1428 -0.4462  0.3863
23059SOL     OW69754   7.863   9.441   4.255  0.0529  0.0851 -0.0435
23059SOL    HW169755   7.774   9.447   4.221 -0.2468 -1.0307  0.4971
23059SOL    HW269756   7.907   9.519   4.222 -1.5536  1.4659  0.9539
23060SOL     OW69757   7.306   5.773   6.434 -0.3831  0.0389 -0.0259
23060SOL    HW169758   7.384   5.826   6.446 -0.0267 -0.6347  0.7882
23060SOL    HW269759   7.331   5.686   6.467 -0.5412 -1.0142 -2.4553
23061SOL     OW69760   8.508   8.990   9.531  0.5876 -0.0161 -0.1803
23061SOL    HW169761   8.489   8.910   9.579  0.0574 -0.3328 -0.8984
23061SOL    HW269762   8.502   9.060   9.597 -2.0605 -0.2106 -0.1029
23062SOL     OW69763   9.781   6.347   5.231 -0.0908  0.2601 -0.0072
23062SOL    HW169764   9.709   6.311   5.283 -0.7461 -0.2492 -1.2180
23062SOL    HW269765   9.738   6.401   5.164  0.8077  2.0994  0.8374
23063SOL     OW69766   2.362   4.856   9.418  0.2618 -0.4534  0.4094
23063SOL    HW169767   2.407   4.773   9.401 -0.5085 -0.7928 -0.0202
23063SOL    HW269768   2.416   4.899   9.484  0.8257 -1.1714  0.4354
23064SOL     OW69769   6.320   0.975   3.468 -0.4270  0.1018 -0.0642
23064SOL    HW169770   6.248   0.994   3.528 -0.6590 -0.1099 -0.2748
23064SOL    HW269771   6.366   1.058   3.458 -1.5615  0.6237 -1.1583
23065SOL     OW69772   9.026   6.395   8.549 -0.2764  0.3705  0.4679
23065SOL    HW169773   8.955   6.459   8.547 -0.9111 -0.2923 -2.2762
23065SOL    HW269774   8.990   6.317   8.507  1.5437 -0.6026  0.6173
23066SOL     OW69775   8.611   9.852   8.367  0.0490 -0.0070 -0.0790
23066SOL    HW169776   8.555   9.912   8.316  0.8629  2.3379  1.5860
23066SOL    HW269777   8.696   9.856   8.323 -0.4274 -1.6713 -1.2038
23067SOL     OW69778   8.326   8.409   5.471  0.1263  0.2546  0.3959
23067SOL    HW169779   8.248   8.354   5.466 -0.0227  0.5654 -1.9302
23067SOL    HW269780   8.291   8.497   5.484  0.0768  0.3678 -0.4497
23068SOL     OW69781   2.733   2.097   4.653  0.6694  0.0231  0.3901
23068SOL    HW169782   2.690   2.067   4.732  0.4008 -0.6136  0.0068
23068SOL    HW269783   2.827   2.084   4.670  0.5214 -2.0972 -0.1681
23069SOL     OW69784   9.148   0.024   4.072  0.3207 -0.1129 -0.3353
23069SOL    HW169785   9.113  -0.022   3.995  0.9040  1.2433 -1.4594
23069SOL    HW269786   9.092   0.102   4.080  0.3944 -0.1434  0.5008
23070SOL     OW69787   2.333   6.470   7.302  0.6775  0.1569  0.1767
23070SOL    HW169788   2.373   6.514   7.227 -2.2943  0.2207 -1.4905
23070SOL    HW269789   2.335   6.377   7.279  0.4302  0.1051  0.3602
23071SOL     OW69790   9.782   5.375   2.010  0.5647 -0.5257 -0.2504
23071SOL    HW169791   9.793   5.410   1.922  1.5488 -0.4562 -0.1176
23071SOL    HW269792   9.816   5.286   2.005  1.4327 -0.2414  0.2341
23072SOL     OW69793   9.553   5.029   5.024 -0.2516  0.0200  0.6070
23072SOL    HW169794   9.642   4.998   5.010  0.4854  2.3349 -0.3865
23072SOL    HW269795   9.510   5.020   4.939 -0.0345  1.5000  0.3043
23073SOL     OW69796   6.725   8.552   8.543  0.0902 -0.3182  0.2637
23073SOL    HW169797   6.677   8.632   8.563  1.6108  1.3062 -2.0769
23073SOL    HW269798   6.677   8.514   8.469 -0.7783 -1.7917  1.5273
23074SOL     OW69799   0.501   3.427   0.077  0.4122  0.3871 -0.2417
23074SOL    HW169800   0.424   3.462   0.032  0.3519 -0.3093 -0.6970
23074SOL    HW269801   0.465   3.363   0.139  0.6553 -0.4449 -0.9361
23075SOL     OW69802   0.723   9.020   2.231  0.6063 -0.1414  0.3341
23075SOL    HW169803   0.628   9.031   2.222  0.5523  0.8135  1.6789
23075SOL    HW269804   0.760   9.099   2.191  0.9267 -1.0466 -1.2346
23076SOL     OW69805   4.642   9.250   7.378  0.1367 -0.5735 -0.3580
23076SOL    HW169806   4.643   9.163   7.340 -0.7409 -1.1147  0.8057
23076SOL    HW269807   4.566   9.250   7.436 -0.1025  1.0923 -0.6240
23077SOL     OW69808   0.379   4.283   9.098  0.3976  0.4490  0.1774
23077SOL    HW169809   0.349   4.316   9.183  2.2775  0.4223  0.9080
23077SOL    HW269810   0.474   4.276   9.108  0.8614  1.8548 -2.4275
23078SOL     OW69811   2.646   3.122   4.689 -0.1819  0.0626  0.0421
23078SOL    HW169812   2.578   3.098   4.626 -0.7975  0.6755  0.4593
23078SOL    HW269813   2.657   3.216   4.678  0.4051  0.0113  0.1702
23079SOL     OW69814   8.423   6.782   3.883  0.7756 -0.0676  0.1000
23079SOL    HW169815   8.486   6.817   3.820 -0.3388  0.0633 -0.9655
23079SOL    HW269816   8.356   6.739   3.830 -0.1193 -0.0719  1.1924
23080SOL     OW69817   0.717   9.619   8.534  0.1602 -0.4821  0.2153
23080SOL    HW169818   0.790   9.620   8.473 -0.2434 -0.2216 -0.2708
23080SOL    HW269819   0.711   9.528   8.563  1.4950 -0.2656  1.2684
23081SOL     OW69820   7.344   2.821   7.306 -0.0299 -0.4848  0.0122
23081SOL    HW169821   7.335   2.742   7.252  2.2745 -1.0134  0.2812
23081SOL    HW269822   7.254   2.850   7.322 -0.9912 -3.2146  0.1264
23082SOL     OW69823   0.578   6.432   9.604  0.2642 -0.0367  0.2799
23082SOL    HW169824   0.605   6.518   9.638  1.7314 -0.7809  1.0573
23082SOL    HW269825   0.603   6.434   9.512  1.6397 -0.1449  0.6303
23083SOL     OW69826   2.424   8.593   4.784  0.1069 -0.3994  0.2987
23083SOL    HW169827   2.375   8.674   4.771 -0.3980 -0.2183  2.7410
23083SOL    HW269828   2.515   8.620   4.790  0.1274 -0.2538 -0.5344
23084SOL     OW69829   1.715   6.994   8.973  0.7881 -0.5079  0.0663
23084SOL    HW169830   1.641   6.998   8.911  0.0897 -0.1034  0.8996
23084SOL    HW269831   1.730   6.901   8.987  2.7199 -0.7456 -2.7260
23085SOL     OW69832   1.799   7.983   5.499 -0.3743  0.9999  0.1121
23085SOL    HW169833   1.799   7.887   5.508  0.3015  0.8005 -1.6875
23085SOL    HW269834   1.877   8.011   5.546  0.2779  0.4938 -0.6327
23086SOL     OW69835   0.064   2.854   8.389  0.0640 -0.7742  0.1054
23086SOL    HW169836   0.130   2.874   8.456 -0.3756 -1.6621  0.8176
23086SOL    HW269837  -0.012   2.907   8.414 -0.0660 -1.0300  0.2577
23087SOL     OW69838   9.438   0.584   4.702 -0.0786  0.3609  0.1517
23087SOL    HW169839   9.461   0.567   4.611 -1.1932  0.1903 -0.1106
23087SOL    HW269840   9.342   0.582   4.703 -0.0664 -1.2443  1.6280
23088SOL     OW69841   9.077   7.977   7.630  0.3624 -0.1888 -0.0751
23088SOL    HW169842   9.168   8.008   7.625  0.3932 -0.2956 -0.1740
23088SOL    HW269843   9.024   8.054   7.609  0.4360 -0.1889 -0.2556
23089SOL     OW69844   5.971   7.467   1.581 -0.1554  0.3053  0.4000
23089SOL    HW169845   5.995   7.539   1.523 -0.8147  0.6936  0.6007
23089SOL    HW269846   5.996   7.388   1.533 -2.1612  0.5345 -1.1315
23090SOL     OW69847   6.745   1.700   3.523 -0.1189 -0.4909 -0.1109
23090SOL    HW169848   6.757   1.619   3.474  0.2232  0.0860 -1.0211
23090SOL    HW269849   6.655   1.697   3.555  0.3615 -1.9177  1.1808
23091SOL     OW69850   1.371   3.666   2.680 -0.1530 -0.1552  0.6465
23091SOL    HW169851   1.320   3.588   2.659  0.0814  0.1224 -1.1082
23091SOL    HW269852   1.349   3.684   2.771  0.2368 -2.5840  1.2990
23092SOL     OW69853   3.531   1.295   6.832  0.4313  0.0840  0.8159
23092SOL    HW169854   3.508   1.204   6.849  0.1801  0.4102  2.3706
23092SOL    HW269855   3.540   1.335   6.919 -3.1319  2.4867  0.2951
23093SOL     OW69856   3.586   4.693   3.920 -0.6693 -0.6122 -0.0663
23093SOL    HW169857   3.667   4.714   3.874 -0.0756 -2.2711  0.1529
23093SOL    HW269858   3.530   4.769   3.905  1.1531  0.8994  0.3844
23094SOL     OW69859   7.914   2.151   4.296 -0.3901  0.1941  0.1891
23094SOL    HW169860   7.843   2.094   4.324  0.4764 -1.0594 -0.0988
23094SOL    HW269861   7.911   2.148   4.201  0.5913 -0.6023  0.1645
23095SOL     OW69862   9.046   1.220   0.945  0.1425  0.9795  0.4455
23095SOL    HW169863   9.063   1.287   1.011 -1.0456 -0.6221  2.5058
23095SOL    HW269864   9.114   1.154   0.961 -2.4560 -1.3701  3.0014
23096SOL     OW69865   0.555   6.605   6.497  0.1631 -0.0590 -0.2196
23096SOL    HW169866   0.491   6.568   6.436  1.5199 -0.8135 -1.2459
23096SOL    HW269867   0.507   6.674   6.543 -1.7321 -1.4043 -0.0534
23097SOL     OW69868   1.174   4.070   7.638 -0.3480 -0.0400 -0.6307
23097SOL    HW169869   1.113   3.999   7.618 -2.1430  0.5364  2.2341
23097SOL    HW269870   1.183   4.068   7.733  0.7737  2.5991 -0.5903
23098SOL     OW69871   0.750   3.228   6.995  0.2467  0.1359  0.0536
23098SOL    HW169872   0.722   3.170   7.066 -0.6923  0.1577 -0.2795
23098SOL    HW269873   0.764   3.313   7.038 -0.3750  0.1649  0.2202
23099SOL     OW69874   6.876   9.932   6.997  0.2490 -0.4926  0.2159
23099SOL    HW169875   6.793   9.980   6.984  1.7836  2.4849  0.4472
23099SOL    HW269876   6.858   9.871   7.068 -1.7373  0.1125  0.2902
23100SOL     OW69877   0.852   8.883   0.907 -0.3892 -0.1916 -0.1943
23100SOL    HW169878   0.786   8.952   0.911  0.4940  0.6994 -0.5495
23100SOL    HW269879   0.839   8.832   0.987 -0.6533  0.7711  0.3913
23101SOL     OW69880   9.088   0.025   7.763  0.0998 -0.1213  0.1242
23101SOL    HW169881   9.006   0.018   7.813  1.4837  0.3154  2.6280
23101SOL    HW269882   9.102   0.119   7.755  0.5731 -0.1951  0.1011
23102SOL     OW69883   2.932   1.635   7.983  0.1067 -0.0315  0.0498
23102SOL    HW169884   2.926   1.716   7.932 -0.6429  0.6148  1.1338
23102SOL    HW269885   3.008   1.648   8.041  0.3088 -0.3304 -0.1433
23103SOL     OW69886   4.091   4.031   8.292  0.0994 -0.2898 -0.1141
23103SOL    HW169887   4.135   3.947   8.304 -0.0315 -0.2134  0.9866
23103SOL    HW269888   4.075   4.036   8.198 -1.9768 -2.5738 -0.0084
23104SOL     OW69889   9.344   2.043   9.270 -0.2740  0.5069 -0.4684
23104SOL    HW169890   9.322   2.135   9.285 -1.0968 -0.0418  2.2944
23104SOL    HW269891   9.433   2.045   9.234 -0.3332  2.3578 -0.5972
23105SOL     OW69892   3.285   8.818   1.809 -0.2411  0.0653  0.7069
23105SOL    HW169893   3.345   8.892   1.803 -0.4052  0.3232  2.0803
23105SOL    HW269894   3.335   8.750   1.854  0.3612 -1.1876 -1.6356
23106SOL     OW69895   8.374   1.210   3.004 -0.1552  0.0369  0.2156
23106SOL    HW169896   8.437   1.281   3.014  0.0793  0.0143 -0.9299
23106SOL    HW269897   8.289   1.252   3.009 -0.0255  0.2809  0.3566
23107SOL     OW69898   6.968   5.029   0.823 -0.1034  0.0568  0.0362
23107SOL    HW169899   6.934   5.017   0.734  1.3496  0.0971 -0.5570
23107SOL    HW269900   7.006   5.117   0.822  0.5938 -0.2353  0.4555
23108SOL     OW69901   6.762   6.826   6.455 -0.1620 -0.2935  0.3950
23108SOL    HW169902   6.671   6.796   6.455 -0.5345  0.5231 -2.7868
23108SOL    HW269903   6.763   6.901   6.396  2.6046 -0.3328  0.2660
23109SOL     OW69904   8.386   6.064   4.030  0.3528  0.4941 -0.3885
23109SOL    HW169905   8.419   6.109   3.952 -0.3846  0.3616 -0.7946
23109SOL    HW269906   8.460   6.060   4.090  0.8118  0.9793 -0.9203
23110SOL     OW69907   1.370   3.246   2.200 -0.4623 -0.0772 -0.4914
23110SOL    HW169908   1.400   3.301   2.127 -1.0122 -0.3534 -0.9363
23110SOL    HW269909   1.443   3.188   2.218  0.5267  1.4450  0.6643
23111SOL     OW69910   9.541   2.677   9.601 -0.3418 -0.0179 -0.3355
23111SOL    HW169911   9.583   2.686   9.686  0.9054  1.4226 -1.0646
23111SOL    HW269912   9.600   2.721   9.540 -1.8711  0.1696 -1.7438
23112SOL     OW69913   0.841   8.787   5.297  0.4001 -0.2322 -0.5448
23112SOL    HW169914   0.779   8.829   5.356 -0.2610 -1.3686 -0.4000
23112SOL    HW269915   0.818   8.694   5.300  1.7961 -0.6105 -0.8736
23113SOL     OW69916   7.696   0.427   2.384 -0.8046  0.2450 -0.1192
23113SOL    HW169917   7.761   0.496   2.394 -0.3977 -0.4332  2.7582
23113SOL    HW269918   7.615   0.465   2.419 -0.8538 -0.3334  0.4143
23114SOL     OW69919   6.058   7.299   9.124  0.1555 -0.1544 -0.6052
23114SOL    HW169920   6.081   7.342   9.206  0.4740  1.1506 -1.3461
23114SOL    HW269921   6.088   7.209   9.134 -0.5624 -0.2346  1.0104
23115SOL     OW69922   7.058   5.318   8.469  0.2872  0.1027 -0.0498
23115SOL    HW169923   6.995   5.328   8.541  0.3060 -0.8157  0.1105
23115SOL    HW269924   7.138   5.358   8.503  0.6418 -1.3621  0.9285
23116SOL     OW69925   6.521   2.430   2.441 -0.1295 -0.4462  0.4131
23116SOL    HW169926   6.596   2.486   2.466 -0.1708 -0.5815  0.8457
23116SOL    HW269927   6.557   2.371   2.375  0.3920 -1.1313  1.2908
23117SOL     OW69928   3.193   6.336   9.410 -0.1459  0.2017  0.4514
23117SOL    HW169929   3.193   6.277   9.486 -0.4369  0.5805  0.7486
23117SOL    HW269930   3.124   6.301   9.353 -0.6179  0.5082  0.8287
23118SOL     OW69931   0.382   7.899   3.738 -0.3694 -0.8272  0.0874
23118SOL    HW169932   0.383   7.833   3.808 -1.7866  0.4196  1.3610
23118SOL    HW269933   0.430   7.973   3.773  0.2719 -0.7475 -0.9126
23119SOL     OW69934   6.465   0.341   5.051 -0.0697 -0.0487  0.2595
23119SOL    HW169935   6.444   0.312   4.962  0.8114  1.1638 -0.3681
23119SOL    HW269936   6.559   0.360   5.049 -0.2768  1.1957  1.0918
23120SOL     OW69937   3.732   6.423   9.713  0.6102  0.8279 -0.3422
23120SOL    HW169938   3.687   6.425   9.628 -0.8409  1.7518  0.3976
23120SOL    HW269939   3.670   6.464   9.774  1.7230  0.4373  1.1214
23121SOL     OW69940   5.590   3.531   2.637 -0.1709  0.7670  0.3368
23121SOL    HW169941   5.584   3.436   2.642 -0.1355  0.5187 -2.5455
23121SOL    HW269942   5.506   3.562   2.669 -0.3275 -0.2360  0.9419
23122SOL     OW69943   3.944   3.533   1.364 -0.0251 -0.9496  0.3022
23122SOL    HW169944   3.972   3.516   1.453 -0.4539  0.1892  0.6681
23122SOL    HW269945   3.987   3.465   1.312  1.9963 -0.3299  1.0609
23123SOL     OW69946   2.924   7.760   5.305  0.0895 -0.1301 -0.1451
23123SOL    HW169947   2.839   7.798   5.328 -0.1293 -0.5151 -0.3160
23123SOL    HW269948   2.986   7.831   5.320 -0.2983  0.2478 -0.2997
23124SOL     OW69949   4.523   5.019   0.504  0.0322 -0.1223  0.5614
23124SOL    HW169950   4.588   5.046   0.568 -0.2858 -0.7539  1.1743
23124SOL    HW269951   4.460   5.091   0.501  0.2289  0.0554  0.7090
23125SOL     OW69952   1.516   6.404   0.273 -0.6815  0.0578 -0.7294
23125SOL    HW169953   1.497   6.480   0.327 -0.6600 -0.6356  0.2855
23125SOL    HW269954   1.467   6.418   0.192 -1.7340  0.5110 -0.0233
23126SOL     OW69955   7.383   8.491   6.846 -0.2161  0.8312  0.9305
23126SOL    HW169956   7.320   8.452   6.786  0.0696  0.7642  0.6697
23126SOL    HW269957   7.430   8.416   6.883 -0.3905  0.8724  1.2350
23127SOL     OW69958   6.358   8.612   6.903  0.0519  0.6164  0.3258
23127SOL    HW169959   6.268   8.593   6.931 -0.3765  1.2121 -0.5810
23127SOL    HW269960   6.400   8.526   6.897 -0.5849  0.2973  0.3659
23128SOL     OW69961   9.176   8.508   5.556 -0.2494  0.0185  0.0000
23128SOL    HW169962   9.221   8.435   5.513  0.2173 -0.0079  0.5214
23128SOL    HW269963   9.171   8.483   5.648 -0.8274  0.2818  0.0429
23129SOL     OW69964   9.039   9.229   7.513  0.2334  0.2958 -0.0995
23129SOL    HW169965   8.984   9.291   7.561  0.3580 -0.3075  0.8358
23129SOL    HW269966   9.126   9.270   7.515  0.3220  0.0881  0.5405
23130SOL     OW69967   4.234   1.739   9.058 -0.7391  0.0022 -0.6088
23130SOL    HW169968   4.161   1.764   9.116 -1.4640  2.5384 -2.4474
23130SOL    HW269969   4.308   1.791   9.089 -0.7944  0.4128 -1.1477
23131SOL     OW69970   6.546   6.676   9.669  0.2271  0.2027 -0.1890
23131SOL    HW169971   6.610   6.736   9.705  0.8829 -0.7152  0.2172
23131SOL    HW269972   6.557   6.595   9.720 -0.9161 -0.1314 -0.4321
23132SOL     OW69973   9.182   6.989   3.442  0.2789  0.3467 -0.3374
23132SOL    HW169974   9.093   7.012   3.416 -0.2054  2.9924  2.9989
23132SOL    HW269975   9.183   6.893   3.442 -2.3701  0.2346 -0.9538
23133SOL     OW69976   8.893   2.139   1.349  0.6607 -0.0660  0.2604
23133SOL    HW169977   8.966   2.201   1.349  0.1423  0.6654  2.7724
23133SOL    HW269978   8.860   2.141   1.259  0.1840  3.9431  0.3412
23134SOL     OW69979   3.025   2.813   6.298  0.2022 -0.3224  0.0140
23134SOL    HW169980   3.087   2.855   6.358 -0.9402  0.3343  0.7614
23134SOL    HW269981   3.079   2.750   6.249  1.8491  1.5902 -0.7684
23135SOL     OW69982   5.598   8.243   9.285 -0.1921  0.2634 -0.2925
23135SOL    HW169983   5.686   8.214   9.261 -0.2154 -0.8268  0.8440
23135SOL    HW269984   5.556   8.165   9.320 -2.4283  0.1737 -2.8771
23136SOL     OW69985   5.784   5.469   4.220 -0.4776 -0.1357 -0.1560
23136SOL    HW169986   5.710   5.412   4.245  0.2290 -1.8376 -1.7057
23136SOL    HW269987   5.794   5.528   4.295 -1.5325 -1.7862  1.3951
23137SOL     OW69988   0.351   5.705   2.060  0.3735 -1.0105  0.0940
23137SOL    HW169989   0.313   5.659   1.986  1.7199 -2.5268  0.2795
23137SOL    HW269990   0.363   5.795   2.029 -1.1935 -1.0365 -0.7030
23138SOL     OW69991   9.904   5.341   2.473  0.5481 -0.0544  0.3764
23138SOL    HW169992   9.913   5.247   2.485  0.7511  0.3219  4.6350
23138SOL    HW269993   9.811   5.354   2.452  0.2769 -1.1287  0.8791
23139SOL     OW69994   8.354   2.673   4.931 -0.0486  0.0076  0.0817
23139SOL    HW169995   8.260   2.665   4.917  0.0380  0.4467 -0.8603
23139SOL    HW269996   8.365   2.748   4.989 -0.2720 -0.0340  0.1771
23140SOL     OW69997   1.024   6.701   8.234  0.3236 -0.3575  0.2474
23140SOL    HW169998   0.940   6.739   8.257 -0.3514 -1.6203 -0.0078
23140SOL    HW269999   1.073   6.699   8.316  0.3702  0.9769  0.2699
23141SOL     OW70000   2.593   5.830   7.982 -0.1836 -0.1221  0.1060
23141SOL    HW170001   2.507   5.845   8.021 -0.5438 -0.0609 -0.6994
23141SOL    HW270002   2.654   5.870   8.044 -0.5905 -1.5628  1.5067
23142SOL     OW70003   7.106   3.828   3.727 -0.2091 -0.8002 -0.4227
23142SOL    HW170004   7.165   3.784   3.788 -0.6577  0.2831  0.8363
23142SOL    HW270005   7.151   3.909   3.704 -1.6574  0.6320  1.5118
23143SOL     OW70006   7.633   9.872   5.347  0.1059 -0.1214  0.0774
23143SOL    HW170007   7.646   9.931   5.273  2.4326 -0.9622 -0.2897
23143SOL    HW270008   7.630   9.929   5.423 -1.0083  0.6636 -0.5216
23144SOL     OW70009   7.346   2.770   6.475  0.2246  0.1478 -0.7954
23144SOL    HW170010   7.327   2.743   6.564  3.0596  2.8486  0.8276
23144SOL    HW270011   7.265   2.811   6.445 -0.2518  0.7968  1.2386
23145SOL     OW70012   9.924   4.132   1.370  0.0730  0.2439  0.2509
23145SOL    HW170013   9.985   4.206   1.376  0.3188  0.1803 -1.1022
23145SOL    HW270014   9.930   4.090   1.455  0.9567  0.9989  0.5851
23146SOL     OW70015   7.866   8.164   2.487 -0.1858 -0.0964  0.0686
23146SOL    HW170016   7.877   8.206   2.572  0.7876  1.1646 -0.6601
23146SOL    HW270017   7.812   8.087   2.506 -0.9868  0.8013  1.6280
23147SOL     OW70018   9.543   6.817   8.128 -0.5306 -0.1859 -0.0412
23147SOL    HW170019   9.609   6.770   8.180 -0.1924  1.3210  0.9459
23147SOL    HW270020   9.579   6.817   8.039  1.2505  1.3029  0.6235
23148SOL     OW70021   7.445   6.360   0.307  0.1365 -0.0431 -0.2507
23148SOL    HW170022   7.490   6.275   0.297  2.0336  0.6810  1.3251
23148SOL    HW270023   7.497   6.420   0.254  0.6169  0.6498  0.9497
23149SOL     OW70024   4.015   0.724   0.487  0.3965  0.1279  0.3702
23149SOL    HW170025   4.006   0.792   0.554  0.7203 -0.6441  1.2075
23149SOL    HW270026   4.037   0.645   0.535  1.7706 -0.2147 -0.7251
23150SOL     OW70027   9.231   7.967   7.962  0.1476  0.9488 -0.4146
23150SOL    HW170028   9.242   7.895   8.024 -1.4125  0.9801 -0.0491
23150SOL    HW270029   9.317   7.979   7.923  1.1563  0.8123  1.6146
23151SOL     OW70030   3.925   5.840   5.164  0.3737  0.1073 -0.1988
23151SOL    HW170031   3.929   5.869   5.073  0.1461  1.0735  0.0924
23151SOL    HW270032   4.013   5.856   5.198  0.7400 -1.1470 -0.4978
23152SOL     OW70033   4.489   0.598   9.378  0.3878  0.0603  0.4984
23152SOL    HW170034   4.469   0.578   9.287  0.0533  2.3395  0.0156
23152SOL    HW270035   4.404   0.619   9.417  0.8615  2.1290  0.4908
23153SOL     OW70036   1.470   4.232   3.608  0.1434  0.0319 -0.1958
23153SOL    HW170037   1.406   4.162   3.618  0.9452 -1.2709 -3.1234
23153SOL    HW270038   1.427   4.297   3.552  0.4377  0.5280  0.1351
23154SOL     OW70039   8.035   3.174   9.841 -0.9872  0.0408  0.3978
23154SOL    HW170040   8.070   3.210   9.759 -0.5599 -0.4244  0.3736
23154SOL    HW270041   8.086   3.095   9.856 -0.7384  0.3695  1.3575
23155SOL     OW70042   9.220   4.697   6.531  0.4719  0.4847 -0.1709
23155SOL    HW170043   9.266   4.676   6.450 -0.3273  0.4795 -0.6407
23155SOL    HW270044   9.249   4.631   6.594 -0.5418 -0.8758 -1.0675
23156SOL     OW70045   9.733   9.394   0.840  0.1569 -0.1860 -0.1138
23156SOL    HW170046   9.752   9.480   0.879  0.2702 -1.3869  2.7555
23156SOL    HW270047   9.814   9.344   0.852 -0.1580 -0.9510 -1.0326
23157SOL     OW70048   1.340   7.893   3.073 -0.2242  0.0231  0.1804
23157SOL    HW170049   1.332   7.975   3.024  1.6283  0.2138  0.1135
23157SOL    HW270050   1.366   7.828   3.007 -1.7189 -0.6675  0.2258
23158SOL     OW70051   1.088   7.839   1.490 -0.1515  0.1252  0.4583
23158SOL    HW170052   1.131   7.920   1.515  0.9262  0.2864 -1.7292
23158SOL    HW270053   1.159   7.778   1.471 -0.9371 -0.9198  0.7367
23159SOL     OW70054   4.599   8.848   4.016 -0.0370 -0.6374  0.1668
23159SOL    HW170055   4.634   8.925   3.973 -0.1869 -0.5887  0.1302
23159SOL    HW270056   4.504   8.865   4.021 -0.4713 -1.9408 -2.1721
23160SOL     OW70057   4.529   1.565   5.761  0.0064 -0.5141 -0.1722
23160SOL    HW170058   4.531   1.647   5.810 -0.4252  0.0786 -1.1174
23160SOL    HW270059   4.460   1.514   5.802  0.0787 -0.2915  0.2338
23161SOL     OW70060   3.898   5.505   1.723  0.1011  0.3936  0.6034
23161SOL    HW170061   3.988   5.485   1.747 -0.2849 -0.2309  1.5991
23161SOL    HW270062   3.866   5.426   1.679 -0.3098  0.1764  1.2852
23162SOL     OW70063   1.040   5.154   5.575 -0.1509  0.0995 -0.3665
23162SOL    HW170064   1.005   5.116   5.656  0.3160  0.1066 -0.1562
23162SOL    HW270065   0.982   5.121   5.506  1.6383 -3.0912 -0.5534
23163SOL     OW70066   6.888   1.632   4.416  0.0900 -0.0815 -0.2208
23163SOL    HW170067   6.853   1.649   4.504  0.4926 -0.4131  0.0124
23163SOL    HW270068   6.917   1.540   4.420 -0.4870 -0.3021 -0.9050
23164SOL     OW70069   8.940   2.322   7.376 -0.1474 -0.1310 -0.1368
23164SOL    HW170070   8.956   2.350   7.466  2.4330 -1.6961 -0.0275
23164SOL    HW270071   8.900   2.235   7.384  0.0038 -0.2376 -0.5052
23165SOL     OW70072   6.659   1.720   3.000  0.0301  0.5301 -0.2944
23165SOL    HW170073   6.711   1.645   3.029  0.7631  1.3092  0.4461
23165SOL    HW270074   6.676   1.726   2.907 -0.0651 -0.2364 -0.3735
23166SOL     OW70075   2.870   4.159   4.225  0.7581  0.6024 -0.6957
23166SOL    HW170076   2.846   4.208   4.146 -0.7049  1.3250  0.1517
23166SOL    HW270077   2.867   4.067   4.197  1.2582  0.8766 -1.7213
23167SOL     OW70078   6.336   6.349   5.809 -0.3766 -0.4455 -0.5054
23167SOL    HW170079   6.337   6.284   5.878  0.2641 -0.3078 -0.3843
23167SOL    HW270080   6.308   6.430   5.852  0.2838 -0.2963 -0.3420
23168SOL     OW70081   1.318   6.155   0.112  0.2086  0.0780 -0.1036
23168SOL    HW170082   1.372   6.093   0.160  0.3172  0.7249  0.6250
23168SOL    HW270083   1.287   6.216   0.178  0.3591  0.9810 -0.8473
23169SOL     OW70084   7.976   2.538   1.560  0.5549  0.4038 -0.3079
23169SOL    HW170085   8.026   2.581   1.491  0.5420  1.5228  0.3693
23169SOL    HW270086   7.988   2.593   1.637 -1.3635  0.4783 -0.0042
23170SOL     OW70087   8.407   8.755   2.971 -0.3016 -0.3438  0.0227
23170SOL    HW170088   8.379   8.815   3.041 -0.3240 -1.2030  0.7632
23170SOL    HW270089   8.326   8.716   2.939 -0.5286  1.5258 -1.9126
23171SOL     OW70090   1.547   2.621   5.377  0.4090  0.2124  0.0572
23171SOL    HW170091   1.630   2.669   5.365 -0.2743  1.0534 -1.6275
23171SOL    HW270092   1.558   2.541   5.325  0.5298 -0.1737  0.6666
23172SOL     OW70093   9.471   8.787   5.571 -0.0188  0.0519  0.3045
23172SOL    HW170094   9.498   8.745   5.489  0.0876  1.2158 -0.2827
23172SOL    HW270095   9.551   8.795   5.622 -0.0104 -0.2781  0.3474
23173SOL     OW70096   0.216   1.631   3.780 -0.4652 -0.0224 -0.0408
23173SOL    HW170097   0.196   1.547   3.823  0.9241 -0.9700 -1.1514
23173SOL    HW270098   0.272   1.677   3.842  0.9969 -1.1032 -0.5159
23174SOL     OW70099   5.511   3.727   7.222  0.5775  0.4831 -0.4896
23174SOL    HW170100   5.492   3.662   7.155  2.5776  0.6478 -1.2958
23174SOL    HW270101   5.538   3.805   7.173  0.7918  1.0502  0.4935
23175SOL     OW70102   7.626   2.509   2.461  0.2945  0.3030 -0.0067
23175SOL    HW170103   7.589   2.425   2.487  1.4645 -0.6108 -1.1706
23175SOL    HW270104   7.591   2.525   2.373  0.1807  0.9758  0.1537
23176SOL     OW70105   2.344   4.152   3.981  0.3933  0.1745 -0.3015
23176SOL    HW170106   2.346   4.066   4.023 -1.1419  0.4863  0.5011
23176SOL    HW270107   2.316   4.212   4.051 -0.6037  0.9777 -1.3562
23177SOL     OW70108   8.027   0.632   5.915  0.0022  0.0875  0.1503
23177SOL    HW170109   8.100   0.694   5.908 -0.0852  0.0142 -2.7597
23177SOL    HW270110   8.059   0.553   5.872 -1.7816  0.1184 -1.3741
23178SOL     OW70111   3.902   7.588   6.486 -0.0148  0.6776  0.2304
23178SOL    HW170112   3.898   7.674   6.528  4.4574  1.0735  0.3425
23178SOL    HW270113   3.969   7.540   6.535 -1.0336 -2.2435 -0.9991
23179SOL     OW70114   5.862   4.260   3.508 -0.5557 -0.2351 -0.2885
23179SOL    HW170115   5.796   4.325   3.533 -0.4300 -0.1646 -0.1401
23179SOL    HW270116   5.839   4.182   3.559  0.0300  0.0813  0.4698
23180SOL     OW70117   2.952   0.408   6.746 -0.2555  0.0207  0.8467
23180SOL    HW170118   2.928   0.380   6.658 -1.4510  1.1118  0.8084
23180SOL    HW270119   2.881   0.376   6.802 -0.5368  1.0628  1.1118
23181SOL     OW70120   9.351   6.756   2.073 -0.0449 -0.1317 -0.2588
23181SOL    HW170121   9.440   6.721   2.077 -0.6554 -1.9459 -1.1644
23181SOL    HW270122   9.356   6.841   2.115  2.0628 -0.3087 -0.0640
23182SOL     OW70123   1.378   5.638   3.486 -0.3812  0.1584 -0.6315
23182SOL    HW170124   1.318   5.574   3.448  0.8467 -2.2371  1.1554
23182SOL    HW270125   1.430   5.588   3.548  0.6065  2.9675  1.0131
23183SOL     OW70126   8.755   4.349   0.452  0.0340  0.5438 -0.3489
23183SOL    HW170127   8.747   4.259   0.421  0.8409  0.6529 -0.8949
23183SOL    HW270128   8.789   4.397   0.377 -1.3013  1.5092 -0.3681
23184SOL     OW70129   1.587   8.581   6.035  0.3023  0.1262 -0.2017
23184SOL    HW170130   1.611   8.588   6.127  0.6936  0.7313 -0.3445
23184SOL    HW270131   1.586   8.671   6.003  0.5992 -0.1084 -0.8940
23185SOL     OW70132   8.650   9.236   0.201 -0.0237  0.2496  0.1851
23185SOL    HW170133   8.693   9.249   0.116 -0.8179  0.0682 -0.2553
23185SOL    HW270134   8.691   9.301   0.259 -0.1333  1.0277 -0.5820
23186SOL     OW70135   4.730   2.801   3.777 -1.0212  0.0670 -0.0760
23186SOL    HW170136   4.806   2.745   3.789 -0.6035  0.7453  0.5525
23186SOL    HW270137   4.679   2.791   3.857 -0.8879  0.6468  0.0910
23187SOL     OW70138   7.645   2.690   8.493 -0.1856 -0.3751  0.1109
23187SOL    HW170139   7.740   2.674   8.497  0.1072  1.2292  0.2893
23187SOL    HW270140   7.621   2.664   8.404  0.8805  1.2553 -0.7148
23188SOL     OW70141   7.564   6.730   8.271 -0.4444 -0.3009  1.0304
23188SOL    HW170142   7.574   6.641   8.303  2.7302  0.1280  1.6079
23188SOL    HW270143   7.552   6.783   8.350  0.7587  0.0498  1.0038
23189SOL     OW70144   8.359   3.860   7.323  0.4669 -0.0679  0.0938
23189SOL    HW170145   8.302   3.914   7.268  1.0195 -0.1199 -0.5516
23189SOL    HW270146   8.428   3.919   7.352 -0.0536  0.0604  1.0982
23190SOL     OW70147   3.402   9.850   1.996  0.3844  0.2791  0.3897
23190SOL    HW170148   3.362   9.908   1.932 -1.6752 -0.0108  1.3394
23190SOL    HW270149   3.410   9.766   1.951  0.8373  0.5779 -0.1055
23191SOL     OW70150   4.472   9.883   1.552 -0.0674 -0.2258 -0.1605
23191SOL    HW170151   4.396   9.903   1.606  0.2180 -1.1047  0.5958
23191SOL    HW270152   4.505   9.801   1.588 -0.1622 -1.1107 -1.9811
23192SOL     OW70153   1.640   6.582   7.052  0.1852 -0.7226  0.0328
23192SOL    HW170154   1.568   6.544   7.103  0.0207 -1.0450 -0.4364
23192SOL    HW270155   1.602   6.661   7.013  0.5306 -0.0440  1.0186
23193SOL     OW70156   4.912   4.850   3.155 -0.2008 -0.4083  0.2201
23193SOL    HW170157   4.826   4.822   3.187  0.3668 -2.4768  0.0949
23193SOL    HW270158   4.961   4.872   3.235 -0.8960  1.0454  0.2752
23194SOL     OW70159   3.558   1.648   8.281  0.5481 -0.4454 -0.2923
23194SOL    HW170160   3.463   1.637   8.290  0.4525  1.1433  1.3005
23194SOL    HW270161   3.588   1.664   8.371  1.6499  3.5587 -1.1914
23195SOL     OW70162   3.330   4.921   7.030  0.4241  0.1965  0.1407
23195SOL    HW170163   3.334   4.933   7.125 -0.2839  0.4990  0.1402
23195SOL    HW270164   3.237   4.925   7.010  0.4524 -1.3068 -0.3874
23196SOL     OW70165   1.223   4.861   3.289 -0.8871 -0.3095 -0.3000
23196SOL    HW170166   1.188   4.947   3.265  0.7769  0.7450  0.8594
23196SOL    HW270167   1.274   4.877   3.368  0.5954 -2.1070 -0.8266
23197SOL     OW70168   6.727   0.009   2.064  0.2428  0.1936 -0.2344
23197SOL    HW170169   6.692   0.091   2.028 -0.6779  0.6504  1.5551
23197SOL    HW270170   6.689   0.004   2.152  2.7896 -0.5486  0.9246
23198SOL     OW70171   6.804   5.177   3.923 -0.2662 -0.1971 -0.1036
23198SOL    HW170172   6.868   5.126   3.972 -0.2329 -0.3177 -0.2683
23198SOL    HW270173   6.720   5.155   3.962 -0.3278 -0.9031 -0.6041
23199SOL     OW70174   7.492   8.700   9.855 -0.3884  0.0234  0.2502
23199SOL    HW170175   7.426   8.654   9.803 -0.2506 -0.0652  0.1525
23199SOL    HW270176   7.530   8.764   9.796 -0.7614  0.4456  0.4616
23200SOL     OW70177   0.083   1.807   5.785 -0.3393 -0.2282 -0.0067
23200SOL    HW170178   0.023   1.735   5.803 -0.9335 -0.3285 -2.1105
23200SOL    HW270179   0.086   1.857   5.867 -2.4246 -0.8435  0.5101
23201SOL     OW70180   6.222   8.182   1.277  0.1162  0.0806  0.2086
23201SOL    HW170181   6.200   8.186   1.184 -1.0328 -1.4353  0.3889
23201SOL    HW270182   6.248   8.091   1.292  0.5133  0.3602  1.3447
23202SOL     OW70183   3.483   3.273   9.628 -0.5762 -0.4687 -0.3539
23202SOL    HW170184   3.461   3.180   9.632 -0.2654 -0.5153  0.3000
23202SOL    HW270185   3.411   3.312   9.578 -0.7484 -1.0442 -0.5667
23203SOL     OW70186   9.102   6.354   9.600 -0.4996 -0.2411 -0.9911
23203SOL    HW170187   9.109   6.424   9.535 -1.0624 -1.5347 -2.5070
23203SOL    HW270188   9.069   6.398   9.678 -0.0486  1.3251 -1.6330
23204SOL     OW70189   7.517   5.225   9.552 -0.3846 -0.1687  0.0741
23204SOL    HW170190   7.423   5.227   9.565 -0.3237 -0.8238  0.6535
23204SOL    HW270191   7.536   5.303   9.499 -0.9253  1.4507  2.1325
23205SOL     OW70192   9.390   2.443   8.155  0.2101  0.2371 -0.1013
23205SOL    HW170193   9.333   2.464   8.081  1.0421 -0.2688 -0.9082
23205SOL    HW270194   9.440   2.367   8.126  1.3192  0.6864  0.5620
23206SOL     OW70195   5.177   6.410   7.178 -0.2659  0.0305 -0.0643
23206SOL    HW170196   5.226   6.347   7.231  0.2471  0.2006 -0.3281
23206SOL    HW270197   5.242   6.476   7.153 -0.5375  0.0521 -0.7504
23207SOL     OW70198   3.410   6.484   3.887  0.1648  0.1024  0.0497
23207SOL    HW170199   3.351   6.559   3.884  0.9118  0.7456  1.0244
23207SOL    HW270200   3.400   6.443   3.801 -0.2985  1.2835 -0.4868
23208SOL     OW70201   9.908   0.267   1.879  0.5451  0.4080 -0.2575
23208SOL    HW170202   9.824   0.286   1.922 -0.4416  0.1057 -1.9741
23208SOL    HW270203   9.928   0.177   1.904  1.1345  0.9434  1.3336
23209SOL     OW70204   1.681   0.187   4.954  0.0756 -0.0432 -0.1769
23209SOL    HW170205   1.616   0.190   5.024 -0.0737 -0.4772 -0.2913
23209SOL    HW270206   1.632   0.155   4.878  0.4190 -0.3515 -0.2693
23210SOL     OW70207   1.846   3.598   0.241 -0.3812 -0.0410 -0.6840
23210SOL    HW170208   1.869   3.556   0.159  1.4411 -0.1294 -0.1802
23210SOL    HW270209   1.784   3.538   0.283  0.0527 -0.8701 -1.2016
23211SOL     OW70210   7.589   3.794   8.793 -0.3095 -0.0817  0.6767
23211SOL    HW170211   7.671   3.759   8.827  0.0667  0.3899  0.2598
23211SOL    HW270212   7.527   3.783   8.865  0.7202  1.9059  1.9638
23212SOL     OW70213   0.795   9.645   4.488  0.0777  0.0920 -0.2938
23212SOL    HW170214   0.780   9.593   4.567  1.1224  0.4379  0.1416
23212SOL    HW270215   0.832   9.583   4.425  1.1679  0.2594  0.1697
23213SOL     OW70216   6.230   4.510   7.165 -0.1707 -0.0286  0.1919
23213SOL    HW170217   6.159   4.488   7.105  0.7846  0.6956 -1.2678
23213SOL    HW270218   6.204   4.595   7.201 -0.3981 -0.1071  0.2152
23214SOL     OW70219   4.825   4.672   6.851  0.1489 -0.1522 -0.1363
23214SOL    HW170220   4.852   4.589   6.810  0.2416 -1.3195  2.1230
23214SOL    HW270221   4.729   4.672   6.843  0.2774  0.8509 -2.4307
23215SOL     OW70222   7.648   5.332   8.898  0.2084  0.1729  0.7324
23215SOL    HW170223   7.613   5.382   8.823  0.5360  1.3774  1.3499
23215SOL    HW270224   7.571   5.289   8.936  0.1521 -1.0770 -0.7358
23216SOL     OW70225   4.364   4.044   2.281 -0.7165  0.4944  0.3764
23216SOL    HW170226   4.436   4.091   2.239 -0.0101  1.0365  2.0845
23216SOL    HW270227   4.292   4.107   2.284 -1.7410 -0.4224 -2.3909
23217SOL     OW70228   6.353   9.030   8.683  0.1112  0.0071  0.0688
23217SOL    HW170229   6.278   9.028   8.624 -0.0929  2.6244  0.1453
23217SOL    HW270230   6.318   9.063   8.766  0.7318 -2.0035  1.2209
23218SOL     OW70231   4.566   4.157   1.438 -0.0232  0.2020 -0.0909
23218SOL    HW170232   4.486   4.106   1.444  0.9847 -1.6574 -1.3727
23218SOL    HW270233   4.633   4.101   1.476  0.8075  1.4238  0.3143
23219SOL     OW70234   0.452   6.355   1.183  0.3146  0.2646 -0.2342
23219SOL    HW170235   0.394   6.401   1.243 -0.0727 -0.5685  0.0354
23219SOL    HW270236   0.408   6.360   1.098 -0.1471 -0.3467 -0.0344
23220SOL     OW70237   9.634   9.638   8.123 -0.2506  0.4743 -0.4201
23220SOL    HW170238   9.613   9.556   8.078  0.8173  1.8115 -3.6096
23220SOL    HW270239   9.718   9.620   8.166 -0.1769 -0.2012 -0.8222
23221SOL     OW70240   8.455   4.035   5.192 -0.1489 -0.3544 -0.3548
23221SOL    HW170241   8.478   4.067   5.105 -1.8290 -0.7383 -0.9761
23221SOL    HW270242   8.450   3.940   5.182  2.2675 -0.6677  0.8455
23222SOL     OW70243   4.844   2.949   8.765 -0.1637 -0.3000 -0.3040
23222SOL    HW170244   4.883   2.869   8.729  0.4419  0.5714 -1.7059
23222SOL    HW270245   4.773   2.970   8.704 -0.7610 -0.1322  0.4403
23223SOL     OW70246   4.218   6.724   9.014  0.0847 -0.2340  0.0222
23223SOL    HW170247   4.300   6.755   9.054  0.5879 -1.0469 -0.3456
23223SOL    HW270248   4.221   6.757   8.924  0.7301 -1.4717 -0.4415
23224SOL     OW70249   0.133   7.697   7.940 -0.4148  0.1270  0.4268
23224SOL    HW170250   0.220   7.718   7.975 -0.9106 -0.0948  1.8531
23224SOL    HW270251   0.098   7.781   7.911  0.0942  0.2810  0.2353
23225SOL     OW70252   7.894   4.734   4.901 -0.5473  0.3129  0.1401
23225SOL    HW170253   7.878   4.821   4.864 -0.3129  0.7128  0.9787
23225SOL    HW270254   7.967   4.700   4.850 -0.5854  0.6373 -0.1375
23226SOL     OW70255   8.815   7.011   2.349 -0.2321  0.2981  0.8797
23226SOL    HW170256   8.886   7.072   2.330  0.4734 -0.9026 -0.5406
23226SOL    HW270257   8.750   7.028   2.280  0.8105 -1.7485 -0.7436
23227SOL     OW70258   6.633   1.862   2.602 -0.1209 -0.1518 -0.2486
23227SOL    HW170259   6.629   1.913   2.521  0.3406 -0.1284 -0.2599
23227SOL    HW270260   6.655   1.926   2.670 -0.0189 -0.2543 -0.1843
23228SOL     OW70261   4.711   8.938   9.238  0.4388 -0.0204 -0.1204
23228SOL    HW170262   4.791   8.907   9.279  0.0535  1.8594  2.2443
23228SOL    HW270263   4.726   9.032   9.225 -0.3035 -0.1491 -2.4266
23229SOL     OW70264   7.748   7.439   5.428 -0.2565 -0.1540  0.2019
23229SOL    HW170265   7.714   7.360   5.386 -0.2215  0.0296 -0.1749
23229SOL    HW270266   7.776   7.409   5.515 -0.4218 -0.5158  0.1350
23230SOL     OW70267   6.072   5.059   5.690 -0.5446 -0.4031 -0.3399
23230SOL    HW170268   6.091   5.131   5.630  1.1267  0.0484  0.6552
23230SOL    HW270269   6.119   4.984   5.653 -0.6376 -0.4661 -0.3289
23231SOL     OW70270   4.786   6.284   9.016  0.3937 -0.2714  0.1815
23231SOL    HW170271   4.839   6.324   9.085  1.3916 -0.7761 -0.2647
23231SOL    HW270272   4.706   6.335   9.014 -0.2046 -1.0297  2.5714
23232SOL     OW70273   0.099   8.874   9.373 -0.2015  0.1974 -0.1088
23232SOL    HW170274   0.032   8.858   9.307  0.7683 -3.0805 -0.5128
23232SOL    HW270275   0.052   8.877   9.456 -0.9812 -0.9040 -0.4921
23233SOL     OW70276   8.719   2.864   1.468 -0.0096 -0.3287 -0.1859
23233SOL    HW170277   8.732   2.838   1.377 -0.6864 -0.1219 -0.3448
23233SOL    HW270278   8.683   2.953   1.463  1.0746  0.1625  0.3176
23234SOL     OW70279   8.106   7.873   1.998 -0.5564  0.1601 -0.3914
23234SOL    HW170280   8.088   7.811   2.069 -1.4280 -0.0507 -0.7865
23234SOL    HW270281   8.065   7.834   1.921 -0.4188  0.8378 -0.8166
23235SOL     OW70282   5.387   9.950   6.697  0.0219  0.5355  0.0718
23235SOL    HW170283   5.481   9.955   6.718  0.4439  1.7764 -1.8143
23235SOL    HW270284   5.354   9.879   6.752  2.5483 -1.4894 -0.7764
23236SOL     OW70285   1.878   1.743   8.147  0.2082 -0.3284 -0.1331
23236SOL    HW170286   1.918   1.731   8.061 -0.3064 -1.0325 -0.2844
23236SOL    HW270287   1.876   1.838   8.160  0.6162 -0.2340 -0.7364
23237SOL     OW70288   8.227   0.115   6.588  0.1872 -0.0481  0.8076
23237SOL    HW170289   8.203   0.085   6.676  0.2886 -1.8440  0.2725
23237SOL    HW270290   8.251   0.034   6.541  0.3985  0.8971 -0.7852
23238SOL     OW70291   8.781   5.502   9.047  0.7339 -0.3061 -0.4935
23238SOL    HW170292   8.872   5.512   9.074  0.6544  0.2125 -0.4081
23238SOL    HW270293   8.786   5.459   8.961  1.1817  1.7583 -1.5799
23239SOL     OW70294   5.016   6.446   8.662  1.0674 -0.1030 -0.1477
23239SOL    HW170295   5.052   6.513   8.720 -0.2690 -0.5672  1.2782
23239SOL    HW270296   4.921   6.456   8.670  0.8541 -1.3479 -0.9030
23240SOL     OW70297   2.405   3.328   1.306 -0.1086 -0.3338 -0.2003
23240SOL    HW170298   2.370   3.418   1.302 -0.2045 -0.3136  0.7306
23240SOL    HW270299   2.329   3.275   1.330  0.1297 -0.5323  0.1211
23241SOL     OW70300   7.055   1.910   7.476 -0.1700 -0.2830  0.3336
23241SOL    HW170301   7.127   1.973   7.473  1.2056 -1.8206 -0.5127
23241SOL    HW270302   7.090   1.835   7.523 -0.8542 -1.4508 -0.9267
23242SOL     OW70303   6.418   9.365   0.691 -0.2403 -0.3412 -0.6895
23242SOL    HW170304   6.389   9.393   0.604  1.1565 -1.8390 -1.7034
23242SOL    HW270305   6.337   9.336   0.734 -0.8891 -0.1263 -1.7121
23243SOL     OW70306   3.400   4.113   7.560 -0.2996 -0.2675 -0.0055
23243SOL    HW170307   3.355   4.195   7.540  2.7475  0.9612 -2.6418
23243SOL    HW270308   3.367   4.089   7.647 -1.6729  3.4960  0.7259
23244SOL     OW70309   8.513   0.700   2.792 -0.4111 -0.7247  0.5382
23244SOL    HW170310   8.542   0.647   2.866  1.0039 -0.4263  0.2435
23244SOL    HW270311   8.585   0.762   2.778 -1.5276  0.5268  0.1624
23245SOL     OW70312   8.905   3.033   7.522 -0.0479  0.5345 -0.0298
23245SOL    HW170313   8.966   3.104   7.542  0.6959  0.0308 -0.4559
23245SOL    HW270314   8.922   3.013   7.430  0.1683 -0.5801  0.2406
23246SOL     OW70315   8.684   6.735   6.234 -0.1013  0.6757  0.3710
23246SOL    HW170316   8.746   6.720   6.306  1.6355 -1.3419 -1.4238
23246SOL    HW270317   8.600   6.708   6.270  0.9114 -1.4887  1.3137
23247SOL     OW70318   6.207   9.983   2.180  0.0801  0.5960  0.4506
23247SOL    HW170319   6.134  10.001   2.120  0.8892  0.5682 -0.5655
23247SOL    HW270320   6.255   9.911   2.138 -0.2869 -0.5963  1.9830
23248SOL     OW70321   2.235   2.267   3.523 -0.6973 -0.1239  0.0383
23248SOL    HW170322   2.154   2.218   3.510 -0.1105 -0.7001 -1.7157
23248SOL    HW270323   2.305   2.203   3.505  0.1594  0.4851  1.0426
23249SOL     OW70324   8.415   0.041   0.916 -0.0225  0.3260  0.4738
23249SOL    HW170325   8.454  -0.015   0.849  0.2986  0.5777  0.4453
23249SOL    HW270326   8.416  -0.011   0.996  0.0489  0.2053  0.3932
23250SOL     OW70327   3.169   9.262   1.404  0.2758 -0.1319  0.4427
23250SOL    HW170328   3.130   9.304   1.481  0.7995  0.9335  0.1543
23250SOL    HW270329   3.234   9.326   1.373  1.6657 -1.5117  0.4297
23251SOL     OW70330   8.262   5.260   5.373 -0.3214  0.4834  0.2969
23251SOL    HW170331   8.293   5.323   5.307 -0.6599 -0.5785 -0.9080
23251SOL    HW270332   8.175   5.235   5.343  0.0520 -1.0189  0.4180
23252SOL     OW70333   1.932   9.671   5.079  0.3555  0.4679  0.3486
23252SOL    HW170334   1.974   9.755   5.063  0.9067  0.1177 -0.1160
23252SOL    HW270335   1.937   9.626   4.994 -1.9570  0.8291 -0.0559
23253SOL     OW70336   3.914   2.050   1.013  0.2739  0.1596 -0.0182
23253SOL    HW170337   3.956   2.071   1.097 -0.4859 -2.1960  1.0369
23253SOL    HW270338   3.821   2.052   1.032  0.0890 -0.3847 -0.8340
23254SOL     OW70339   9.920   5.518   9.460  0.0447 -0.5688  0.1748
23254SOL    HW170340   9.897   5.483   9.374 -1.5682 -1.8219  1.0655
23254SOL    HW270341   9.923   5.613   9.447 -1.0717 -0.6752 -1.0829
23255SOL     OW70342   7.116   2.974   9.646  0.2179  0.2290 -0.6747
23255SOL    HW170343   7.120   2.914   9.721 -1.3594  2.2935  1.2267
23255SOL    HW270344   7.205   3.007   9.637  0.0853  1.5372  1.8328
23256SOL     OW70345   9.445   2.350   3.297  0.5788 -0.0824 -0.0476
23256SOL    HW170346   9.505   2.296   3.349  1.0881  0.8219  0.3367
23256SOL    HW270347   9.456   2.318   3.208  3.0208  1.1990 -0.2893
23257SOL     OW70348   7.654   0.920   3.145  0.9156  0.3821 -0.0757
23257SOL    HW170349   7.570   0.948   3.108  0.2372  0.1946  1.2403
23257SOL    HW270350   7.718   0.937   3.076 -0.4585 -1.3468 -1.9022
23258SOL     OW70351   4.793   2.152   4.042  0.6146 -0.0266 -0.3109
23258SOL    HW170352   4.818   2.233   3.998 -0.1962 -0.0905 -0.9135
23258SOL    HW270353   4.842   2.153   4.124  0.9297  0.8711 -0.5032
23259SOL     OW70354   7.290   1.440   9.505  0.1870  0.5746  0.3301
23259SOL    HW170355   7.273   1.527   9.469  2.1428  0.9944  0.3008
23259SOL    HW270356   7.381   1.422   9.482 -0.2329 -1.6040  0.1261
23260SOL     OW70357   3.112   5.930   5.629 -0.2289 -0.4006 -0.5003
23260SOL    HW170358   3.101   5.874   5.553  0.1318 -0.8567 -0.2227
23260SOL    HW270359   3.056   5.891   5.696  0.9330 -1.1619  0.0741
23261SOL     OW70360   8.342   0.164   6.029  0.1375 -0.4348 -0.2691
23261SOL    HW170361   8.360   0.257   6.017  1.7197 -0.7022 -0.1649
23261SOL    HW270362   8.351   0.151   6.124 -0.1639 -0.6820 -0.2738
23262SOL     OW70363   6.242   7.627   4.214 -0.0664 -0.2610  0.0238
23262SOL    HW170364   6.181   7.592   4.279 -0.3602 -0.6755 -0.4685
23262SOL    HW270365   6.255   7.555   4.151 -1.6057  0.8496 -1.6663
23263SOL     OW70366   4.672   8.919   7.030 -0.6604  0.2724  0.4830
23263SOL    HW170367   4.628   8.978   6.969 -1.5894 -0.9096 -0.0293
23263SOL    HW270368   4.765   8.935   7.016 -0.8740  0.7652 -0.4822
23264SOL     OW70369   1.586   4.382   0.263  0.3632  0.4750  0.4038
23264SOL    HW170370   1.531   4.386   0.185  0.7844 -2.6143 -0.1714
23264SOL    HW270371   1.667   4.425   0.238 -0.1575  1.0912 -0.2515
23265SOL     OW70372   6.409   3.632   8.729  0.0386  0.0351  0.1512
23265SOL    HW170373   6.442   3.624   8.639  0.3533 -0.4593  0.3078
23265SOL    HW270374   6.460   3.703   8.767 -0.5612  0.6997 -0.2644
23266SOL     OW70375   7.984   9.873   2.935 -0.0580  0.3150 -0.0946
23266SOL    HW170376   7.966   9.955   2.981  0.1356 -0.3984  1.2869
23266SOL    HW270377   7.965   9.805   2.998 -1.2413 -0.7842 -1.5639
23267SOL     OW70378   5.302   9.140   2.266 -0.0969 -0.7498  0.4991
23267SOL    HW170379   5.267   9.089   2.339 -1.7396 -0.5287 -0.0977
23267SOL    HW270380   5.257   9.224   2.272 -0.4445 -0.8193 -0.9123
23268SOL     OW70381   9.169   4.630   5.484  0.4391 -0.3249 -0.0856
23268SOL    HW170382   9.203   4.550   5.444  0.9964  0.2941 -0.8840
23268SOL    HW270383   9.243   4.665   5.533  0.7872  0.6703 -1.2708
23269SOL     OW70384   8.776   0.494   5.514  0.1125  0.0151 -0.1531
23269SOL    HW170385   8.857   0.506   5.465  0.0464 -0.0261 -0.2706
23269SOL    HW270386   8.803   0.504   5.606  0.6283 -1.9920 -0.0391
23270SOL     OW70387   8.427   1.725   7.534 -0.0500 -0.0075 -0.1964
23270SOL    HW170388   8.345   1.689   7.501 -0.2783 -0.9465  1.2622
23270SOL    HW270389   8.400   1.801   7.586  0.0690  0.0543 -0.2254
23271SOL     OW70390   5.124   0.739   2.465 -0.4634 -0.4774 -0.0421
23271SOL    HW170391   5.037   0.727   2.427 -0.4495 -0.4919 -0.0686
23271SOL    HW270392   5.167   0.804   2.410 -1.1225  0.9496  1.0572
23272SOL     OW70393   9.883   4.649   8.288 -0.6149 -0.7233  0.8546
23272SOL    HW170394   9.875   4.566   8.241 -0.5555  1.2437 -3.0651
23272SOL    HW270395   9.976   4.656   8.309 -0.3321 -0.9593 -0.2673
23273SOL     OW70396   0.123   9.794   3.158 -0.1019  0.3881 -0.6223
23273SOL    HW170397   0.036   9.781   3.121 -0.9568  1.3286  0.9604
23273SOL    HW270398   0.107   9.829   3.246  1.8872  1.4901 -0.6409
23274SOL     OW70399   1.664   5.173   3.798  0.5980  0.3969  0.2456
23274SOL    HW170400   1.715   5.244   3.838  0.5575  0.1934  0.6700
23274SOL    HW270401   1.642   5.116   3.872  2.6221 -1.3258 -0.4037
23275SOL     OW70402   3.366   7.684   4.065  0.5232  0.4042 -0.3260
23275SOL    HW170403   3.361   7.675   4.161 -1.8764 -1.4617 -0.5210
23275SOL    HW270404   3.415   7.765   4.051  0.3329  1.1190  2.4898
23276SOL     OW70405   2.890   3.215   4.847  0.0738 -1.1868  0.2195
23276SOL    HW170406   2.864   3.306   4.859 -0.8804 -1.7339  3.2710
23276SOL    HW270407   2.811   3.171   4.816  0.2261 -1.1769 -0.1904
23277SOL     OW70408   9.458   5.213   6.305 -0.0942 -0.0214  0.3978
23277SOL    HW170409   9.367   5.186   6.304 -0.1041 -0.1281  1.7900
23277SOL    HW270410   9.507   5.131   6.304 -0.0198  0.0268  0.0048
23278SOL     OW70411   8.987   4.207   6.534 -0.4140  0.1263  0.5127
23278SOL    HW170412   9.018   4.283   6.583  0.4085  1.7196 -2.2131
23278SOL    HW270413   9.067   4.164   6.503 -0.8958 -0.8344  0.5529
23279SOL     OW70414   9.852   8.200   8.127  0.0049 -0.0409 -0.7206
23279SOL    HW170415   9.786   8.213   8.059  0.6043 -0.8865 -1.5009
23279SOL    HW270416   9.831   8.116   8.166 -0.5852  0.6345  0.4567
23280SOL     OW70417   6.068   4.972   2.632  0.4462  0.1258  1.0458
23280SOL    HW170418   6.064   4.878   2.651 -3.4246 -0.4421 -1.4776
23280SOL    HW270419   6.098   4.977   2.542  0.6696  1.3305  1.1699
23281SOL     OW70420   7.765   4.010   3.600 -0.6242  0.4737 -0.2813
23281SOL    HW170421   7.791   4.102   3.600  1.1540  0.0128  0.8142
23281SOL    HW270422   7.794   3.976   3.516 -1.8712  1.0328 -0.9653
23282SOL     OW70423   6.774   7.439   0.904  0.0276  0.0222  0.8878
23282SOL    HW170424   6.728   7.388   0.970  1.0661 -1.2293  0.6789
23282SOL    HW270425   6.705   7.491   0.862 -0.9972 -0.8638  1.4210
23283SOL     OW70426   9.689   4.522   2.189 -0.3210 -0.7987  0.0218
23283SOL    HW170427   9.671   4.449   2.248 -0.0494 -1.7338 -1.0181
23283SOL    HW270428   9.626   4.513   2.118  1.0707 -1.2936 -1.1989
23284SOL     OW70429   8.650   4.728   7.922  0.3936  0.6467  0.1120
23284SOL    HW170430   8.705   4.796   7.885  1.5788  0.9075  2.2211
23284SOL    HW270431   8.705   4.649   7.922 -0.8236 -0.2853 -1.9221
23285SOL     OW70432   6.250   4.665   0.960  0.0260  0.6172 -0.1213
23285SOL    HW170433   6.335   4.635   0.991  0.9431  3.2472  0.1167
23285SOL    HW270434   6.189   4.638   1.028  0.7472 -0.6597  0.0519
23286SOL     OW70435   4.588   9.629   1.622  0.5759  0.0626  0.3279
23286SOL    HW170436   4.553   9.555   1.572  1.4811  0.0330 -0.2938
23286SOL    HW270437   4.679   9.604   1.640  0.1086 -0.2520  2.6301
23287SOL     OW70438   8.865   8.192   3.396 -0.0666  0.3321 -0.5954
23287SOL    HW170439   8.843   8.285   3.393  1.2333  0.8311  2.2203
23287SOL    HW270440   8.797   8.153   3.451  0.2086 -0.0995 -0.5551
23288SOL     OW70441   3.095   2.406   5.543  0.8006  0.1270 -0.2005
23288SOL    HW170442   3.016   2.398   5.597  1.2881 -1.2334  0.3555
23288SOL    HW270443   3.084   2.341   5.474  1.2071  0.2858 -0.4225
23289SOL     OW70444   0.585   4.815   4.806 -0.5665 -0.0501  0.2308
23289SOL    HW170445   0.560   4.891   4.859 -0.2993 -0.0498  0.3583
23289SOL    HW270446   0.680   4.820   4.801 -0.5957  0.0246 -0.3613
23290SOL     OW70447   3.654   9.036   8.034 -0.2330  0.2122 -0.1386
23290SOL    HW170448   3.634   9.007   8.123 -1.4885  0.4260 -0.3314
23290SOL    HW270449   3.710   8.967   7.998  0.4216  0.2066  0.8578
23291SOL     OW70450   7.171   4.746   0.435 -0.2497  0.0273  0.0731
23291SOL    HW170451   7.151   4.674   0.494 -0.5024 -0.0232 -0.0723
23291SOL    HW270452   7.162   4.825   0.489 -2.2162  0.1128 -0.3097
23292SOL     OW70453   7.037   8.175   3.313  0.1277 -0.1182  0.2530
23292SOL    HW170454   7.025   8.145   3.223  1.9894  1.4373 -0.5955
23292SOL    HW270455   6.984   8.254   3.319  0.1719 -0.1039  0.4565
23293SOL     OW70456   8.377   1.553   9.485 -0.1440  0.3423  0.4211
23293SOL    HW170457   8.324   1.510   9.418  0.5013  2.0490 -1.2715
23293SOL    HW270458   8.460   1.571   9.442  0.9342 -0.0557  2.2582
23294SOL     OW70459   2.835   7.647   9.394 -0.7030 -0.7472  0.2949
23294SOL    HW170460   2.862   7.697   9.316  2.3433 -2.8955 -0.2189
23294SOL    HW270461   2.815   7.560   9.360 -3.3058 -0.7055  1.4970
23295SOL     OW70462   6.334   6.740   2.974 -0.2315  0.8095 -0.5719
23295SOL    HW170463   6.259   6.757   2.916 -0.4187  1.6178 -0.1116
23295SOL    HW270464   6.406   6.789   2.934  0.1500 -0.2228 -1.1896
23296SOL     OW70465   1.395   4.871   5.496 -0.1527 -0.7168 -1.1379
23296SOL    HW170466   1.372   4.924   5.572 -0.5991 -1.2092 -0.9154
23296SOL    HW270467   1.313   4.827   5.473  0.4278 -2.0979 -0.6741
23297SOL     OW70468   4.028   5.725   3.818 -0.4185 -0.6200 -0.1756
23297SOL    HW170469   3.958   5.678   3.864 -0.1752 -0.0715  0.7745
23297SOL    HW270470   4.103   5.718   3.877  0.0801 -0.4462 -0.7875
23298SOL     OW70471   3.885   9.892   5.220 -0.0945  0.5268  0.2109
23298SOL    HW170472   3.948   9.820   5.218 -1.5489 -0.8141  0.9878
23298SOL    HW270473   3.820   9.869   5.154  1.1056  2.8313 -1.9380
23299SOL     OW70474   6.483   2.285   4.068  0.1949 -0.0868  0.1790
23299SOL    HW170475   6.519   2.199   4.044  1.2732  0.7662 -1.4281
23299SOL    HW270476   6.391   2.280   4.044  0.0375 -1.0569  0.8985
23300SOL     OW70477   3.679   7.532   2.894  0.0270  0.0395  0.1943
23300SOL    HW170478   3.603   7.588   2.905  0.1628 -0.2939  3.9324
23300SOL    HW270479   3.745   7.569   2.953  0.7382 -2.9092  1.4189
23301SOL     OW70480   9.453   3.875   9.785  0.0834 -0.2232  0.8466
23301SOL    HW170481   9.535   3.840   9.749  0.1215 -1.0411  1.6850
23301SOL    HW270482   9.455   3.968   9.763  1.0959 -0.2903  0.5930
23302SOL     OW70483   9.427   8.438   6.073 -0.2153 -0.3550 -0.4613
23302SOL    HW170484   9.477   8.500   6.126  1.2505  0.2479 -2.4486
23302SOL    HW270485   9.336   8.461   6.089  0.2543  1.2239  0.1204
23303SOL     OW70486   0.291   4.586   9.027  0.3859 -0.0963  0.1907
23303SOL    HW170487   0.234   4.542   9.090 -1.8923  3.0090  0.5455
23303SOL    HW270488   0.372   4.604   9.075 -0.2830 -0.1519  1.3656
23304SOL     OW70489   8.546   4.121   6.815  0.2652  0.3070  0.3978
23304SOL    HW170490   8.498   4.188   6.766 -0.1408  0.2302  0.6845
23304SOL    HW270491   8.558   4.158   6.902  0.4529  0.1987  0.4189
23305SOL     OW70492   8.188   4.719   9.458  0.1456 -0.2351  0.5175
23305SOL    HW170493   8.223   4.804   9.431  1.7371 -0.4950  1.6224
23305SOL    HW270494   8.266   4.667   9.480 -0.9037 -1.1863  2.1723
23306SOL     OW70495   1.599   8.469   9.166  0.1963  0.0352 -0.0336
23306SOL    HW170496   1.616   8.530   9.095 -0.0981  0.4078  0.2022
23306SOL    HW270497   1.615   8.521   9.246 -2.2488  0.5535  0.2221
23307SOL     OW70498   5.735   0.498   3.655  0.2735  0.1976  0.1800
23307SOL    HW170499   5.763   0.483   3.745 -0.7363  0.9065  0.6220
23307SOL    HW270500   5.812   0.534   3.611  0.2585  1.5832  1.2311
23308SOL     OW70501   2.532   8.301   7.556 -1.1199  0.2787  0.4233
23308SOL    HW170502   2.521   8.349   7.474  0.7466  0.3540  0.1696
23308SOL    HW270503   2.520   8.367   7.624 -0.5982  0.6840  0.1356
23309SOL     OW70504   4.421   5.570   8.202  0.1788 -0.5987  0.3950
23309SOL    HW170505   4.398   5.478   8.190 -0.9133 -0.2116 -0.6402
23309SOL    HW270506   4.418   5.583   8.297 -0.5056 -1.4221  0.4990
23310SOL     OW70507   4.231   6.814   5.843  0.5798  0.1795  0.4927
23310SOL    HW170508   4.178   6.846   5.770  0.7189 -1.5619 -0.4247
23310SOL    HW270509   4.167   6.779   5.906  0.5607 -2.8181 -1.0479
23311SOL     OW70510   0.945   6.331   1.187  0.1580  0.2955 -0.2024
23311SOL    HW170511   0.934   6.238   1.171 -2.1599  0.4007  0.3792
23311SOL    HW270512   1.037   6.349   1.165  0.6739 -2.1006 -0.2545
23312SOL     OW70513   7.722   3.164   0.538  0.3621  0.0067 -0.2343
23312SOL    HW170514   7.758   3.109   0.468  1.2796 -0.1479  0.3401
23312SOL    HW270515   7.762   3.130   0.618 -0.5775  0.2631  0.3644
23313SOL     OW70516   8.221   8.834   5.255  0.1427 -0.0444  0.0224
23313SOL    HW170517   8.216   8.823   5.160 -0.1279 -0.6770  0.1053
23313SOL    HW270518   8.212   8.928   5.269 -1.5733 -0.1046 -0.4727
23314SOL     OW70519   4.563   0.561   2.085  0.7569  0.6079 -0.6399
23314SOL    HW170520   4.507   0.638   2.073  0.8409  0.5960 -1.1249
23314SOL    HW270521   4.505   0.496   2.125  1.2684  1.6651  2.0205
23315SOL     OW70522   6.861   7.864   1.909 -0.3802 -0.2058  0.2134
23315SOL    HW170523   6.836   7.780   1.948 -0.9792  0.4326  1.2421
23315SOL    HW270524   6.786   7.888   1.854 -0.3668 -0.1799  0.2064
23316SOL     OW70525   4.665   4.533   2.051 -0.1791 -0.0184 -0.3600
23316SOL    HW170526   4.730   4.473   2.013 -0.5026 -1.1585  0.8279
23316SOL    HW270527   4.654   4.601   1.985  0.8906 -0.7737 -1.3540
23317SOL     OW70528   4.598   0.273   7.839  0.7739  0.3634  0.1490
23317SOL    HW170529   4.528   0.221   7.801 -0.5939  2.0719  0.1989
23317SOL    HW270530   4.672   0.212   7.847 -0.1178 -1.0394 -1.5570
23318SOL     OW70531   1.120   2.762   7.144 -0.0041 -0.6161  0.5843
23318SOL    HW170532   1.127   2.681   7.094  1.2601 -0.0284 -0.2719
23318SOL    HW270533   1.075   2.823   7.085 -1.6772 -0.8877  1.5230
23319SOL     OW70534   3.157   4.295   9.792  0.0298 -0.2533  0.2258
23319SOL    HW170535   3.172   4.387   9.769 -0.2220 -0.1153  0.6105
23319SOL    HW270536   3.100   4.262   9.723  0.7145 -0.3244 -0.3221
23320SOL     OW70537   8.586   7.027   9.927 -0.9167  0.1115  0.1107
23320SOL    HW170538   8.556   6.984   9.847 -0.1405  0.9465 -0.6496
23320SOL    HW270539   8.567   6.964   9.997  1.4961 -2.1371 -1.0968
23321SOL     OW70540   5.187   9.127   4.842 -0.5895 -0.2041  0.2406
23321SOL    HW170541   5.244   9.123   4.919  1.5702 -1.4651 -1.3189
23321SOL    HW270542   5.136   9.046   4.846 -0.8441 -0.0279  0.6021
23322SOL     OW70543   2.486   2.600   8.775  0.4414  0.0449 -0.0476
23322SOL    HW170544   2.433   2.675   8.802 -0.9799 -1.4748  1.6527
23322SOL    HW270545   2.553   2.592   8.843  0.5264 -0.2717 -0.1657
23323SOL     OW70546   3.715   7.292   3.721 -0.2428  0.1779  0.0558
23323SOL    HW170547   3.712   7.197   3.710  0.5012  0.0661  0.7595
23323SOL    HW270548   3.677   7.326   3.640  0.2268 -0.7038 -0.5589
23324SOL     OW70549   3.370   6.317   8.552  0.3316  0.5889  0.4981
23324SOL    HW170550   3.418   6.314   8.470  0.3824 -0.5488  0.5512
23324SOL    HW270551   3.278   6.306   8.527  0.4635 -1.0659  0.6746
23325SOL     OW70552   1.207   0.964   9.026  0.3604 -0.3896  0.1098
23325SOL    HW170553   1.217   1.018   9.105 -1.1968  0.2607 -0.0882
23325SOL    HW270554   1.250   0.882   9.047  2.3735  0.7225  0.6177
23326SOL     OW70555   8.425   2.557   3.213  0.6656  0.0615  0.0143
23326SOL    HW170556   8.426   2.581   3.120 -0.0978  0.1698  0.0280
23326SOL    HW270557   8.492   2.488   3.221  0.6423 -0.0430 -0.6374
23327SOL     OW70558   3.174   2.211   2.651  0.0137  0.3441 -0.8303
23327SOL    HW170559   3.246   2.148   2.650  0.4594  0.7698  1.0768
23327SOL    HW270560   3.187   2.264   2.572  2.2170  0.8558 -0.1852
23328SOL     OW70561   7.065   8.768   1.057  0.5258 -0.0503  0.6256
23328SOL    HW170562   7.015   8.848   1.073  1.1559  0.3715  0.5283
23328SOL    HW270563   7.009   8.715   1.000 -0.7903 -0.5949  2.3494
23329SOL     OW70564   2.145   5.689   3.348 -0.1137  0.5588  0.0123
23329SOL    HW170565   2.237   5.717   3.348  0.4615 -1.2289  0.3652
23329SOL    HW270566   2.099   5.760   3.394  1.0690  1.5025 -0.2049
23330SOL     OW70567   4.944   7.618   7.812  0.1607 -0.1719  0.8028
23330SOL    HW170568   4.874   7.683   7.800  1.3615  0.9260 -0.6412
23330SOL    HW270569   4.934   7.559   7.738  0.3746 -0.4035  0.9582
23331SOL     OW70570   5.860   5.908   2.628  0.9964 -0.1845 -0.1289
23331SOL    HW170571   5.829   5.819   2.608  0.4438 -0.4909  1.8841
23331SOL    HW270572   5.785   5.950   2.670  2.7103 -0.4759  3.5685
23332SOL     OW70573   2.543   6.592   4.523  0.1812  0.2624 -0.1928
23332SOL    HW170574   2.566   6.611   4.614  1.1775 -1.8507  0.0754
23332SOL    HW270575   2.454   6.558   4.527 -0.0863  0.9712 -0.1246
23333SOL     OW70576   6.914   6.670   0.761 -0.2376 -0.3904  0.9353
23333SOL    HW170577   6.874   6.750   0.794  0.9228  0.6357 -0.0218
23333SOL    HW270578   6.976   6.644   0.831  0.7486  0.6366  0.4773
23334SOL     OW70579   7.427   7.846   5.527 -0.6901 -0.1993  0.3968
23334SOL    HW170580   7.342   7.857   5.570 -0.7804 -1.7391  0.6539
23334SOL    HW270581   7.484   7.811   5.596  0.2434  1.0554  0.2991
23335SOL     OW70582   5.717   1.153   4.071 -0.2981 -0.0737 -0.4319
23335SOL    HW170583   5.707   1.245   4.044 -0.9003 -0.3721 -1.2796
23335SOL    HW270584   5.705   1.104   3.990 -0.7576 -0.9431  0.1581
23336SOL     OW70585   9.073   9.203   3.624  0.4977 -1.2672  0.4174
23336SOL    HW170586   9.161   9.228   3.654  0.4730 -0.3755 -0.2257
23336SOL    HW270587   9.037   9.153   3.698  1.5015 -1.5732  0.7315
23337SOL     OW70588   6.271   2.015   7.749  0.0171 -0.0098 -0.1633
23337SOL    HW170589   6.300   2.022   7.658 -1.3519 -0.3927 -0.6507
23337SOL    HW270590   6.176   2.023   7.745 -0.0483  0.2434  1.2742
23338SOL     OW70591   2.893   4.555   5.729  0.6762 -0.0840  0.5796
23338SOL    HW170592   2.874   4.467   5.761  1.3506 -0.4006  0.1540
23338SOL    HW270593   2.940   4.540   5.646  0.7930  0.6743  0.5024
23339SOL     OW70594   4.210   9.154   7.514  0.5781  0.2313 -0.5226
23339SOL    HW170595   4.290   9.171   7.465  1.2154  2.4860  1.1555
23339SOL    HW270596   4.235   9.090   7.580  0.2823 -1.0581 -1.6083
23340SOL     OW70597   0.411   7.444   2.169 -0.1373 -0.3342  0.7155
23340SOL    HW170598   0.367   7.443   2.084  0.5767  0.5850  0.3126
23340SOL    HW270599   0.479   7.377   2.162  1.0425  0.8876 -0.0939
23341SOL     OW70600   8.473   8.760   9.676 -0.2851 -0.4487  0.1253
23341SOL    HW170601   8.545   8.755   9.739  0.1390  1.0195 -0.2206
23341SOL    HW270602   8.454   8.668   9.656  0.5307 -0.9068  1.2887
23342SOL     OW70603   1.481   2.639   2.180  0.6839 -0.4139 -0.1406
23342SOL    HW170604   1.535   2.595   2.246  2.1051 -0.3837 -1.2383
23342SOL    HW270605   1.400   2.661   2.226  1.8168  0.0459  1.7468
23343SOL     OW70606   3.980  -0.009   1.634 -0.6946  0.2588 -0.3699
23343SOL    HW170607   3.938   0.035   1.560  1.1344  0.8118 -1.1249
23343SOL    HW270608   3.915  -0.006   1.704 -1.7205  1.5023 -1.3377
23344SOL     OW70609   9.731   9.060   3.699 -0.8132 -0.7571 -0.8903
23344SOL    HW170610   9.727   9.023   3.611 -2.3287  1.6774 -1.9431
23344SOL    HW270611   9.800   9.126   3.693 -0.8210 -0.6865 -0.2037
23345SOL     OW70612   4.011   0.587   4.462  0.7162  0.6127  0.2531
23345SOL    HW170613   3.975   0.530   4.394 -4.0773  2.0952  1.1726
23345SOL    HW270614   4.058   0.528   4.521 -0.1892 -1.6265 -1.1510
23346SOL     OW70615   4.900   6.040   9.151  0.4213  0.4432  0.0215
23346SOL    HW170616   4.852   6.099   9.093 -3.3949  0.6209  2.9368
23346SOL    HW270617   4.923   6.094   9.226  1.6590 -0.6291  0.4522
23347SOL     OW70618   4.783   0.716   9.652 -0.4459 -0.2686 -0.0264
23347SOL    HW170619   4.810   0.723   9.560 -0.0748  0.7836  0.1447
23347SOL    HW270620   4.732   0.796   9.668 -1.0566 -0.7570  0.5086
23348SOL     OW70621   0.151   3.574   2.498  0.3400  0.6682 -0.1521
23348SOL    HW170622   0.242   3.561   2.468  0.1759 -0.9973 -0.0294
23348SOL    HW270623   0.160   3.610   2.586  0.9203 -0.5946  0.3277
23349SOL     OW70624   6.206   4.952   7.607  0.5859 -0.2625  0.0621
23349SOL    HW170625   6.225   4.860   7.627  2.0011 -0.0900 -0.4177
23349SOL    HW270626   6.245   4.967   7.521 -0.6895  0.4835 -0.4149
23350SOL     OW70627   1.584   2.463   8.620  0.3962 -0.7314 -0.0017
23350SOL    HW170628   1.662   2.424   8.581  0.6708 -1.8731  1.5965
23350SOL    HW270629   1.546   2.516   8.550  2.8117  0.1888 -0.7068
23351SOL     OW70630   9.481   2.701   7.808  0.1162 -0.8463 -0.1087
23351SOL    HW170631   9.516   2.619   7.843  0.7550 -0.6268 -0.2156
23351SOL    HW270632   9.461   2.753   7.886 -1.6223 -1.6225  0.0044
23352SOL     OW70633   7.644   0.466   0.976 -0.1102  0.3515  0.0438
23352SOL    HW170634   7.569   0.479   0.918 -0.3497  1.5943  0.5991
23352SOL    HW270635   7.718   0.453   0.917 -0.7585 -0.9716 -0.5106
23353SOL     OW70636   5.000   7.465   8.423  0.2415  0.8326 -0.0906
23353SOL    HW170637   5.058   7.523   8.374 -0.3838  1.2602 -0.3449
23353SOL    HW270638   4.945   7.424   8.355  0.0089  0.7084  0.1698
23354SOL     OW70639   3.311   3.696   0.421  0.2602 -0.0867  0.5633
23354SOL    HW170640   3.230   3.651   0.397  0.8131 -0.4114 -0.7664
23354SOL    HW270641   3.297   3.786   0.392  1.0871 -0.5692 -1.4968
23355SOL     OW70642   5.379   0.745   0.104  0.2672  0.2784  0.3440
23355SOL    HW170643   5.352   0.787   0.023 -0.4330 -1.4026 -0.3416
23355SOL    HW270644   5.300   0.740   0.157  0.4244  0.1322  0.5708
23356SOL     OW70645   2.915   1.406   1.041  0.2393 -0.0638  0.3608
23356SOL    HW170646   2.972   1.382   0.968  0.4216  0.6743  0.2518
23356SOL    HW270647   2.917   1.329   1.099 -1.1068 -1.2645 -1.0992
23357SOL     OW70648   7.253   3.971   5.450 -0.4860  0.1534  0.2673
23357SOL    HW170649   7.164   3.969   5.414 -0.4561  0.9105  0.1504
23357SOL    HW270650   7.250   3.911   5.524 -1.6575  1.7370  1.5626
23358SOL     OW70651   2.766   3.402   2.112 -0.0634  0.2899  0.1765
23358SOL    HW170652   2.788   3.489   2.147  0.3993 -0.0242  0.6867
23358SOL    HW270653   2.707   3.364   2.177  1.3751 -0.5850  1.0220
23359SOL     OW70654   2.371   1.366   0.402 -0.5373  0.0017  0.3616
23359SOL    HW170655   2.451   1.321   0.376 -0.4799  0.6985 -0.7417
23359SOL    HW270656   2.383   1.456   0.372 -0.4925  0.9063  2.8413
23360SOL     OW70657   5.332   3.970   1.679  0.4841 -0.1879 -0.1261
23360SOL    HW170658   5.320   4.062   1.654  1.7848  0.3270  1.0057
23360SOL    HW270659   5.419   3.947   1.647  0.8510 -0.4917  1.0274
23361SOL     OW70660   3.469   8.522   2.006  0.1174 -0.3856  0.1649
23361SOL    HW170661   3.527   8.464   2.055 -0.6362 -0.5125  0.9232
23361SOL    HW270662   3.444   8.470   1.929  0.6279 -0.5040  0.0753
23362SOL     OW70663   2.239   5.877   9.980  0.1040  0.3390 -0.2195
23362SOL    HW170664   2.254   5.906   9.890 -0.8270  0.0851 -0.4715
23362SOL    HW270665   2.145   5.856   9.983 -0.0162  0.9586  0.9838
23363SOL     OW70666   7.070   3.336   5.009 -0.3359 -0.3925 -0.2371
23363SOL    HW170667   7.055   3.428   5.027 -0.8301 -0.5090 -0.0078
23363SOL    HW270668   7.113   3.334   4.924 -2.9308 -0.0506 -1.6603
23364SOL     OW70669   4.856   1.922   6.908 -0.4170 -0.8870  0.2640
23364SOL    HW170670   4.933   1.871   6.885  0.5714  0.0289  1.4041
23364SOL    HW270671   4.839   1.977   6.831  1.1931  0.2086  0.6330
23365SOL     OW70672   6.395   8.096   6.121  0.6925  0.2854 -0.1626
23365SOL    HW170673   6.466   8.032   6.127 -0.2082 -0.7147  0.0511
23365SOL    HW270674   6.318   8.049   6.151 -0.0060  1.4699 -0.0398
23366SOL     OW70675   1.381   9.043   6.883 -0.2129 -0.6843  0.5842
23366SOL    HW170676   1.408   9.119   6.935 -1.1319 -0.0182  0.1211
23366SOL    HW270677   1.333   8.987   6.944 -0.6851 -0.2383  0.6331
23367SOL     OW70678   8.841   9.090   4.668 -0.1138 -0.1663 -0.3764
23367SOL    HW170679   8.935   9.073   4.678  0.3121  2.6818  1.6369
23367SOL    HW270680   8.824   9.074   4.576  2.5678  0.0723 -1.0110
23368SOL     OW70681   8.294   6.092   9.766 -0.6722  0.6435 -0.3195
23368SOL    HW170682   8.298   6.188   9.768  1.5347  0.5899  0.3198
23368SOL    HW270683   8.329   6.065   9.851 -3.0874 -0.7402  0.3228
23369SOL     OW70684   2.335   1.767   8.716 -0.0969  0.0090  0.1357
23369SOL    HW170685   2.305   1.690   8.764  2.0200  0.0895  1.7569
23369SOL    HW270686   2.281   1.839   8.750  0.1416 -0.2479  1.0799
23370SOL     OW70687   3.768   4.796   7.205  0.3993 -0.1862  0.2680
23370SOL    HW170688   3.853   4.815   7.166 -1.2496  1.8451 -2.6916
23370SOL    HW270689   3.759   4.860   7.276  0.3266  1.4039 -1.1200
23371SOL     OW70690   1.325   4.512   1.469 -0.3169  0.5820 -0.2181
23371SOL    HW170691   1.237   4.502   1.433 -0.2436 -0.3971 -0.1688
23371SOL    HW270692   1.381   4.465   1.407  0.0922  0.7197  0.0461
23372SOL     OW70693   0.452   1.982   5.976  0.4475  0.2092 -0.0208
23372SOL    HW170694   0.386   1.912   5.972  0.8833 -0.4392  2.5389
23372SOL    HW270695   0.535   1.936   5.989  0.9789  1.1457 -0.0298
23373SOL     OW70696   0.744   1.884   2.752  0.0742  0.4351 -0.3911
23373SOL    HW170697   0.776   1.858   2.838  0.7069 -1.6483 -1.1889
23373SOL    HW270698   0.814   1.940   2.717  0.5153  0.0619 -0.1249
23374SOL     OW70699   5.950   1.738   9.064  0.8443 -0.1946 -0.0963
23374SOL    HW170700   6.032   1.752   9.110  0.5397  1.0904  0.0932
23374SOL    HW270701   5.967   1.767   8.974  0.5993  0.0906 -0.0521
23375SOL     OW70702   1.555   7.904   3.310  0.4942 -0.2179 -0.6122
23375SOL    HW170703   1.485   7.893   3.246 -0.5067  1.7591  0.0532
23375SOL    HW270704   1.592   7.817   3.320 -1.4070 -1.1931 -1.5108
23376SOL     OW70705   7.699   2.324   2.115  0.3084 -0.2811  0.7595
23376SOL    HW170706   7.646   2.403   2.125  1.3752  0.4908  0.4369
23376SOL    HW270707   7.740   2.333   2.029 -1.6530 -2.5000 -0.5189
23377SOL     OW70708   8.691   8.759   2.906 -0.2223  0.0786  0.1872
23377SOL    HW170709   8.681   8.834   2.848  0.8339  1.2255  1.4047
23377SOL    HW270710   8.611   8.758   2.958 -0.1160  0.5444  0.3607
23378SOL     OW70711   8.229   3.611   0.473 -0.0508  0.1464 -0.0828
23378SOL    HW170712   8.291   3.602   0.545  1.5692 -0.4717 -1.4879
23378SOL    HW270713   8.195   3.523   0.459  0.8654 -0.0654 -1.0872
23379SOL     OW70714   8.821   3.557   2.969  0.2964 -0.2205 -0.1896
23379SOL    HW170715   8.789   3.628   3.024  0.9609  0.0070 -0.0896
23379SOL    HW270716   8.767   3.482   2.993  0.7878 -0.2122  1.0193
23380SOL     OW70717   9.333   4.016   9.003 -0.4610  0.0647  0.5802
23380SOL    HW170718   9.384   3.963   8.942 -0.5122 -0.2755  0.8256
23380SOL    HW270719   9.377   4.100   9.005 -0.2503 -0.0398  0.3479
23381SOL     OW70720   9.127   1.184   1.653  0.1927  0.1053 -0.6354
23381SOL    HW170721   9.113   1.216   1.742  1.2553  1.1244 -0.8168
23381SOL    HW270722   9.157   1.260   1.604  2.4859 -1.0650 -1.1742
23382SOL     OW70723   5.668   9.583   4.279  0.2933 -0.5688 -0.0948
23382SOL    HW170724   5.615   9.661   4.264 -0.3969 -1.0577 -0.2205
23382SOL    HW270725   5.731   9.583   4.207  0.0649 -0.3204 -0.2953
23383SOL     OW70726   9.399   6.963   2.261  0.7987 -0.3148  0.5703
23383SOL    HW170727   9.477   7.009   2.294 -0.7058  1.7258  1.4496
23383SOL    HW270728   9.357   6.928   2.340 -0.0797  0.1230  0.3113
23384SOL     OW70729   8.920   3.815   7.958  0.0400  0.0138 -0.5328
23384SOL    HW170730   8.903   3.751   8.027  0.1846 -0.1275 -0.6297
23384SOL    HW270731   8.894   3.899   7.997 -2.3882 -0.3487 -1.1754
23385SOL     OW70732   8.616   9.814   4.549  0.4784  0.2965  0.3724
23385SOL    HW170733   8.622   9.841   4.458 -1.5320 -1.6010 -0.4215
23385SOL    HW270734   8.639   9.721   4.548 -3.3177 -0.8173  1.0207
23386SOL     OW70735   2.752   9.785   2.472  0.3228 -0.3476 -1.2010
23386SOL    HW170736   2.770   9.756   2.383  1.4065 -1.2709 -0.7148
23386SOL    HW270737   2.838   9.808   2.507 -0.0340 -0.4007 -0.2662
23387SOL     OW70738   3.735   6.210   6.051 -0.1302 -0.2239 -0.1093
23387SOL    HW170739   3.763   6.282   6.109  0.4826 -0.6511  0.1309
23387SOL    HW270740   3.815   6.163   6.031 -0.1149  0.6088 -2.3075
23388SOL     OW70741   3.526   1.254   2.806 -0.5999 -0.3613 -0.2607
23388SOL    HW170742   3.620   1.248   2.790 -0.6220 -0.2381 -0.4420
23388SOL    HW270743   3.486   1.255   2.719 -0.8165 -1.1158 -0.1782
23389SOL     OW70744   7.489   7.223   4.169  0.0191 -0.2195 -0.3149
23389SOL    HW170745   7.577   7.250   4.142 -0.2810  0.3678 -0.7175
23389SOL    HW270746   7.489   7.128   4.159  0.2919 -0.1332 -1.2945
23390SOL     OW70747   5.261   4.048   0.540  0.1479 -0.4087  0.0367
23390SOL    HW170748   5.316   4.106   0.593  0.9980 -1.6477  0.5499
23390SOL    HW270749   5.178   4.096   0.532  0.5563  0.5397  1.0911
23391SOL     OW70750   9.500   7.153   9.007 -0.0352 -0.1621  0.3417
23391SOL    HW170751   9.484   7.067   9.047  0.6610 -0.6227 -0.3271
23391SOL    HW270752   9.561   7.196   9.066  1.4881 -1.0908 -0.4867
23392SOL     OW70753   2.959   3.041   6.092 -0.2622  0.3467  0.1838
23392SOL    HW170754   2.933   2.984   6.020 -4.2365  0.5379  1.2366
23392SOL    HW270755   2.991   2.981   6.160 -0.1257 -0.2034 -0.3649
23393SOL     OW70756   9.405   4.097   8.471 -0.3062 -0.4843 -0.3302
23393SOL    HW170757   9.383   4.181   8.509 -1.2021 -0.8057 -0.1139
23393SOL    HW270758   9.349   4.034   8.517  1.4298 -1.4193  0.5822
23394SOL     OW70759   1.212   5.855   2.479 -0.0029 -0.2231  0.2139
23394SOL    HW170760   1.156   5.778   2.482 -0.6403  0.2458  0.9563
23394SOL    HW270761   1.182   5.909   2.553 -0.6029  1.4289 -1.1709
23395SOL     OW70762   2.893   8.457   6.303 -0.1062 -0.4244 -0.1103
23395SOL    HW170763   2.836   8.383   6.322  0.1575 -0.2999  1.2326
23395SOL    HW270764   2.840   8.534   6.325  0.3919 -0.2941  0.6735
23396SOL     OW70765   6.217   8.662   7.545 -0.3490 -0.4745  0.2761
23396SOL    HW170766   6.206   8.568   7.529  2.3314 -0.6326 -1.2456
23396SOL    HW270767   6.244   8.668   7.637  1.2562 -1.4256 -0.1002
23397SOL     OW70768   1.983   9.373   2.980 -0.1985  0.0365  0.3007
23397SOL    HW170769   1.888   9.388   2.975 -0.1166  0.9071  1.0074
23397SOL    HW270770   2.014   9.382   2.890 -0.6125  1.1687  0.2475
23398SOL     OW70771   8.260   1.132   5.118 -0.2432  0.0845  0.2753
23398SOL    HW170772   8.273   1.044   5.081  2.2737 -0.4969  2.2304
23398SOL    HW270773   8.227   1.184   5.046  0.9820 -1.7993 -1.7826
23399SOL     OW70774   2.623   0.710   3.672  0.3379 -0.8068  0.3750
23399SOL    HW170775   2.700   0.767   3.670 -0.6027  0.4859 -1.0889
23399SOL    HW270776   2.571   0.742   3.746  0.4237 -0.6243  0.3550
23400SOL     OW70777   5.206   0.582   4.831 -0.4553  0.4169  0.5903
23400SOL    HW170778   5.168   0.519   4.892  2.4191 -0.8482  1.2471
23400SOL    HW270779   5.213   0.663   4.881  2.3892 -0.7477  2.3255
23401SOL     OW70780   7.903   9.348   6.792 -0.2510  0.0764 -0.1940
23401SOL    HW170781   7.961   9.405   6.744 -0.1517 -0.1884 -0.3909
23401SOL    HW270782   7.958   9.308   6.860 -0.4787  0.7502  0.3975
23402SOL     OW70783   2.661   3.141   7.605  0.1025  0.3810  0.2530
23402SOL    HW170784   2.601   3.190   7.548 -0.6236 -0.9986 -0.2195
23402SOL    HW270785   2.749   3.167   7.575 -0.2649  0.3600 -0.9012
23403SOL     OW70786   5.870   2.930   6.050  0.1830  0.1936  0.1419
23403SOL    HW170787   5.857   2.841   6.082 -0.9238  0.5818  0.8262
23403SOL    HW270788   5.900   2.980   6.126 -0.5736  0.7009  0.1210
23404SOL     OW70789   5.547   7.779   8.585 -0.1615  0.3482 -0.8439
23404SOL    HW170790   5.496   7.855   8.557 -0.0560  0.6602 -0.2243
23404SOL    HW270791   5.558   7.726   8.506 -1.4799  0.2476 -0.9757
23405SOL     OW70792   5.234   8.825   6.968  0.0976 -0.4010  0.3265
23405SOL    HW170793   5.163   8.761   6.964  0.8071 -1.1969  0.2564
23405SOL    HW270794   5.224   8.866   7.054 -1.1983  0.3968 -0.1751
23406SOL     OW70795   7.502   5.527   6.416 -0.8618 -0.1442  0.4990
23406SOL    HW170796   7.569   5.499   6.353 -2.8871 -1.5667 -1.1648
23406SOL    HW270797   7.521   5.476   6.495  0.4504  0.0615  0.3417
23407SOL     OW70798   4.069   5.462   0.590  0.2658 -0.2896 -0.1685
23407SOL    HW170799   4.034   5.513   0.517 -0.7922  1.1833  1.2910
23407SOL    HW270800   4.113   5.388   0.549  0.5764  1.0088 -2.3304
23408SOL     OW70801   4.976   5.788   0.795 -0.1763 -0.1456  0.3367
23408SOL    HW170802   4.903   5.749   0.746 -0.6458  0.3730  0.6054
23408SOL    HW270803   4.940   5.807   0.881  0.0982  0.6619  0.2862
23409SOL     OW70804   4.213   7.725   2.681  0.2363  0.2506 -0.5556
23409SOL    HW170805   4.136   7.756   2.634  1.5631  3.1759 -1.0519
23409SOL    HW270806   4.238   7.644   2.637 -0.2656  1.3644 -3.0100
23410SOL     OW70807   0.938   0.107   8.031 -0.0542  0.0840 -0.1819
23410SOL    HW170808   0.903   0.196   8.039 -1.0438 -0.2473 -0.6570
23410SOL    HW270809   0.933   0.088   7.937 -0.7407 -0.8139  0.0257
23411SOL     OW70810   2.057   2.250   8.605 -0.1111  0.2998 -0.4161
23411SOL    HW170811   2.137   2.196   8.606 -0.8475 -0.8298  0.8444
23411SOL    HW270812   2.084   2.333   8.644  0.5120  0.0226 -0.2337
23412SOL     OW70813   1.368   0.663   0.695  0.4562 -0.6190 -0.0050
23412SOL    HW170814   1.352   0.583   0.646  0.7164  0.8516 -2.6492
23412SOL    HW270815   1.460   0.658   0.719  0.5720 -0.9373 -0.4993
23413SOL     OW70816   5.194   4.914   8.162 -0.1450  0.0336 -0.1629
23413SOL    HW170817   5.266   4.910   8.226  0.3735  1.6101 -0.6169
23413SOL    HW270818   5.134   4.979   8.198 -0.9183 -0.6321 -0.2317
23414SOL     OW70819   8.123   2.666   4.201  0.4432 -0.1762 -0.2626
23414SOL    HW170820   8.219   2.664   4.192  0.4092  0.9486 -1.0631
23414SOL    HW270821   8.092   2.697   4.117 -0.6719 -0.9815 -0.1601
23415SOL     OW70822   3.002   2.138   1.994  0.2715  0.3555  0.0574
23415SOL    HW170823   3.003   2.145   1.899  1.8228 -0.4423 -0.0175
23415SOL    HW270824   3.041   2.053   2.012 -0.8854  0.0701  1.4009
23416SOL     OW70825   6.435   4.619   6.070 -0.7858 -0.6345  0.0643
23416SOL    HW170826   6.377   4.544   6.073 -2.2973  0.4308 -0.9733
23416SOL    HW270827   6.472   4.619   5.981  0.0162 -0.7163  0.3841
23417SOL     OW70828   7.107   2.788   2.245 -0.0920 -0.3450  0.3710
23417SOL    HW170829   7.154   2.867   2.218 -2.2627  1.1489  0.7322
23417SOL    HW270830   7.085   2.803   2.337 -2.1958 -0.4694 -0.0702
23418SOL     OW70831   2.174   7.767   1.334 -0.1069 -1.0926  0.0915
23418SOL    HW170832   2.209   7.799   1.251 -0.6150 -0.7497  0.0094
23418SOL    HW270833   2.170   7.845   1.390 -1.8979 -0.8782 -0.2947
23419SOL     OW70834   5.084   0.679   3.006  0.1570 -0.7912  0.1390
23419SOL    HW170835   5.082   0.610   3.072  2.4240 -2.9343 -1.8477
23419SOL    HW270836   5.000   0.671   2.961  0.0044 -1.6412  0.5478
23420SOL     OW70837   5.286   2.638   0.742 -0.3244  0.3459 -0.0773
23420SOL    HW170838   5.211   2.617   0.685  0.6433  2.6748 -2.4742
23420SOL    HW270839   5.357   2.582   0.710 -0.8057 -1.4009  1.7698
23421SOL     OW70840   4.087   2.422  -0.022 -0.5423  0.0741 -0.2564
23421SOL    HW170841   4.060   2.423   0.070 -1.5501  0.2775 -0.5484
23421SOL    HW270842   4.174   2.463  -0.021 -0.4412 -0.1341  0.6333
23422SOL     OW70843   3.939   7.838   1.400 -0.4935 -0.0146  0.3668
23422SOL    HW170844   3.901   7.925   1.413 -2.6122 -0.8762  0.2560
23422SOL    HW270845   4.015   7.836   1.458  0.0613  2.1702 -0.2053
23423SOL     OW70846   9.010   2.026   8.578 -0.2664 -0.4866  0.4279
23423SOL    HW170847   8.993   2.043   8.671  0.7419  1.5109  0.2974
23423SOL    HW270848   8.992   1.933   8.567  0.4725 -0.9804  2.8449
23424SOL     OW70849   2.910   5.874   1.898  0.0254 -0.3260 -0.0863
23424SOL    HW170850   3.004   5.864   1.912  0.3208  1.2046 -0.8531
23424SOL    HW270851   2.891   5.822   1.820  0.4281  0.1522 -0.5096
23425SOL     OW70852   4.002   9.040   2.936  0.1932  0.3484 -0.0318
23425SOL    HW170853   4.006   8.945   2.942 -0.9706  0.1900 -1.2683
23425SOL    HW270854   3.943   9.066   3.007  0.1371  0.0966  0.0144
23426SOL     OW70855   3.857   4.327   9.024  0.2046 -0.5818 -0.6509
23426SOL    HW170856   3.949   4.305   9.032  0.2142 -0.2155  0.3889
23426SOL    HW270857   3.833   4.363   9.109 -0.5937  0.4626 -1.2871
23427SOL     OW70858   2.349   1.032   0.720  0.1758  0.1016  0.1540
23427SOL    HW170859   2.292   0.989   0.656 -1.0325  0.8473  0.6940
23427SOL    HW270860   2.409   1.085   0.667 -1.2951  1.3032 -0.3840
23428SOL     OW70861   1.620   2.524   2.379  0.6100 -0.1974 -0.0847
23428SOL    HW170862   1.715   2.528   2.373  0.5593  0.6000 -0.5682
23428SOL    HW270863   1.598   2.585   2.450  0.4551 -0.2781 -0.0621
23429SOL     OW70864   9.739   0.582   6.444 -0.2094 -0.1112 -0.2353
23429SOL    HW170865   9.757   0.497   6.404 -0.5632  0.3061 -1.3181
23429SOL    HW270866   9.655   0.570   6.488  0.1127 -0.5395  0.2620
23430SOL     OW70867   2.448   1.312   9.425  0.3881 -0.5995  0.2542
23430SOL    HW170868   2.388   1.258   9.477 -0.9745  0.6704  0.0511
23430SOL    HW270869   2.440   1.277   9.336 -0.9825  0.2930 -0.0037
23431SOL     OW70870   9.397   5.396   7.148 -0.0271  0.6938  0.0161
23431SOL    HW170871   9.409   5.481   7.191  1.9977 -0.4307  1.9103
23431SOL    HW270872   9.415   5.332   7.217  4.0039 -1.3089 -2.5090
23432SOL     OW70873   6.972   1.169   1.017 -0.2983  0.3383  0.1687
23432SOL    HW170874   6.992   1.079   1.045 -0.5927  0.0579 -0.5064
23432SOL    HW270875   7.032   1.185   0.944 -0.6098  0.5064 -0.0496
23433SOL     OW70876   9.438   1.815   0.777  0.3763  0.1882  0.0583
23433SOL    HW170877   9.462   1.736   0.825 -0.2017 -0.3261 -0.4795
23433SOL    HW270878   9.400   1.873   0.842  2.4043  0.7499  0.8084
23434SOL     OW70879   0.573   9.132   6.771 -0.2248 -0.4380  0.2720
23434SOL    HW170880   0.583   9.083   6.852 -1.9190 -1.0112  0.1721
23434SOL    HW270881   0.643   9.100   6.714  0.5779 -0.4872  1.2764
23435SOL     OW70882   6.571   0.653   5.803  0.0313  0.2030  0.3790
23435SOL    HW170883   6.570   0.561   5.827 -0.6667 -0.2343 -1.1690
23435SOL    HW270884   6.626   0.695   5.869 -0.3507 -1.1655  1.6021
23436SOL     OW70885   9.836   8.494   1.285 -0.2276 -0.0134 -0.0076
23436SOL    HW170886   9.814   8.550   1.360 -0.7331  1.7271 -1.3887
23436SOL    HW270887   9.780   8.526   1.214  1.4430 -0.4477 -1.5975
23437SOL     OW70888   8.770   4.102   9.750  0.0667 -0.2383 -0.1073
23437SOL    HW170889   8.788   4.148   9.667  3.0075  0.5502  0.8376
23437SOL    HW270890   8.819   4.020   9.743  1.3588  0.3625  1.2259
23438SOL     OW70891   7.669   9.569   7.392 -0.4121  0.1810 -0.0348
23438SOL    HW170892   7.719   9.648   7.369  1.2402 -0.2244  1.8622
23438SOL    HW270893   7.666   9.570   7.488 -1.1879 -1.5769 -0.0070
23439SOL     OW70894   9.073   3.924   2.995 -0.3947 -0.3048  0.9164
23439SOL    HW170895   9.104   3.859   3.058  0.6460 -0.3829  0.3558
23439SOL    HW270896   8.978   3.927   3.007 -0.3964 -1.5415  1.3245
23440SOL     OW70897   8.110   4.224   4.597  0.2700 -0.5490  0.4286
23440SOL    HW170898   8.206   4.227   4.593  0.1939  0.3443 -1.5569
23440SOL    HW270899   8.091   4.138   4.634  1.8373 -2.4304 -2.7097
23441SOL     OW70900   7.874   1.944   7.689 -0.5308  0.2811  0.5333
23441SOL    HW170901   7.833   1.949   7.603 -0.1957 -0.5188  0.3191
23441SOL    HW270902   7.806   1.972   7.750 -0.6870  1.1265 -0.0068
23442SOL     OW70903   1.522   9.457   0.819  0.4260 -0.2980 -0.0669
23442SOL    HW170904   1.475   9.384   0.778  0.2756  0.3772 -1.1427
23442SOL    HW270905   1.547   9.424   0.905  0.3066 -1.5910 -0.5064
23443SOL     OW70906   4.553   5.383   4.073  0.4728  0.9700  0.3096
23443SOL    HW170907   4.537   5.289   4.086  1.1663  0.6550 -1.0335
23443SOL    HW270908   4.476   5.413   4.024  0.4686  1.0191  0.3463
23444SOL     OW70909   6.143   7.344   5.357 -0.1887 -0.0214  0.5067
23444SOL    HW170910   6.055   7.313   5.336 -0.3371  0.1401  0.8835
23444SOL    HW270911   6.200   7.269   5.338 -0.4501 -0.2473  0.6112
23445SOL     OW70912   7.449   7.275   1.862 -0.5399  0.0294  0.0992
23445SOL    HW170913   7.487   7.310   1.781  1.4075  0.3612  1.1130
23445SOL    HW270914   7.358   7.256   1.838 -0.6215  2.0756 -1.5877
23446SOL     OW70915   9.996   4.373   4.642 -0.3246 -0.1662  0.4604
23446SOL    HW170916   9.992   4.301   4.578 -1.0904 -0.7557  1.1436
23446SOL    HW270917   9.916   4.423   4.626  0.1423  0.4752  0.0763
23447SOL     OW70918   6.036   9.484   3.243 -0.2617  0.1099 -0.2392
23447SOL    HW170919   6.089   9.406   3.233  1.5241  1.3101 -0.6049
23447SOL    HW270920   5.968   9.477   3.175  0.8194 -0.3788 -1.2926
23448SOL     OW70921   7.005   6.889   5.149 -0.9162 -0.5570  0.0517
23448SOL    HW170922   7.038   6.898   5.239  0.6137 -1.7458 -0.3506
23448SOL    HW270923   7.080   6.911   5.094 -2.0336  0.8202 -0.9689
23449SOL     OW70924   6.669   2.184   3.763 -0.0150  0.1146 -0.6057
23449SOL    HW170925   6.745   2.234   3.793  0.8955  0.5779 -3.3734
23449SOL    HW270926   6.688   2.094   3.787  1.2203  0.2857 -0.8930
23450SOL     OW70927   2.291   8.571   8.218  0.4299  0.0484 -0.0192
23450SOL    HW170928   2.279   8.477   8.204 -0.4419  0.1480  0.0067
23450SOL    HW270929   2.385   8.585   8.207  0.5985 -0.8594  0.1846
23451SOL     OW70930   4.856   4.023   6.185  0.1630 -0.1327 -0.1703
23451SOL    HW170931   4.858   3.954   6.119 -2.5141  0.0914 -0.5933
23451SOL    HW270932   4.889   4.101   6.140 -0.4592 -0.2743 -0.8889
23452SOL     OW70933   2.949   2.212   8.027 -0.5264 -0.0060  0.4059
23452SOL    HW170934   2.900   2.187   7.948 -0.6005  0.4679  0.2976
23452SOL    HW270935   2.899   2.284   8.064  0.0472  0.4371  0.3363
23453SOL     OW70936   4.997   1.838   6.538 -0.2195  0.3325 -0.4180
23453SOL    HW170937   5.037   1.846   6.625  1.2585  0.6559 -1.1040
23453SOL    HW270938   4.950   1.755   6.542 -0.5167  0.5436  0.8268
23454SOL     OW70939   2.407   5.465   5.033  0.4925 -0.6906  0.0967
23454SOL    HW170940   2.380   5.467   4.941 -1.5355  1.6309  0.6265
23454SOL    HW270941   2.492   5.509   5.034  0.7044 -1.0663 -0.6927
23455SOL     OW70942   6.209   7.689   0.895 -0.2570 -0.5453 -0.1104
23455SOL    HW170943   6.238   7.738   0.818 -0.9214 -0.5251 -0.3543
23455SOL    HW270944   6.192   7.757   0.962  3.5308 -0.6916  1.2502
23456SOL     OW70945   4.015   0.540   8.833 -0.0100  0.1757 -0.2260
23456SOL    HW170946   4.026   0.560   8.927 -1.2731  1.3220 -0.2790
23456SOL    HW270947   4.097   0.568   8.793 -0.0957  1.3087  0.3364
23457SOL     OW70948   2.687   6.883   0.721  0.3438  0.2261 -0.4735
23457SOL    HW170949   2.768   6.916   0.680 -0.0739  0.9672 -0.7269
23457SOL    HW270950   2.694   6.788   0.714  1.0653  0.2878 -0.7494
23458SOL     OW70951   4.517   4.135   6.144  0.2887  0.4585  0.2981
23458SOL    HW170952   4.567   4.054   6.152  0.0160  0.3122  0.5582
23458SOL    HW270953   4.455   4.132   6.217 -0.8957  0.0728 -0.6819
23459SOL     OW70954   4.516   3.207   6.016 -0.0763  0.1559  0.2141
23459SOL    HW170955   4.482   3.129   6.060  0.3157  0.3166  0.8148
23459SOL    HW270956   4.610   3.205   6.032 -0.1073  0.9550  0.5776
23460SOL     OW70957   3.328   5.718   2.256  0.5912  0.0319 -0.4634
23460SOL    HW170958   3.380   5.675   2.324  1.2775  0.4418 -0.7197
23460SOL    HW270959   3.243   5.734   2.298  1.2009  0.8291  0.4995
23461SOL     OW70960   8.697   2.984   7.853 -0.3318  0.3321  0.1401
23461SOL    HW170961   8.661   3.068   7.823 -0.3286  1.0744  2.0328
23461SOL    HW270962   8.780   2.975   7.805 -0.0189  1.7518  0.3628
23462SOL     OW70963   8.552   0.113   4.680 -0.4340  0.8238 -0.5401
23462SOL    HW170964   8.566   0.019   4.684 -1.8178  0.6256  0.1803
23462SOL    HW270965   8.465   0.123   4.641 -0.1359  1.8156 -0.9843
23463SOL     OW70966   7.808   7.076   7.708  0.2476  0.0705  0.2673
23463SOL    HW170967   7.837   7.137   7.640  1.9344 -0.2186  0.6750
23463SOL    HW270968   7.839   6.991   7.678  0.4940 -0.1455  1.1087
23464SOL     OW70969   9.708   9.312   2.710  0.8473 -0.4374  0.1175
23464SOL    HW170970   9.768   9.327   2.637  1.8131 -3.0881  0.2296
23464SOL    HW270971   9.636   9.260   2.672  0.0045  0.3825  0.5481
23465SOL     OW70972   8.951   8.985   1.970 -0.6277 -0.2637 -0.0529
23465SOL    HW170973   8.880   8.952   1.915 -1.9329  2.5885 -0.2115
23465SOL    HW270974   8.908   9.019   2.048  0.8142 -0.5223  0.8985
23466SOL     OW70975   8.648   9.318   1.409 -0.2436  0.1570 -1.2158
23466SOL    HW170976   8.591   9.385   1.445 -0.1171  0.2445 -1.1764
23466SOL    HW270977   8.589   9.250   1.378 -0.3389 -0.3431 -0.0071
23467SOL     OW70978   6.903   7.975   5.659 -1.2269  0.1743 -0.3059
23467SOL    HW170979   6.813   8.008   5.656 -1.3500 -0.2115 -2.0460
23467SOL    HW270980   6.942   8.003   5.576 -0.6395 -1.9908 -0.8492
23468SOL     OW70981   7.110   0.063   5.668 -0.3827  0.5050 -0.5620
23468SOL    HW170982   7.139  -0.022   5.704 -5.5884 -1.1316  0.6908
23468SOL    HW270983   7.063   0.104   5.740  0.1096  3.5190 -1.8324
23469SOL     OW70984   1.662   4.367   7.928 -0.5062  0.4676  0.2460
23469SOL    HW170985   1.599   4.439   7.921  0.7443  1.7600  1.6810
23469SOL    HW270986   1.675   4.338   7.838 -2.4845  0.7203 -0.1711
23470SOL     OW70987   7.678   2.106   7.848 -0.0433  0.4234 -0.3897
23470SOL    HW170988   7.623   2.184   7.849  1.6015  1.6561 -1.6677
23470SOL    HW270989   7.620   2.036   7.881 -2.0478  1.8302 -0.7362
23471SOL     OW70990   1.574   4.950   5.281 -0.3554 -0.2195 -0.1428
23471SOL    HW170991   1.551   4.940   5.374 -0.0119 -0.7848 -0.1082
23471SOL    HW270992   1.561   4.862   5.245 -1.8144  0.2963 -0.9454
23472SOL     OW70993   5.249   0.344   8.578 -0.4134  0.4907  0.7668
23472SOL    HW170994   5.188   0.281   8.539 -0.9098  0.3311  1.7865
23472SOL    HW270995   5.316   0.356   8.510 -0.8423 -0.3696  0.1638
23473SOL     OW70996   2.240   4.017   7.592 -0.3706 -0.4652 -0.7036
23473SOL    HW170997   2.278   4.093   7.549  1.3740 -1.2245 -0.6300
23473SOL    HW270998   2.177   4.053   7.655  0.0733  0.8770 -0.9945
23474SOL     OW70999   8.459   0.670   8.479 -0.1314  0.4116  0.2591
23474SOL    HW171000   8.364   0.685   8.483 -0.6460 -2.5753  2.1280
23474SOL    HW271001   8.490   0.689   8.567  1.0009  1.1777 -0.2926
23475SOL     OW71002   3.131   8.046   0.295 -0.2871  0.6029  0.2256
23475SOL    HW171003   3.177   8.120   0.258  1.0442  0.2080  1.0083
23475SOL    HW271004   3.064   8.084   0.351 -0.3790  1.2028 -0.2953
23476SOL     OW71005   4.347   4.011   8.055 -0.5356 -0.0413  0.2078
23476SOL    HW171006   4.439   3.987   8.068 -0.2341  0.9347 -0.0845
23476SOL    HW271007   4.336   4.091   8.107 -0.8927  0.5272 -0.7360
23477SOL     OW71008   1.280   4.033   3.687 -0.3524 -0.4567 -0.2814
23477SOL    HW171009   1.204   4.048   3.631  0.0318 -0.5300 -0.8330
23477SOL    HW271010   1.243   4.017   3.774 -0.9867 -0.8997 -0.6241
23478SOL     OW71011   3.511   8.333   1.276 -0.2291  0.3421  0.7295
23478SOL    HW171012   3.516   8.262   1.340 -0.2759  0.5713  0.9926
23478SOL    HW271013   3.418   8.356   1.273 -0.2830  0.0669  0.2821
23479SOL     OW71014   2.419   5.532   5.932 -0.3299 -0.7789 -0.8105
23479SOL    HW171015   2.378   5.574   5.856 -0.1447  0.2760 -0.3561
23479SOL    HW271016   2.399   5.439   5.922 -1.6361 -0.4703 -1.3258
23480SOL     OW71017   2.877   5.709   1.679  0.5029 -0.2171 -0.2269
23480SOL    HW171018   2.874   5.762   1.599 -0.4360  1.3689  0.7898
23480SOL    HW271019   2.793   5.663   1.680 -0.3560  1.2833  0.7664
23481SOL     OW71020   3.069   8.603   9.114  0.9660  0.3650  0.3433
23481SOL    HW171021   3.025   8.550   9.048 -0.6699 -0.2440  1.8422
23481SOL    HW271022   3.150   8.556   9.132  1.4230  0.5198 -1.1455
23482SOL     OW71023   1.573   9.853   0.414  0.3399  0.2018  0.4020
23482SOL    HW171024   1.562   9.804   0.495 -1.4892  1.2331  0.8182
23482SOL    HW271025   1.614   9.935   0.440 -0.4337  0.6182  0.3196
23483SOL     OW71026   8.868   3.011   4.797  0.0964  0.3458  0.0460
23483SOL    HW171027   8.836   2.998   4.886 -0.0705  1.7905  0.2204
23483SOL    HW271028   8.792   3.040   4.748  0.4218  0.5827 -0.3214
23484SOL     OW71029   4.297   7.933   8.342  0.4805  0.2134 -0.0216
23484SOL    HW171030   4.321   7.984   8.419  0.1380 -0.1889  0.3520
23484SOL    HW271031   4.326   7.844   8.362  0.5400  0.1417 -0.4240
23485SOL     OW71032   6.902   6.059   5.005 -0.4778  0.2177  0.0197
23485SOL    HW171033   6.929   6.137   4.956 -0.1212 -0.2675 -0.5552
23485SOL    HW271034   6.962   6.056   5.079  0.6673 -0.4957 -0.9065
23486SOL     OW71035   8.757   7.711   6.459  0.3829  0.6500  0.1822
23486SOL    HW171036   8.846   7.679   6.473 -0.4364 -2.0897 -0.2758
23486SOL    HW271037   8.767   7.782   6.396  2.2687  0.7759  0.5425
23487SOL     OW71038   1.040   9.150   1.259 -0.0309 -0.2589 -0.5347
23487SOL    HW171039   0.999   9.195   1.185 -1.3378 -2.8098 -1.4900
23487SOL    HW271040   0.968   9.103   1.302  0.8607  0.3581  1.8102
23488SOL     OW71041   8.039   3.006   1.807  0.0027 -0.0759 -0.5042
23488SOL    HW171042   8.115   3.062   1.818  0.6835 -0.8549 -1.1282
23488SOL    HW271043   7.969   3.051   1.854  0.8205  0.6983 -0.0007
23489SOL     OW71044   0.259   6.378   3.623 -0.1723 -0.6853  0.4902
23489SOL    HW171045   0.223   6.452   3.671  1.1314  0.7729 -0.6870
23489SOL    HW271046   0.351   6.400   3.609  0.0619 -2.1565 -0.5996
23490SOL     OW71047   2.030   9.256   1.980 -0.3675 -0.1916  0.2708
23490SOL    HW171048   1.984   9.326   2.027  3.9540  2.6789  0.8279
23490SOL    HW271049   2.039   9.290   1.891  0.2394 -0.8956  0.0652
23491SOL     OW71050   8.685   4.916   0.584 -0.6680  0.1257  0.6425
23491SOL    HW171051   8.674   5.007   0.558 -0.4799  0.1503  0.6507
23491SOL    HW271052   8.676   4.866   0.503  2.0340  0.3461  0.1316
23492SOL     OW71053   7.543   5.604   4.875  0.3809 -0.3261  0.3801
23492SOL    HW171054   7.547   5.592   4.970  0.0858  0.7496  0.5404
23492SOL    HW271055   7.588   5.687   4.860  0.2145 -0.3744 -0.3957
23493SOL     OW71056   2.868   7.500   7.368  0.7340 -0.3832 -0.2534
23493SOL    HW171057   2.843   7.408   7.363  1.4168 -0.7220  1.7279
23493SOL    HW271058   2.808   7.538   7.432  2.1298 -0.1057  0.9426
23494SOL     OW71059   9.919   0.574   1.935  0.0068  0.0794  0.2817
23494SOL    HW171060   9.985   0.542   1.996 -1.0221 -1.1853  0.7884
23494SOL    HW271061   9.932   0.522   1.856  0.1183  0.3806  0.1003
23495SOL     OW71062   3.701   0.831   4.657  0.6655  0.4628  0.0704
23495SOL    HW171063   3.746   0.748   4.642  1.4161  1.1841 -2.0049
23495SOL    HW271064   3.764   0.884   4.705  0.5682  0.1684  0.5231
23496SOL     OW71065   5.223   7.150   0.695  0.1369 -0.0118  0.1687
23496SOL    HW171066   5.238   7.124   0.786 -1.5245 -0.0600  0.4543
23496SOL    HW271067   5.179   7.234   0.700  0.7408  0.3697 -0.6312
23497SOL     OW71068   9.581   7.693   5.549 -0.0959 -0.4906 -0.4265
23497SOL    HW171069   9.486   7.696   5.541 -0.0305 -0.5552 -1.4471
23497SOL    HW271070   9.603   7.767   5.605 -0.7782 -0.8048  0.2812
23498SOL     OW71071   9.283   6.133   0.829 -0.0466 -0.2467  0.1382
23498SOL    HW171072   9.277   6.111   0.921  2.1253 -0.8927  0.1909
23498SOL    HW271073   9.329   6.217   0.827  3.2336 -1.8841 -0.3386
23499SOL     OW71074   6.198   4.130   8.996  0.1446  0.0030 -0.7343
23499SOL    HW171075   6.188   4.225   9.006 -0.4612 -0.2890  2.1029
23499SOL    HW271076   6.230   4.119   8.906 -0.2455  2.8355 -1.3097
23500SOL     OW71077   7.752   4.595   8.132 -0.2891  0.0311 -0.0492
23500SOL    HW171078   7.807   4.659   8.178 -0.2134 -0.0305 -0.0541
23500SOL    HW271079   7.800   4.513   8.140 -0.4199 -0.0397  0.0167
23501SOL     OW71080   9.656   5.675   9.312 -0.5848  0.2999  0.0920
23501SOL    HW171081   9.685   5.588   9.339  1.4551  0.4477 -1.3963
23501SOL    HW271082   9.693   5.734   9.378 -1.2028  0.1198  0.6022
23502SOL     OW71083   4.751   0.537   2.814  0.6554 -0.0021  0.4106
23502SOL    HW171084   4.756   0.592   2.892  1.7286  0.9367 -0.2928
23502SOL    HW271085   4.729   0.597   2.743  1.2292 -0.5762 -0.2748
23503SOL     OW71086   7.099   8.279   5.124 -0.2928 -0.3221 -0.4518
23503SOL    HW171087   7.179   8.330   5.138 -0.6564  0.4700 -1.1130
23503SOL    HW271088   7.102   8.255   5.031 -0.2462 -1.3189 -0.1994
23504SOL     OW71089   8.145   7.041   8.820 -0.3384  0.3766 -0.3658
23504SOL    HW171090   8.174   7.114   8.765 -1.5809  0.6441 -0.6844
23504SOL    HW271091   8.225   7.011   8.863  0.5558  0.5331 -1.8738
23505SOL     OW71092   4.065   8.064   0.554 -0.4582  0.4851 -0.3515
23505SOL    HW171093   4.009   8.014   0.494 -0.8708  0.2361  0.2291
23505SOL    HW271094   4.140   8.091   0.501 -0.4403 -0.3901 -0.7812
23506SOL     OW71095   2.623   1.116   1.746  0.5183  0.5286 -0.0398
23506SOL    HW171096   2.646   1.169   1.822  1.1770 -0.2067  0.2811
23506SOL    HW271097   2.701   1.063   1.729 -0.5454 -1.2553  0.4145
23507SOL     OW71098   6.735   8.457   2.680  0.0562 -0.0365 -0.2611
23507SOL    HW171099   6.657   8.403   2.691 -0.7282  1.5040  2.9540
23507SOL    HW271100   6.796   8.426   2.745  0.5538  1.3049 -0.0484
23508SOL     OW71101   9.502   5.707   8.760 -0.6384  0.5520 -0.2684
23508SOL    HW171102   9.579   5.660   8.728 -0.7609  1.8444 -2.7054
23508SOL    HW271103   9.443   5.710   8.685 -2.1146  1.5514  0.8796
23509SOL     OW71104   7.242   1.634   8.595 -0.0417  0.1288 -0.0998
23509SOL    HW171105   7.308   1.678   8.542 -0.7052 -0.5388 -1.5481
23509SOL    HW271106   7.169   1.695   8.598 -0.4331 -0.2724 -0.9472
23510SOL     OW71107   6.508   3.917   8.812  0.2168  0.2453 -0.0889
23510SOL    HW171108   6.427   3.876   8.841  0.8803  0.2528  1.9386
23510SOL    HW271109   6.499   4.009   8.839  1.1993  0.0728  0.9079
23511SOL     OW71110   5.559   6.896   1.509 -0.2444 -0.3154  0.0760
23511SOL    HW171111   5.616   6.973   1.499 -1.3500  0.4053 -1.2215
23511SOL    HW271112   5.596   6.831   1.449 -0.0636 -0.3075  0.1795
23512SOL     OW71113   2.122   2.170   6.819 -0.3273 -0.1977  0.0717
23512SOL    HW171114   2.094   2.245   6.871 -0.3197 -0.2892  0.2075
23512SOL    HW271115   2.039   2.128   6.792 -0.3802  0.6441 -1.1678
23513SOL     OW71116   7.233   5.801   0.996  0.5767 -0.6447 -0.3857
23513SOL    HW171117   7.225   5.719   1.044 -1.5774 -0.0475  0.4016
23513SOL    HW271118   7.301   5.849   1.044 -1.1974 -0.2519  1.9361
23514SOL     OW71119   6.674   9.127   0.402  0.1832  0.4860 -0.1000
23514SOL    HW171120   6.707   9.123   0.312  1.2258  1.7586  0.1859
23514SOL    HW271121   6.586   9.164   0.394  0.6951  1.6743 -0.5507
23515SOL     OW71122   4.736   3.217   8.948  0.0573 -0.2023  0.3651
23515SOL    HW171123   4.827   3.238   8.967  0.2213 -1.7143  1.4528
23515SOL    HW271124   4.685   3.285   8.991  0.6515  0.5186 -0.0527
23516SOL     OW71125   5.641   3.838   5.037  0.1765 -0.1859 -0.3048
23516SOL    HW171126   5.608   3.903   5.099 -1.0684 -0.4537 -0.6761
23516SOL    HW271127   5.736   3.853   5.036  0.7162 -2.0870  3.8875
23517SOL     OW71128   0.856   0.130   6.910 -0.4341 -0.1581 -0.2350
23517SOL    HW171129   0.795   0.199   6.939  0.7018 -0.0152  2.0543
23517SOL    HW271130   0.812   0.049   6.933 -0.8580 -0.1383 -0.9644
23518SOL     OW71131   3.125   6.109   2.464  0.1414  0.4881 -0.6758
23518SOL    HW171132   3.151   6.200   2.478  1.8729  0.0294 -0.6603
23518SOL    HW271133   3.183   6.059   2.522 -0.4537 -0.6517 -1.0466
23519SOL     OW71134   6.794   0.438   8.362 -0.1896 -0.2384  0.3785
23519SOL    HW171135   6.749   0.357   8.383 -1.3138  0.1382 -0.4605
23519SOL    HW271136   6.886   0.412   8.350 -0.6879 -1.5684 -0.8437
23520SOL     OW71137   5.611   1.148   4.315  0.4466 -0.0430 -0.1938
23520SOL    HW171138   5.666   1.122   4.241  1.1409 -0.6861  0.5310
23520SOL    HW271139   5.568   1.229   4.286  0.8980 -0.1519 -1.1987
23521SOL     OW71140   9.120   1.318   3.163  0.4604 -0.3708  0.1923
23521SOL    HW171141   9.119   1.345   3.255  3.1084  1.1945 -0.1412
23521SOL    HW271142   9.089   1.394   3.114 -0.8154 -1.1515 -0.2584
23522SOL     OW71143   2.982   3.891   4.524 -0.7799 -0.0338 -0.7249
23522SOL    HW171144   3.065   3.925   4.557 -0.0776 -0.9271 -1.4991
23522SOL    HW271145   2.921   3.964   4.530 -0.3313  0.2418  1.1940
23523SOL     OW71146   2.782   3.186   1.238  0.3594  0.7752  0.6563
23523SOL    HW171147   2.816   3.181   1.149  2.1998 -2.2933  1.3616
23523SOL    HW271148   2.845   3.241   1.284  1.0904 -0.0074  0.6315
23524SOL     OW71149   6.511   8.126   9.207  0.2812  0.0731  0.6242
23524SOL    HW171150   6.605   8.121   9.189  0.8047  0.2595  2.9446
23524SOL    HW271151   6.487   8.037   9.233 -0.0587  0.1681  0.6356
23525SOL     OW71152   6.744   6.471   6.505 -0.0677  0.0441 -0.3344
23525SOL    HW171153   6.777   6.551   6.463 -0.7641  0.7310  0.3911
23525SOL    HW271154   6.752   6.488   6.599 -0.6972 -0.5271 -0.1678
23526SOL     OW71155   8.420   2.176   8.283  0.6171 -0.1708 -0.3416
23526SOL    HW171156   8.479   2.142   8.216  1.3444 -0.6202  0.4923
23526SOL    HW271157   8.402   2.266   8.256  2.2084  0.1863 -0.2980
23527SOL     OW71158   6.254   6.259   6.553  0.5509 -0.1053 -0.1917
23527SOL    HW171159   6.272   6.182   6.498  1.5852 -0.2457  0.3214
23527SOL    HW271160   6.341   6.295   6.573  0.2176 -0.2555  1.6345
23528SOL     OW71161   5.550   3.581   7.794  0.8984  0.1154 -0.4172
23528SOL    HW171162   5.474   3.540   7.752  2.0627 -2.7026 -0.0366
23528SOL    HW271163   5.513   3.636   7.863 -0.8452  0.7895 -1.8128
23529SOL     OW71164   6.881   1.539   2.991  0.0199 -0.1234 -0.1342
23529SOL    HW171165   6.929   1.474   3.042 -1.8993 -2.4770 -1.0823
23529SOL    HW271166   6.878   1.502   2.903 -0.9072  1.4029 -0.7848
23530SOL     OW71167   1.286   5.708   1.800 -0.2341 -0.0170 -0.3103
23530SOL    HW171168   1.361   5.725   1.743 -0.8160 -0.8227 -1.3613
23530SOL    HW271169   1.229   5.652   1.748 -0.5592 -1.2229  1.2583
23531SOL     OW71170   4.919   6.377   7.688 -0.0365 -0.2178 -0.1128
23531SOL    HW171171   4.836   6.372   7.735 -0.5289  0.1057 -0.9399
23531SOL    HW271172   4.896   6.408   7.601  0.7907 -1.5238 -0.8122
23532SOL     OW71173   3.085   2.380   5.055 -0.5085 -0.2739  0.6689
23532SOL    HW171174   3.080   2.440   5.129 -2.3640 -0.5953  0.8375
23532SOL    HW271175   3.171   2.337   5.065  0.4127  1.5894  1.0942
23533SOL     OW71176   8.944   3.227   1.844 -0.2982 -0.0920 -0.0247
23533SOL    HW171177   8.907   3.161   1.902 -0.7877 -0.0270 -0.2528
23533SOL    HW271178   9.038   3.222   1.857 -0.2927 -1.2186 -0.4589
23534SOL     OW71179   5.762   3.561   1.126  0.0229  0.6984 -0.0031
23534SOL    HW171180   5.697   3.500   1.162 -1.0298  1.0757 -1.1813
23534SOL    HW271181   5.736   3.572   1.035  1.2824  1.5134 -0.2867
23535SOL     OW71182   5.493   8.988   8.090  0.1936 -0.2829 -0.1513
23535SOL    HW171183   5.576   8.993   8.137 -0.2320 -0.3877  0.6304
23535SOL    HW271184   5.436   8.936   8.147 -1.2942  2.1495  0.7340
23536SOL     OW71185   1.933   8.413   9.642  0.0765  0.2538  0.1612
23536SOL    HW171186   1.952   8.507   9.639  1.4218 -0.0357 -0.8849
23536SOL    HW271187   1.973   8.377   9.563 -0.0260 -1.2804  0.7754
23537SOL     OW71188   6.219   8.784   3.700 -0.2366  0.2762 -0.4523
23537SOL    HW171189   6.198   8.693   3.718  0.3258  0.0238 -1.0201
23537SOL    HW271190   6.286   8.780   3.632  0.3036  1.0965  0.0152
23538SOL     OW71191   8.008   3.701   0.055  0.2143 -0.5198  0.4869
23538SOL    HW171192   7.916   3.705   0.079 -0.0229  0.6209 -0.5113
23538SOL    HW271193   8.017   3.619   0.006 -0.5681 -0.0461 -0.4887
23539SOL     OW71194   1.204   3.781   1.356  0.1667 -0.0600 -0.3917
23539SOL    HW171195   1.239   3.844   1.418 -2.1170 -0.2178  1.1767
23539SOL    HW271196   1.203   3.698   1.404 -2.3843 -0.0243 -0.2870
23540SOL     OW71197   5.460   3.338   7.290 -0.5833  0.2504  0.2349
23540SOL    HW171198   5.554   3.355   7.285 -0.1427 -1.6914  1.0702
23540SOL    HW271199   5.437   3.354   7.381 -1.2387  1.3514 -0.0988
23541SOL     OW71200   8.603   5.289   7.084 -0.2297  0.5446 -0.1559
23541SOL    HW171201   8.559   5.246   7.011  1.1538  0.2253 -0.8415
23541SOL    HW271202   8.589   5.382   7.070 -2.0927  0.4225  0.5880
23542SOL     OW71203   6.981   7.426   4.419  0.2705 -0.0069  0.3054
23542SOL    HW171204   6.938   7.444   4.335 -1.0526  0.7255  1.0994
23542SOL    HW271205   6.911   7.437   4.484  0.9607 -1.7810  1.4141
23543SOL     OW71206   4.655   9.251   2.299 -0.3611  0.2192 -0.0196
23543SOL    HW171207   4.730   9.270   2.356  0.6818 -1.7322 -0.6697
23543SOL    HW271208   4.666   9.312   2.226 -2.0512  3.1870  1.9910
23544SOL     OW71209   2.879   0.830   4.048  0.2667 -0.2459  0.0565
23544SOL    HW171210   2.894   0.902   4.110  1.2027 -0.9970  0.7286
23544SOL    HW271211   2.854   0.874   3.966  1.3516  0.8920  0.2971
23545SOL     OW71212   5.709   7.990   9.252 -0.5108  0.1603 -0.3137
23545SOL    HW171213   5.634   7.946   9.293  0.1789 -0.0655  0.7293
23545SOL    HW271214   5.752   7.922   9.202 -1.7211  0.5733 -2.0314
23546SOL     OW71215   0.435   5.552   7.691  0.4101 -0.0165  0.4955
23546SOL    HW171216   0.464   5.618   7.628  1.0918  0.1651  0.9954
23546SOL    HW271217   0.434   5.470   7.641 -0.5923  0.3812 -0.1687
23547SOL     OW71218   2.669   3.684   1.969  0.7467  0.2143 -0.2235
23547SOL    HW171219   2.646   3.666   1.878  1.5589  1.1005 -0.6155
23547SOL    HW271220   2.764   3.671   1.973  0.6300 -0.5825  0.6956
23548SOL     OW71221   8.630   1.422   6.252 -0.4551  0.5812 -0.2615
23548SOL    HW171222   8.646   1.514   6.230  2.3351 -0.0351 -1.2024
23548SOL    HW271223   8.705   1.397   6.307 -0.2893 -1.5371 -1.3634
23549SOL     OW71224   7.739   6.820   1.891 -0.4253  0.2168 -0.1576
23549SOL    HW171225   7.775   6.740   1.851  0.5269  0.8847 -0.6763
23549SOL    HW271226   7.696   6.866   1.820 -2.1198 -0.4176  0.3994
23550SOL     OW71227   1.347   6.178   6.161 -0.2714  0.2813  0.2065
23550SOL    HW171228   1.340   6.274   6.160 -0.9510  0.2445 -1.0712
23550SOL    HW271229   1.316   6.151   6.075  2.4227 -0.9318 -0.5128
23551SOL     OW71230   2.687   7.087   5.755 -0.4683  0.4969  0.1537
23551SOL    HW171231   2.772   7.131   5.753  0.2466 -0.7236 -3.1700
23551SOL    HW271232   2.623   7.158   5.744  0.2914  1.1835  0.0942
23552SOL     OW71233   1.701   7.964   7.853 -0.1084  0.0140 -0.3078
23552SOL    HW171234   1.623   7.931   7.898  1.9669 -1.9960  2.1807
23552SOL    HW271235   1.724   7.894   7.791  1.7543 -1.3154  1.7338
23553SOL     OW71236   0.796   1.235   0.519  0.5165 -0.1554  0.5002
23553SOL    HW171237   0.866   1.292   0.549  0.3120  0.7825 -0.7391
23553SOL    HW271238   0.814   1.151   0.562  0.3689  0.9964  3.0025
23554SOL     OW71239   1.536   6.985   6.504  0.2427 -0.0126 -0.0079
23554SOL    HW171240   1.551   7.069   6.547  0.8983 -0.6368  1.0143
23554SOL    HW271241   1.516   6.925   6.575  0.8033 -0.9514 -0.6272
23555SOL     OW71242   4.145   7.371   9.139  0.0269  0.5850 -0.2520
23555SOL    HW171243   4.122   7.383   9.047 -2.0033 -0.9055 -0.0127
23555SOL    HW271244   4.101   7.443   9.184 -0.9091  0.0205 -0.2345
23556SOL     OW71245   6.929   4.330   2.137 -0.4473  0.2546 -0.1121
23556SOL    HW171246   6.992   4.336   2.208  0.0019  0.4183 -0.5212
23556SOL    HW271247   6.897   4.420   2.126 -0.7829  0.1673  0.1150
23557SOL     OW71248   1.443   3.028   3.447 -0.1012  0.4198 -0.1709
23557SOL    HW171249   1.468   3.033   3.355 -0.7593  0.6177 -0.3496
23557SOL    HW271250   1.408   3.115   3.467 -1.1348  0.0076 -0.0978
23558SOL     OW71251   6.620   8.803   8.596  0.2588  0.4106  0.1436
23558SOL    HW171252   6.644   8.838   8.510  1.7174  0.8239  0.6913
23558SOL    HW271253   6.540   8.849   8.619  0.5370  1.2125 -0.4541
23559SOL     OW71254   2.632   0.001   3.450 -0.2032 -0.5906 -0.4768
23559SOL    HW171255   2.651   0.003   3.544 -1.4181  1.4728 -0.2205
23559SOL    HW271256   2.706   0.046   3.410  0.0636 -1.0186 -0.4743
23560SOL     OW71257   3.840   3.296   4.391 -0.1673  0.3919  0.4991
23560SOL    HW171258   3.825   3.346   4.471 -2.0723  0.6537  0.0216
23560SOL    HW271259   3.766   3.318   4.335  1.3400  0.5698 -1.5419
23561SOL     OW71260   7.891   6.145   0.393 -0.6309 -0.3736  0.2672
23561SOL    HW171261   7.972   6.111   0.431 -1.0325 -1.1594  0.4420
23561SOL    HW271262   7.864   6.079   0.330  0.2825  1.1349 -1.8279
23562SOL     OW71263   1.223   1.849   1.329  0.0865 -0.3410 -0.0459
23562SOL    HW171264   1.317   1.834   1.320 -0.0125  0.3089 -3.6038
23562SOL    HW271265   1.214   1.944   1.331 -0.4961 -0.3928 -0.0149
23563SOL     OW71266   4.097   8.480   8.514  0.1128  0.1664  0.3188
23563SOL    HW171267   4.093   8.486   8.609  0.8891  0.9516  0.3170
23563SOL    HW271268   4.108   8.387   8.496  2.9177  0.2549  1.1677
23564SOL     OW71269   3.385   5.722   6.167  0.1504 -0.0689 -0.1091
23564SOL    HW171270   3.404   5.814   6.186  1.4567 -0.4659  0.6219
23564SOL    HW271271   3.408   5.712   6.075  2.7012 -0.2813  0.4846
23565SOL     OW71272   3.286   4.872   6.665 -0.5684 -0.1898  0.3504
23565SOL    HW171273   3.241   4.788   6.655 -2.4082  0.6695  0.9727
23565SOL    HW271274   3.216   4.937   6.663  0.7583  1.3077  0.4488
23566SOL     OW71275   2.221   3.209   1.645 -0.5327  0.5680  0.2259
23566SOL    HW171276   2.193   3.296   1.619  0.1931  0.3380 -1.4096
23566SOL    HW271277   2.299   3.223   1.699 -1.1212  0.9649  0.9966
23567SOL     OW71278   8.342   3.962   0.432  0.0838  0.0539 -0.3867
23567SOL    HW171279   8.282   4.026   0.394 -1.2709 -0.8668  0.1651
23567SOL    HW271280   8.339   3.887   0.372 -0.4408 -0.5613  0.3930
23568SOL     OW71281   6.691   6.475   9.816  0.4064 -0.3770 -0.1699
23568SOL    HW171282   6.785   6.464   9.810  0.3605 -0.4344 -0.7898
23568SOL    HW271283   6.656   6.432   9.738  0.0214  1.5026 -1.1007
23569SOL     OW71284   5.137   6.244   8.305  0.2728  0.2393 -0.2830
23569SOL    HW171285   5.210   6.283   8.353  0.2716  0.4556 -0.4532
23569SOL    HW271286   5.084   6.201   8.372  0.1299  0.7650 -0.0599
23570SOL     OW71287   8.760   9.632   9.122  0.2257 -0.2006  0.2758
23570SOL    HW171288   8.747   9.557   9.065  1.4118 -0.6372  0.5536
23570SOL    HW271289   8.673   9.674   9.127  0.2411  0.3637 -2.5086
23571SOL     OW71290   2.558   5.292   0.483 -0.6163  0.3350  0.9162
23571SOL    HW171291   2.568   5.343   0.402  0.0188 -1.5943 -0.2903
23571SOL    HW271292   2.648   5.278   0.513 -0.7418 -0.6561  0.8386
23572SOL     OW71293   2.314   4.591   2.325 -0.1400 -0.3008 -0.8474
23572SOL    HW171294   2.305   4.663   2.387 -1.5759  1.3765 -2.9023
23572SOL    HW271295   2.225   4.554   2.319  0.4958 -2.0661 -0.1121
23573SOL     OW71296   9.303   8.493   9.806 -0.6016 -0.0359  0.1159
23573SOL    HW171297   9.303   8.563   9.871  1.4835 -0.7040  0.9022
23573SOL    HW271298   9.341   8.418   9.852 -1.3861 -1.2688 -1.1568
23574SOL     OW71299   4.174   0.194   4.548 -0.5194 -0.0686 -0.0597
23574SOL    HW171300   4.146   0.136   4.478 -0.3925 -0.9511  0.6034
23574SOL    HW271301   4.268   0.203   4.535 -0.6438  0.5799 -0.5827
23575SOL     OW71302   9.106   1.941   6.510  0.3573  0.2773 -0.3719
23575SOL    HW171303   9.045   2.009   6.479  0.4169  1.4007  1.7308
23575SOL    HW271304   9.052   1.884   6.564  0.7133 -0.1196 -0.4366
23576SOL     OW71305   1.593   3.953   2.623  0.2093  0.3151  0.2102
23576SOL    HW171306   1.593   4.048   2.610  0.5527  0.1360 -1.2309
23576SOL    HW271307   1.680   3.924   2.594  0.9142 -0.2259  2.5946
23577SOL     OW71308   0.886   4.260   7.679 -0.1580  0.2538 -0.1298
23577SOL    HW171309   0.892   4.335   7.738  2.6772 -0.1663  0.2250
23577SOL    HW271310   0.924   4.290   7.597  0.6864 -0.6650 -0.0924
23578SOL     OW71311   1.015   1.780   8.178  0.4251 -0.1187  0.1555
23578SOL    HW171312   1.043   1.789   8.087  0.9698 -2.6136 -0.0090
23578SOL    HW271313   1.084   1.727   8.219 -0.4877 -0.1882  1.6812
23579SOL     OW71314   6.406   1.354   9.938 -0.2170  0.3124 -0.5347
23579SOL    HW171315   6.370   1.416  10.001 -2.5782  0.0082 -1.4568
23579SOL    HW271316   6.496   1.382   9.925 -0.6042  2.2816  0.6014
23580SOL     OW71317   7.729   9.244   7.608  0.2317  0.1065 -0.3673
23580SOL    HW171318   7.679   9.295   7.673 -0.7900 -0.9412 -0.2981
23580SOL    HW271319   7.665   9.184   7.571  1.1826 -0.4198 -1.1970
23581SOL     OW71320   9.588   5.720   4.109  0.1246  0.6546 -0.0327
23581SOL    HW171321   9.649   5.790   4.135  0.1761  0.7113 -0.3052
23581SOL    HW271322   9.503   5.764   4.103  0.4160  1.0413 -1.7356
23582SOL     OW71323   4.916   9.138   9.662 -0.1265 -0.4594  0.5136
23582SOL    HW171324   4.859   9.077   9.708  0.0877  0.6684  2.3662
23582SOL    HW271325   4.972   9.176   9.730  1.4058  0.0127 -0.9404
23583SOL     OW71326   7.844   7.745   6.812  0.4953  0.8348  0.2590
23583SOL    HW171327   7.812   7.663   6.777  0.6757 -0.0110  1.9624
23583SOL    HW271328   7.897   7.783   6.742  0.5065 -0.5590 -0.5128
23584SOL     OW71329   3.835   3.297   6.493 -0.1912  0.1949  0.0051
23584SOL    HW171330   3.756   3.347   6.472  0.3399  1.4975  0.9679
23584SOL    HW271331   3.824   3.273   6.585  0.2709 -0.1141 -0.0175
23585SOL     OW71332   6.486   0.453   2.265  0.1396  0.0553 -0.3754
23585SOL    HW171333   6.480   0.362   2.235  2.8404 -0.6030  0.7832
23585SOL    HW271334   6.560   0.489   2.216 -0.6532  1.5678 -0.5277
23586SOL     OW71335   6.222   4.415   8.965 -0.0685 -0.2761 -0.0391
23586SOL    HW171336   6.242   4.482   8.899  2.2465 -1.0635 -0.2305
23586SOL    HW271337   6.147   4.450   9.013 -0.3652  1.3742 -1.5957
23587SOL     OW71338   0.001   7.025   3.150 -0.0142  0.0769 -0.1946
23587SOL    HW171339   0.084   7.020   3.101  0.2259  1.1510  0.0757
23587SOL    HW271340  -0.061   7.061   3.088  0.3357  1.6189  0.3061
23588SOL     OW71341   8.472   0.218   8.782 -0.5023 -0.1408 -0.1079
23588SOL    HW171342   8.525   0.156   8.831  0.6773  1.3111  0.5501
23588SOL    HW271343   8.530   0.248   8.711 -1.5381 -0.8076 -1.2810
23589SOL     OW71344   6.074   2.799   7.250 -0.4326 -0.7435 -0.4910
23589SOL    HW171345   6.090   2.814   7.343 -0.5294 -0.9734 -0.4362
23589SOL    HW271346   6.136   2.730   7.225  1.2495  0.9329 -1.1636
23590SOL     OW71347   7.425   3.002   8.799 -0.1429  0.3795 -0.0915
23590SOL    HW171348   7.429   2.913   8.833  1.6101  0.9891  1.5391
23590SOL    HW271349   7.338   3.011   8.762 -0.6860 -1.7021  0.5837
23591SOL     OW71350   5.394   2.374   4.851 -0.4988 -0.3157 -0.8037
23591SOL    HW171351   5.304   2.378   4.883 -0.2548 -1.4540  0.0958
23591SOL    HW271352   5.428   2.462   4.866 -0.7618 -0.4923  1.0631
23592SOL     OW71353   2.644   8.737   4.924 -0.2939  0.2688 -0.4406
23592SOL    HW171354   2.681   8.805   4.980 -1.0445  1.1300 -0.9705
23592SOL    HW271355   2.713   8.717   4.862  0.3796 -0.3610  0.4804
23593SOL     OW71356   9.660   9.102   9.760  0.0326 -0.2752  0.1870
23593SOL    HW171357   9.598   9.031   9.743 -1.3170  1.0072 -0.5562
23593SOL    HW271358   9.726   9.094   9.692 -1.1242  0.2193 -1.0610
23594SOL     OW71359   6.827   5.220   3.241  0.1119  0.0893 -0.2478
23594SOL    HW171360   6.747   5.181   3.277  0.9480 -1.7425 -0.3010
23594SOL    HW271361   6.803   5.246   3.152 -0.2950 -0.9648 -0.4635
23595SOL     OW71362   3.468   2.434   5.066 -0.2387  0.0706  0.6306
23595SOL    HW171363   3.487   2.487   5.144  1.4217 -0.6158  0.7312
23595SOL    HW271364   3.418   2.360   5.100  0.6513 -0.3315  1.0959
23596SOL     OW71365   7.982   4.747   1.519 -0.1774  0.1702  0.0735
23596SOL    HW171366   8.045   4.756   1.447 -1.7531 -1.6205 -1.6488
23596SOL    HW271367   8.035   4.755   1.598  1.8193  1.0909 -1.2704
23597SOL     OW71368   1.995   5.365   8.809  0.1489  0.3905 -0.0454
23597SOL    HW171369   1.922   5.332   8.758 -0.4005  0.9809  0.3436
23597SOL    HW271370   1.989   5.461   8.799  2.0320  0.4072 -1.6322
23598SOL     OW71371   3.842   8.680   7.362 -0.1370  0.0874 -0.6573
23598SOL    HW171372   3.918   8.705   7.414 -0.3740 -0.4157 -0.0481
23598SOL    HW271373   3.868   8.695   7.271  0.3209  0.8880 -0.4070
23599SOL     OW71374   0.534   6.391   0.118 -0.5392  0.2979  0.7355
23599SOL    HW171375   0.439   6.384   0.128 -1.0141  1.8570 -1.8538
23599SOL    HW271376   0.554   6.335   0.043  0.7301 -0.4356  1.5733
23600SOL     OW71377   9.748   8.182   3.386 -0.0175 -0.3541 -0.3991
23600SOL    HW171378   9.722   8.155   3.474 -2.0357 -1.9778 -1.4135
23600SOL    HW271379   9.711   8.269   3.375 -0.4933 -0.4961  0.0714
23601SOL     OW71380   4.527   9.272   3.812  0.1223 -0.1878  0.4361
23601SOL    HW171381   4.519   9.196   3.754  0.2501  0.7075 -0.7905
23601SOL    HW271382   4.612   9.310   3.790 -0.3266  0.8224  0.4095
23602SOL     OW71383   9.349   2.302   7.304 -0.0807 -0.1820 -0.0512
23602SOL    HW171384   9.272   2.295   7.248  0.1965 -0.5947 -0.3856
23602SOL    HW271385   9.403   2.227   7.281  0.3891  0.0602  0.2350
23603SOL     OW71386   0.112   4.537   6.582 -0.2494  0.3863 -0.3448
23603SOL    HW171387   0.198   4.551   6.621 -1.0355  0.1593  1.5484
23603SOL    HW271388   0.129   4.479   6.508  1.4228  1.6500 -1.0089
23604SOL     OW71389   6.148   9.904   7.844 -0.2208  0.0705  0.4966
23604SOL    HW171390   6.184   9.993   7.851 -1.4938  0.5612  1.1283
23604SOL    HW271391   6.130   9.879   7.935 -0.2005 -0.7083  0.2934
23605SOL     OW71392   0.818   1.620   6.477  0.3134  0.4841 -0.0649
23605SOL    HW171393   0.818   1.653   6.388  0.5183  0.9381  0.1012
23605SOL    HW271394   0.824   1.698   6.532  1.1076  0.1579  0.3276
23606SOL     OW71395   8.470   6.204   2.730  0.7312  0.0273 -0.3950
23606SOL    HW171396   8.381   6.191   2.762  1.2130 -1.4905  0.3851
23606SOL    HW271397   8.460   6.220   2.636 -0.2486 -1.8887 -0.6470
23607SOL     OW71398   0.296   3.889   8.615  0.2382  0.1229  0.2169
23607SOL    HW171399   0.367   3.895   8.680  0.4054 -1.6539  0.2446
23607SOL    HW271400   0.239   3.963   8.636  0.2167 -0.4488  2.4912
23608SOL     OW71401   3.758   2.917   6.454  0.1724  0.6610  0.4966
23608SOL    HW171402   3.692   2.935   6.522  0.4180  0.4921  0.7793
23608SOL    HW271403   3.835   2.967   6.481  0.3531  0.3954  0.4787
23609SOL     OW71404   4.677   9.838   3.956  0.4522  0.2412  0.0243
23609SOL    HW171405   4.630   9.899   3.899  1.1854  1.0106  0.2256
23609SOL    HW271406   4.717   9.894   4.023 -0.6956 -0.6692  1.5362
23610SOL     OW71407   1.722   8.520   2.413 -0.4802  0.7207 -0.5976
23610SOL    HW171408   1.756   8.461   2.345  0.8279  2.1024 -1.2111
23610SOL    HW271409   1.675   8.463   2.473  1.5131 -1.0954 -0.6467
23611SOL     OW71410   9.699   4.620   5.435 -0.1784 -0.1371 -0.2632
23611SOL    HW171411   9.747   4.538   5.426 -2.1141 -1.6531  1.9047
23611SOL    HW271412   9.632   4.615   5.367  1.0389  0.7534 -1.5787
23612SOL     OW71413   4.340   2.345   8.831 -0.4570  0.0308  0.3703
23612SOL    HW171414   4.357   2.329   8.924 -0.0588 -1.2387  0.1052
23612SOL    HW271415   4.292   2.428   8.829  2.6193  2.0158  1.4275
23613SOL     OW71416  -0.007   7.218   0.225  0.1525 -0.0162  0.4132
23613SOL    HW171417   0.054   7.164   0.276 -1.2499  2.0135  4.6970
23613SOL    HW271418   0.045   7.294   0.200  0.1319  0.3660  1.5002
23614SOL     OW71419   2.438   8.734   7.099  0.9676 -0.1326  0.0936
23614SOL    HW171420   2.463   8.725   7.007  3.4016 -1.9533  0.8174
23614SOL    HW271421   2.520   8.756   7.144  0.0443 -0.3193  1.9508
23615SOL     OW71422   9.087   0.234   5.951 -0.9502 -0.2629  0.2160
23615SOL    HW171423   9.086   0.328   5.937  0.5997 -0.3696 -0.8494
23615SOL    HW271424   9.009   0.202   5.906  0.4089  0.1683 -2.6451
23616SOL     OW71425   7.157   2.396   5.136 -0.3068 -0.1273  0.2026
23616SOL    HW171426   7.169   2.319   5.191  0.1094 -0.7928 -0.7951
23616SOL    HW271427   7.097   2.368   5.067 -1.4629  0.9255  0.7253
23617SOL     OW71428   6.917   3.651   1.308  0.4313 -0.3053 -0.3797
23617SOL    HW171429   6.998   3.682   1.266 -0.9713  1.1447 -2.1965
23617SOL    HW271430   6.924   3.682   1.399  1.8490 -0.1266 -0.5260
23618SOL     OW71431   3.847   8.079   6.925  0.0297  0.1539 -0.0372
23618SOL    HW171432   3.810   8.011   6.982  2.5325 -1.2450  0.0724
23618SOL    HW271433   3.823   8.051   6.837  2.3399 -1.8895 -0.1256
23619SOL     OW71434   7.948   7.128   5.545  0.1208 -0.7811 -0.3938
23619SOL    HW171435   7.951   7.081   5.629  3.9206  0.1455  0.2168
23619SOL    HW271436   7.935   7.059   5.480  0.2444 -1.9883  0.7937
23620SOL     OW71437   9.924   3.537   6.960 -0.4742 -0.0823 -0.0277
23620SOL    HW171438  10.018   3.527   6.971 -0.5833 -0.9778  0.1989
23620SOL    HW271439   9.891   3.447   6.953 -1.5068  0.1360  1.5352
23621SOL     OW71440   8.125   8.062   6.449 -0.3997  0.1586  0.2676
23621SOL    HW171441   8.123   8.153   6.417 -2.8199  1.1156  2.7145
23621SOL    HW271442   8.052   8.019   6.404  0.0434 -0.2816 -0.0446
23622SOL     OW71443   9.812   5.648   3.096 -0.3487 -0.1952  0.2661
23622SOL    HW171444   9.869   5.622   3.168 -0.8729  0.0220  0.7738
23622SOL    HW271445   9.853   5.612   3.018 -0.1419 -1.0440  0.7565
23623SOL     OW71446   6.661   2.120   5.877  0.3743  0.0731  0.1393
23623SOL    HW171447   6.610   2.060   5.932  0.4900  0.1524  0.3340
23623SOL    HW271448   6.613   2.202   5.879  0.0294 -0.1034 -0.4074
23624SOL     OW71449   1.540   7.140   5.169  0.0589 -0.0148  0.6367
23624SOL    HW171450   1.626   7.143   5.211  0.7184  2.7210 -0.7110
23624SOL    HW271451   1.523   7.046   5.156  1.9013 -0.7037  2.6916
23625SOL     OW71452   7.977   5.126   1.709  0.1285 -0.2085 -0.4817
23625SOL    HW171453   8.049   5.116   1.647 -0.4857  1.5125 -1.5582
23625SOL    HW271454   7.923   5.048   1.695  1.2426 -1.0223 -0.3614
23626SOL     OW71455   2.612   0.916   0.473 -0.0217 -0.2111 -0.4609
23626SOL    HW171456   2.559   0.894   0.397  0.9295 -0.7447 -0.9942
23626SOL    HW271457   2.593   1.008   0.490 -2.6915 -0.8999  0.6874
23627SOL     OW71458   1.592   4.074   0.043  0.6711  0.0773 -0.1048
23627SOL    HW171459   1.572   4.113  -0.042  0.9716  1.6942  0.5307
23627SOL    HW271460   1.684   4.050   0.038  0.4478 -0.7219 -0.5484
23628SOL     OW71461   6.449   9.118   5.740  0.1256  0.2092 -0.0140
23628SOL    HW171462   6.362   9.079   5.745  0.3528 -0.2349  0.6718
23628SOL    HW271463   6.451   9.163   5.656 -0.8608  0.4631  0.0912
23629SOL     OW71464   9.677   2.346   5.518  0.0138 -0.6575  0.0952
23629SOL    HW171465   9.669   2.281   5.587  0.8343 -0.1549  0.6874
23629SOL    HW271466   9.702   2.426   5.563 -0.3682 -0.0844 -0.6882
23630SOL     OW71467   0.914   1.154   2.910 -0.3327 -0.6667 -0.1727
23630SOL    HW171468   0.831   1.176   2.868  0.1852  2.7871  0.3291
23630SOL    HW271469   0.889   1.115   2.995 -1.4154 -0.1815 -0.2611
23631SOL     OW71470   7.971   1.956   7.185 -0.1428  0.4074  0.1156
23631SOL    HW171471   8.032   1.885   7.209  2.2760  2.5065  0.6494
23631SOL    HW271472   7.914   1.965   7.262 -1.1701 -1.5336 -0.3488
23632SOL     OW71473   3.399   2.765   8.238  0.1796 -0.0550 -0.4114
23632SOL    HW171474   3.423   2.748   8.329  0.1148 -0.3741 -0.4521
23632SOL    HW271475   3.406   2.679   8.196  0.5015  0.1432 -0.7730
23633SOL     OW71476   4.611   5.529   6.156  0.9442 -0.7711 -0.0645
23633SOL    HW171477   4.652   5.442   6.155  1.0403 -0.7300 -1.1234
23633SOL    HW271478   4.551   5.526   6.230  1.1917 -1.6296  0.1175
23634SOL     OW71479   2.465   5.927   9.488 -0.2475 -0.0178  0.0568
23634SOL    HW171480   2.460   5.848   9.542  1.0903  0.7783  1.4257
23634SOL    HW271481   2.549   5.919   9.443  0.1265  0.8269  0.5810
23635SOL     OW71482   0.394   7.847   8.612  0.2616  0.2559 -0.1262
23635SOL    HW171483   0.469   7.906   8.601  0.3036  0.6140  1.6858
23635SOL    HW271484   0.430   7.759   8.600  0.5314  0.5041 -1.2624
23636SOL     OW71485   6.833   7.587   5.009  0.0070  0.1657 -0.1042
23636SOL    HW171486   6.789   7.639   5.076  0.2148 -0.5557  0.6219
23636SOL    HW271487   6.894   7.647   4.967  1.1541  0.2472  1.5628
23637SOL     OW71488   1.883   1.193   4.255  0.3528  0.3363  0.5016
23637SOL    HW171489   1.828   1.247   4.199  0.6739 -0.8323 -0.9940
23637SOL    HW271490   1.821   1.145   4.310  0.0739  2.5454  2.2711
23638SOL     OW71491   4.950   9.384   0.166  0.6680 -0.0608  0.2796
23638SOL    HW171492   4.916   9.303   0.128  0.7183  0.3904 -0.7684
23638SOL    HW271493   4.996   9.426   0.094  1.1030  0.6482  0.9594
23639SOL     OW71494   6.618   5.266   4.929 -0.0406 -0.6275  0.4146
23639SOL    HW171495   6.583   5.336   4.874 -1.5286 -1.4383  0.2912
23639SOL    HW271496   6.645   5.311   5.009 -0.4236  0.1775  0.1081
23640SOL     OW71497   7.296   0.130   0.154  0.6420 -0.4474 -0.2221
23640SOL    HW171498   7.247   0.079   0.218 -0.5717  1.3597  0.3940
23640SOL    HW271499   7.305   0.072   0.079  0.9731 -2.1845  1.0959
23641SOL     OW71500   9.423   3.157   7.103 -0.1845 -0.1545  0.7845
23641SOL    HW171501   9.482   3.095   7.060  1.5319  1.3533  0.8570
23641SOL    HW271502   9.337   3.136   7.066  1.0469  0.6402 -3.0748
23642SOL     OW71503   7.208   5.506   7.569 -0.1126  0.1220  0.2850
23642SOL    HW171504   7.168   5.432   7.524  0.8696  0.2816 -0.9311
23642SOL    HW271505   7.295   5.475   7.593  0.5935  1.0868 -0.9133
23643SOL     OW71506   8.736   2.488   2.693  0.2642 -0.5722  0.5899
23643SOL    HW171507   8.704   2.442   2.771 -0.7025 -0.0321  0.5339
23643SOL    HW271508   8.771   2.419   2.637 -0.9711 -1.2405  0.5934
23644SOL     OW71509   5.702   3.967   4.693  0.2746 -0.5131  0.5878
23644SOL    HW171510   5.771   3.905   4.719 -0.5563 -0.7289  2.4349
23644SOL    HW271511   5.629   3.947   4.752 -1.8052 -1.0001 -1.9938
23645SOL     OW71512   7.496   0.533   3.928 -0.2306 -0.3294 -0.0779
23645SOL    HW171513   7.451   0.618   3.929 -0.2285 -0.3093 -1.1960
23645SOL    HW271514   7.428   0.469   3.949 -0.5226 -0.1823 -0.5719
23646SOL     OW71515   7.185   9.016   0.676  0.1830  0.3250 -0.0925
23646SOL    HW171516   7.150   9.092   0.630  2.0046  1.0801 -0.3368
23646SOL    HW271517   7.137   8.942   0.639 -0.7766  1.2258 -0.7371
23647SOL     OW71518   2.432   6.169   3.329 -0.3265  0.2229  0.2056
23647SOL    HW171519   2.347   6.181   3.371  0.3395  1.8865  1.2071
23647SOL    HW271520   2.471   6.257   3.331  1.9337 -0.7383  0.9920
23648SOL     OW71521   1.636   4.077   0.956 -0.2925 -0.4566 -0.8632
23648SOL    HW171522   1.680   4.145   0.907  2.1037 -0.1645  1.4599
23648SOL    HW271523   1.696   4.003   0.956  0.2933 -0.1427  2.1934
23649SOL     OW71524   4.819   2.507   1.617  0.0903 -0.5975  0.1683
23649SOL    HW171525   4.906   2.466   1.616 -0.2762 -1.4945 -2.4916
23649SOL    HW271526   4.758   2.434   1.613 -0.6153  0.0375 -3.0410
23650SOL     OW71527   2.579   1.126   6.416  0.0089 -0.2347 -0.4699
23650SOL    HW171528   2.514   1.136   6.346  1.2734  0.3333 -1.6275
23650SOL    HW271529   2.544   1.177   6.488  0.1550  1.9742 -1.8472
23651SOL     OW71530   0.422   5.732   0.028 -0.1133 -0.3623  0.0028
23651SOL    HW171531   0.366   5.759   0.101 -0.2353 -1.4585  0.3286
23651SOL    HW271532   0.494   5.684   0.069 -0.8117 -2.0570 -0.6468
23652SOL     OW71533   8.602   4.906   8.266 -0.8899 -0.4007 -0.2601
23652SOL    HW171534   8.569   4.993   8.289 -0.3462  0.1466 -1.4809
23652SOL    HW271535   8.677   4.893   8.324  1.8491  1.9005 -2.9469
23653SOL     OW71536   6.033   3.664   3.878 -0.2053 -0.0236 -0.0341
23653SOL    HW171537   6.119   3.626   3.861  0.7823  1.9643  0.1842
23653SOL    HW271538   5.990   3.666   3.793  0.1425 -0.5982 -0.2281
23654SOL     OW71539   2.862   2.845   8.283  0.7261 -0.1988  0.0169
23654SOL    HW171540   2.920   2.860   8.209  0.9279  1.8314  0.5475
23654SOL    HW271541   2.773   2.856   8.248  0.7717 -0.4097 -0.1649
23655SOL     OW71542   1.286   7.604   1.150 -0.2159  0.3440 -0.1371
23655SOL    HW171543   1.288   7.691   1.110 -2.7561  0.1084 -0.9497
23655SOL    HW271544   1.261   7.619   1.241  1.8299  0.5834  0.4455
23656SOL     OW71545   9.771   1.017   2.405 -0.2312  0.4958  0.0190
23656SOL    HW171546   9.700   1.054   2.353  0.1599  0.0170 -0.8716
23656SOL    HW271547   9.835   0.986   2.341 -0.4385 -1.5389  0.7261
23657SOL     OW71548   6.583   5.481   7.998 -0.3025 -0.1731  0.6815
23657SOL    HW171549   6.530   5.546   7.952 -0.1463 -0.2474  0.3907
23657SOL    HW271550   6.539   5.469   8.082 -0.7014 -0.1739  0.4748
23658SOL     OW71551   3.843   7.961   5.198 -0.1015 -0.3878 -0.0526
23658SOL    HW171552   3.895   8.005   5.131 -1.0932 -0.3311 -0.8187
23658SOL    HW271553   3.759   7.942   5.154  0.0532 -2.4610  0.4594
23659SOL     OW71554   9.603   2.569   1.400  0.1631 -0.0174 -0.4873
23659SOL    HW171555   9.542   2.518   1.346  1.1045 -0.6420 -0.9994
23659SOL    HW271556   9.623   2.511   1.474 -0.3849  0.4587  0.0422
23660SOL     OW71557   3.009   4.721   3.727 -0.3645  0.2249  0.2722
23660SOL    HW171558   3.062   4.786   3.772  0.5556 -1.3784  1.6502
23660SOL    HW271559   2.959   4.679   3.798 -1.2862 -0.2459 -0.6375
23661SOL     OW71560   2.631   2.378   1.351  0.2081  0.1628 -0.2244
23661SOL    HW171561   2.667   2.412   1.269  0.3388 -1.1500 -0.7482
23661SOL    HW271562   2.565   2.315   1.323  0.5423 -0.6040  0.6673
23662SOL     OW71563   5.739   5.286   0.555  0.1961  0.3273 -0.2486
23662SOL    HW171564   5.750   5.286   0.650  0.8742  1.3380 -0.3230
23662SOL    HW271565   5.713   5.375   0.534  0.3554  0.1833 -1.0577
23663SOL     OW71566   7.000   9.119   4.910 -0.4379  0.4130  0.0603
23663SOL    HW171567   6.942   9.186   4.873 -0.8697  0.3656  0.6408
23663SOL    HW271568   7.021   9.151   4.998 -0.4984 -0.1155  0.2742
23664SOL     OW71569   9.573   5.757   0.521 -0.1858  0.1739 -0.2452
23664SOL    HW171570   9.597   5.772   0.612  1.5952  2.4251 -0.9776
23664SOL    HW271571   9.514   5.830   0.500 -0.4226 -0.2158 -0.9430
23665SOL     OW71572   5.243   7.687   7.042 -0.1505  0.0673  0.6319
23665SOL    HW171573   5.185   7.751   7.084 -0.1583 -0.4627  1.4611
23665SOL    HW271574   5.210   7.681   6.953 -0.6052  0.6836  0.7471
23666SOL     OW71575   8.435   1.483   2.222  0.0041 -0.2593  0.5015
23666SOL    HW171576   8.407   1.459   2.134  0.9529 -0.5055  0.2608
23666SOL    HW271577   8.364   1.539   2.255  0.6580  1.7245 -1.2598
23667SOL     OW71578   1.088   1.453   5.022 -0.0307  0.2309 -0.7458
23667SOL    HW171579   1.007   1.418   4.984 -1.2643  1.4296  0.6430
23667SOL    HW271580   1.095   1.541   4.986 -0.6491  0.9899  0.8717
23668SOL     OW71581   8.099   5.259   9.320  0.3054  0.6233  0.0720
23668SOL    HW171582   8.107   5.296   9.407 -0.3703 -1.5397  1.1289
23668SOL    HW271583   8.005   5.265   9.300  0.1311 -0.7269  0.4008
23669SOL     OW71584   6.421   2.050   7.505  0.2761  0.3260 -0.5709
23669SOL    HW171585   6.490   1.985   7.518 -0.2777 -0.0421  0.7097
23669SOL    HW271586   6.465   2.134   7.514  1.1328  0.1989 -2.9017
23670SOL     OW71587   0.180   4.602   2.676  0.0734  0.4730  0.1791
23670SOL    HW171588   0.143   4.516   2.661  0.1604  0.3909  0.4285
23670SOL    HW271589   0.236   4.619   2.599 -0.7506  0.7514 -0.3738
23671SOL     OW71590   5.935   7.378   2.533 -0.1011 -0.5024 -0.0395
23671SOL    HW171591   5.911   7.458   2.579  2.3451  0.6489 -0.6362
23671SOL    HW271592   5.901   7.389   2.444 -0.3453 -0.4230  0.0651
23672SOL     OW71593   2.984   2.770   5.871 -0.3191 -0.0903  0.0761
23672SOL    HW171594   2.902   2.798   5.914 -0.7888 -1.1988 -0.0733
23672SOL    HW271595   3.039   2.740   5.943 -0.7609 -1.0919  0.0086
23673SOL     OW71596   0.752   6.784   0.016 -0.0219  0.5539 -0.4678
23673SOL    HW171597   0.801   6.723  -0.038  0.9718  0.2088  0.7830
23673SOL    HW271598   0.813   6.855   0.034 -1.0244  1.7493 -1.5316
23674SOL     OW71599   3.976   4.832   3.583 -0.6717 -0.1874 -0.1747
23674SOL    HW171600   4.055   4.805   3.537 -0.2888  0.3495  0.1536
23674SOL    HW271601   3.934   4.896   3.525 -0.5234  0.0064 -0.0734
23675SOL     OW71602   5.710   8.357   4.632 -0.2263  0.6247  0.4184
23675SOL    HW171603   5.624   8.358   4.676  0.0358 -1.5837  1.1106
23675SOL    HW271604   5.698   8.415   4.557 -1.7161  1.9105  1.5591
23676SOL     OW71605   6.723   0.150   1.727  0.0630  0.7790  0.1967
23676SOL    HW171606   6.681   0.072   1.690  0.6041  0.1001  0.9759
23676SOL    HW271607   6.656   0.218   1.719  0.2341  0.7552 -2.2183
23677SOL     OW71608   8.408   3.485   8.938  0.4380 -0.2617  0.0370
23677SOL    HW171609   8.370   3.416   8.884  0.8353 -0.6786  0.2823
23677SOL    HW271610   8.425   3.557   8.877 -0.5652 -0.1293 -0.1071
23678SOL     OW71611   5.212   1.730   2.134 -0.8679  0.8289  0.4088
23678SOL    HW171612   5.212   1.770   2.046 -1.0644  2.4037  1.0945
23678SOL    HW271613   5.123   1.744   2.166 -0.6551  0.6870  1.0570
23679SOL     OW71614   6.414   4.815   2.677 -0.2395  0.3186 -0.0155
23679SOL    HW171615   6.447   4.899   2.708 -0.3095  0.0843  0.7146
23679SOL    HW271616   6.466   4.796   2.599  0.4630  0.5682  0.3851
23680SOL     OW71617   4.851   3.977   7.135 -0.1813 -0.2897  0.2816
23680SOL    HW171618   4.912   3.947   7.067  0.6770  0.6816  0.5950
23680SOL    HW271619   4.810   3.897   7.167 -0.0075 -0.8385 -0.8260
23681SOL     OW71620   0.605   5.855   2.336  0.5293  0.0043  0.1205
23681SOL    HW171621   0.577   5.944   2.357  0.1574 -0.0308 -0.2249
23681SOL    HW271622   0.640   5.862   2.247 -0.5405 -0.4116 -0.3473
23682SOL     OW71623   4.423   2.471   4.412 -0.2890  0.3018  0.8756
23682SOL    HW171624   4.504   2.508   4.448 -0.2037 -0.6806  1.7249
23682SOL    HW271625   4.399   2.401   4.473 -1.8621  0.6659  0.7267
23683SOL     OW71626   7.838   5.501   1.164 -0.4719 -0.4398 -0.0140
23683SOL    HW171627   7.924   5.542   1.164 -1.3628  1.6125  1.2238
23683SOL    HW271628   7.855   5.408   1.146  1.7661  0.2309 -1.8140
23684SOL     OW71629   0.513   9.488   3.874 -0.0445  0.0469 -0.2007
23684SOL    HW171630   0.544   9.468   3.962  0.0010 -0.4556 -0.3249
23684SOL    HW271631   0.542   9.413   3.821  0.7747  0.7894 -0.8354
23685SOL     OW71632   7.467   5.377   4.461  0.6915  0.7854 -0.1775
23685SOL    HW171633   7.389   5.411   4.417  2.7128  2.5017 -2.7530
23685SOL    HW271634   7.441   5.367   4.552 -3.1288 -0.7580 -1.2225
23686SOL     OW71635   7.511   6.349   8.133  0.1900 -0.1830 -0.3221
23686SOL    HW171636   7.498   6.261   8.167 -0.5102 -0.2854 -0.8184
23686SOL    HW271637   7.516   6.405   8.210  0.7619 -0.6692 -0.0030
23687SOL     OW71638   7.384   1.430   8.695  0.2773  0.5605 -0.7006
23687SOL    HW171639   7.314   1.368   8.675 -1.6595  2.3568  0.0620
23687SOL    HW271640   7.345   1.516   8.676  1.2594  1.8229  2.4460
23688SOL     OW71641   0.336   2.090   5.580 -0.1942 -0.2074 -0.5846
23688SOL    HW171642   0.376   2.086   5.493 -0.0077  3.5668 -0.8479
23688SOL    HW271643   0.256   2.039   5.572 -0.8236  1.0118 -3.4350
23689SOL     OW71644   5.446   5.437   2.228 -0.0868 -0.3305 -0.0733
23689SOL    HW171645   5.355   5.418   2.208 -0.2419  0.3351 -0.0371
23689SOL    HW271646   5.492   5.354   2.214 -1.0141 -1.2501  1.9778
23690SOL     OW71647   6.794   5.655   7.625 -0.1858  0.6195 -0.0168
23690SOL    HW171648   6.870   5.660   7.566 -0.0198 -1.8327 -0.1417
23690SOL    HW271649   6.724   5.699   7.577  0.7045  1.3688 -0.6790
23691SOL     OW71650   3.188   7.853   4.669 -0.5289  0.2504  0.2448
23691SOL    HW171651   3.264   7.798   4.687 -0.1104  0.7059 -0.0967
23691SOL    HW271652   3.195   7.874   4.575 -0.9708  0.4432  0.2516
23692SOL     OW71653   9.066   9.689   1.390  0.1668  0.2514  0.0925
23692SOL    HW171654   9.012   9.633   1.446 -1.6961  0.0552 -1.7607
23692SOL    HW271655   9.060   9.775   1.429  0.8565 -0.3036  1.4831
23693SOL     OW71656   9.680   9.602   0.481 -0.5266  0.8972 -0.3280
23693SOL    HW171657   9.770   9.637   0.488 -0.5248  1.1601 -1.4309
23693SOL    HW271658   9.678   9.530   0.543  2.0290 -2.3496 -3.5507
23694SOL     OW71659   4.183   8.375   6.459  0.3160  0.0875 -0.0087
23694SOL    HW171660   4.096   8.380   6.498  0.8002  0.1635  1.0960
23694SOL    HW271661   4.219   8.463   6.469  1.3417 -0.4741  1.5426
23695SOL     OW71662   1.326   8.595   4.725 -0.4434  0.6972  0.0180
23695SOL    HW171663   1.402   8.537   4.720 -1.3395 -0.5126  0.1681
23695SOL    HW271664   1.269   8.566   4.653 -1.5890  0.3777  1.0287
23696SOL     OW71665   8.628   6.222   3.496  0.5826 -0.2783 -0.1345
23696SOL    HW171666   8.652   6.311   3.471 -1.6930  0.1859 -0.9198
23696SOL    HW271667   8.710   6.174   3.496  1.5963  1.3409 -1.7431
23697SOL     OW71668   5.328   4.003   1.350 -0.4295  0.2845 -0.5094
23697SOL    HW171669   5.364   4.072   1.406 -0.5509  0.0151 -0.0944
23697SOL    HW271670   5.386   3.928   1.364 -1.4554 -0.3341  0.5998
23698SOL     OW71671   1.270   9.115   7.563  0.4192 -0.1852  0.4913
23698SOL    HW171672   1.349   9.122   7.509  0.3767 -1.0545  0.3033
23698SOL    HW271673   1.301   9.127   7.652  0.7878 -0.6235  0.4277
23699SOL     OW71674   0.545   0.633   7.930 -0.2580  0.4179  0.2920
23699SOL    HW171675   0.483   0.586   7.986 -1.5709 -1.0922 -2.1967
23699SOL    HW271676   0.516   0.613   7.841  2.2694  1.8663 -0.9820
23700SOL     OW71677   6.710   8.597   4.448 -0.0310 -0.1195  0.4237
23700SOL    HW171678   6.658   8.674   4.472  0.5299  0.6507 -0.7640
23700SOL    HW271679   6.697   8.588   4.354  1.0234 -0.6518  0.3192
23701SOL     OW71680   1.177   9.116   5.252  0.2749 -0.1699  0.4431
23701SOL    HW171681   1.183   9.023   5.273  2.1665  0.1256  1.3791
23701SOL    HW271682   1.142   9.156   5.332 -0.6154 -0.0641  0.0132
23702SOL     OW71683   4.538   7.348   6.364 -0.5266  0.0715 -0.1457
23702SOL    HW171684   4.503   7.373   6.279  0.1052 -1.5927 -0.9259
23702SOL    HW271685   4.632   7.364   6.358 -0.3845 -0.6762 -0.0108
23703SOL     OW71686   4.638   3.851   7.530  0.4369 -0.8246 -0.4763
23703SOL    HW171687   4.610   3.942   7.517 -0.3106 -1.4540 -5.4865
23703SOL    HW271688   4.723   3.845   7.486  1.2492 -2.2543  1.1864
23704SOL     OW71689   1.296   7.996   2.116 -0.3390 -0.1351 -0.3145
23704SOL    HW171690   1.289   8.014   2.210 -1.2496  0.5169 -0.5014
23704SOL    HW271691   1.240   8.061   2.074  0.4831 -0.0704 -1.3557
23705SOL     OW71692   0.125   7.267   9.755 -0.1933 -0.1929  0.2252
23705SOL    HW171693   0.073   7.347   9.751 -2.7501 -1.7700 -0.5526
23705SOL    HW271694   0.070   7.205   9.804  1.4775 -1.6437  0.3605
23706SOL     OW71695   6.456   7.224   5.382  0.0124 -0.2391  0.0148
23706SOL    HW171696   6.395   7.158   5.349 -2.1879  1.7303 -0.0906
23706SOL    HW271697   6.466   7.286   5.310  0.1349  0.7912  0.8961
23707SOL     OW71698   1.941   1.350   3.191  0.5319  0.1320 -0.1960
23707SOL    HW171699   1.904   1.411   3.127  1.4565  1.0533  0.1166
23707SOL    HW271700   1.864   1.316   3.237  0.0140  1.8096  0.2775
23708SOL     OW71701   2.270   0.933   4.420  0.1043  0.3063  0.1274
23708SOL    HW171702   2.193   0.952   4.368 -0.6920  0.8484  1.4456
23708SOL    HW271703   2.275   0.838   4.423 -0.4862  0.2692 -0.0123
23709SOL     OW71704   3.549   5.982   5.696  0.3330  0.0111  0.1119
23709SOL    HW171705   3.621   6.013   5.751 -0.6437  1.0352  0.8714
23709SOL    HW271706   3.554   6.037   5.617  0.7732 -0.3667 -0.1250
23710SOL     OW71707   8.374   2.260   9.241 -0.3192  0.2058 -0.2013
23710SOL    HW171708   8.393   2.249   9.148 -0.2382 -0.9305 -0.0604
23710SOL    HW271709   8.306   2.327   9.244  0.3665  0.9599 -1.0041
23711SOL     OW71710   1.552   6.687   5.388 -0.8314  0.0797 -0.4679
23711SOL    HW171711   1.499   6.671   5.310  0.3209 -2.5407 -0.8261
23711SOL    HW271712   1.512   6.634   5.456 -0.4948  0.5745  0.1308
23712SOL     OW71713   8.474   7.188   5.965  0.1016 -0.0451 -0.1572
23712SOL    HW171714   8.562   7.162   5.937  0.2965  0.6355 -0.1873
23712SOL    HW271715   8.472   7.170   6.059  0.7388  1.1780  0.1109
23713SOL     OW71716   8.158   1.670   7.391 -0.1441 -0.2148 -0.2662
23713SOL    HW171717   8.156   1.766   7.399  0.5827 -0.1226 -1.0918
23713SOL    HW271718   8.113   1.652   7.308  2.0006 -0.3845 -1.4647
23714SOL     OW71719   9.426   8.638   9.524 -0.5166 -0.2386 -0.1674
23714SOL    HW171720   9.367   8.707   9.551  0.7710  0.8926 -0.1289
23714SOL    HW271721   9.463   8.667   9.441 -0.7907 -1.4195 -0.7333
23715SOL     OW71722   6.908   3.827   4.544  0.0673  0.2823 -0.7296
23715SOL    HW171723   6.923   3.895   4.478  0.7344 -0.6673 -1.5892
23715SOL    HW271724   6.899   3.874   4.626  0.1678  1.4275 -1.3572
23716SOL     OW71725   4.705   0.171   4.455 -0.3086 -0.5420 -0.1397
23716SOL    HW171726   4.726   0.078   4.468  0.6666 -0.1561  1.2157
23716SOL    HW271727   4.790   0.211   4.434 -0.4936  0.2709  0.6521
23717SOL     OW71728   8.713   5.909   3.687  0.1010  0.1826  0.7605
23717SOL    HW171729   8.723   5.830   3.634 -2.1980  1.2645 -1.5189
23717SOL    HW271730   8.779   5.969   3.652  1.1639 -0.3232  1.8118
23718SOL     OW71731   3.354   9.345   5.129 -0.3078  0.1018 -0.0643
23718SOL    HW171732   3.440   9.379   5.103 -0.4360 -0.6053 -1.4785
23718SOL    HW271733   3.294   9.419   5.114 -0.4341 -0.3738 -2.2122
23719SOL     OW71734   0.634   1.266   2.856  0.2727  0.1128  0.1282
23719SOL    HW171735   0.627   1.338   2.793  2.8944 -0.2308 -0.6911
23719SOL    HW271736   0.610   1.305   2.940 -2.1293  0.8901 -0.8189
23720SOL     OW71737   7.768   0.820   4.633 -0.5146  0.1216 -0.1155
23720SOL    HW171738   7.729   0.907   4.647  1.7758  1.2692 -0.3353
23720SOL    HW271739   7.835   0.834   4.565 -0.3251 -1.9109 -0.4174
23721SOL     OW71740   2.839   0.902   2.345  0.0878  0.2347  0.0404
23721SOL    HW171741   2.788   0.865   2.418 -0.8672  0.2871 -0.5795
23721SOL    HW271742   2.784   0.887   2.268 -0.0796  2.4200 -0.3221
23722SOL     OW71743   1.564   1.240   8.493 -0.0078 -0.4228 -0.4236
23722SOL    HW171744   1.650   1.211   8.462 -0.4304 -1.6899 -0.4345
23722SOL    HW271745   1.574   1.246   8.588  1.0050  2.5468 -0.6099
23723SOL     OW71746   8.612   4.953   0.849  0.0800 -0.1610 -0.1923
23723SOL    HW171747   8.624   4.859   0.864 -1.3453 -0.2799  0.4317
23723SOL    HW271748   8.578   4.958   0.759  2.4949  0.0002 -1.1552
23724SOL     OW71749   4.464   0.716   2.722 -0.4161  0.2905  0.1464
23724SOL    HW171750   4.447   0.786   2.785 -2.5117  0.6932 -0.7864
23724SOL    HW271751   4.549   0.738   2.685 -0.5507  1.7596  0.6436
23725SOL     OW71752   0.990   3.320   2.618  0.0620  0.4992 -0.5392
23725SOL    HW171753   0.901   3.301   2.589 -0.7150  1.1394  1.2586
23725SOL    HW271754   1.023   3.235   2.649 -0.9835  0.7281  1.3575
23726SOL     OW71755   8.384   2.181   5.330 -0.2026  0.0429  0.0605
23726SOL    HW171756   8.463   2.231   5.308  0.7310 -1.3596  0.1193
23726SOL    HW271757   8.365   2.206   5.420 -0.4029  1.1013 -0.2543
23727SOL     OW71758   7.428   2.461   3.190  0.3139 -0.0756  0.0912
23727SOL    HW171759   7.351   2.477   3.245  1.2406 -0.4808  1.5786
23727SOL    HW271760   7.484   2.537   3.207  0.1154  0.3938 -1.2578
23728SOL     OW71761   9.966   0.679   2.536 -0.9046 -0.6092 -0.4671
23728SOL    HW171762   9.985   0.634   2.619 -2.5154 -0.0075  0.2585
23728SOL    HW271763   9.886   0.728   2.553  1.2415  3.4165 -0.8807
23729SOL     OW71764   5.126   5.576   6.645 -0.5239 -0.4070  0.1887
23729SOL    HW171765   5.076   5.657   6.648 -0.9529 -0.6418 -0.5529
23729SOL    HW271766   5.216   5.603   6.666 -0.3653  0.5062 -1.5167
23730SOL     OW71767   9.334   7.295   9.565  0.1759  0.6805 -0.2570
23730SOL    HW171768   9.266   7.272   9.501 -0.1756  1.4743 -0.1860
23730SOL    HW271769   9.394   7.352   9.517 -1.9414  4.2115  0.9082
23731SOL     OW71770   1.608   1.501   1.045 -0.1663  0.5553 -0.3526
23731SOL    HW171771   1.602   1.537   0.957 -0.7362  1.5955  0.0996
23731SOL    HW271772   1.682   1.440   1.041  0.5865  1.5027 -1.2281
23732SOL     OW71773   1.210   6.616   3.305  0.0985 -0.3746  0.5713
23732SOL    HW171774   1.265   6.540   3.286  1.0779  0.3943  0.1878
23732SOL    HW271775   1.273   6.688   3.318 -0.7882  0.3053  1.2151
23733SOL     OW71776   7.076   0.386   8.363 -0.0387  0.3508 -0.0198
23733SOL    HW171777   7.140   0.328   8.322 -0.0970  0.1451  0.1814
23733SOL    HW271778   7.103   0.474   8.335  0.4634  0.2858  0.2486
23734SOL     OW71779   6.855   9.669   4.450 -0.0056 -0.0448 -0.1759
23734SOL    HW171780   6.790   9.700   4.386  0.1929 -0.6701 -0.6873
23734SOL    HW271781   6.822   9.700   4.534 -0.6542  0.1623 -0.4980
23735SOL     OW71782   9.018   4.552   2.735  0.0267 -0.5531 -0.2147
23735SOL    HW171783   8.993   4.518   2.821  0.5517  1.3028  0.7253
23735SOL    HW271784   8.961   4.627   2.721  0.7513 -0.1196 -0.9260
23736SOL     OW71785   1.481   1.777   8.042 -0.8881  0.2759 -0.6145
23736SOL    HW171786   1.465   1.868   8.019 -1.3668  0.1784 -0.6812
23736SOL    HW271787   1.404   1.751   8.093 -0.1469  0.2995  0.5693
23737SOL     OW71788   7.618   3.005   0.273  0.8637  0.6340 -0.3573
23737SOL    HW171789   7.710   3.001   0.298  0.5974 -0.7393  0.4713
23737SOL    HW271790   7.617   2.975   0.182  1.1070 -0.6282  0.0346
23738SOL     OW71791   2.506   4.703   3.245 -0.2908  0.1298 -0.0970
23738SOL    HW171792   2.600   4.714   3.252 -0.2696  0.0529 -0.2565
23738SOL    HW271793   2.483   4.742   3.161 -0.3366 -0.2642 -0.2693
23739SOL     OW71794   5.731   0.062   9.071 -0.4843 -0.6043  0.3623
23739SOL    HW171795   5.731   0.102   9.158  2.4630  0.9566 -0.2279
23739SOL    HW271796   5.741  -0.032   9.088 -0.9566 -0.4440  1.6787
23740SOL     OW71797   2.682   9.027   3.768 -0.0479 -0.3814 -0.4120
23740SOL    HW171798   2.708   8.992   3.853 -0.8115 -0.0329 -0.0193
23740SOL    HW271799   2.589   9.004   3.761  0.1721 -0.9689 -1.4391
23741SOL     OW71800   3.401   5.839   5.259 -0.3814  0.2503  0.3528
23741SOL    HW171801   3.377   5.758   5.212  0.8556  0.2891 -0.3723
23741SOL    HW271802   3.428   5.809   5.345  0.6781 -0.1936 -0.1210
23742SOL     OW71803   2.532   0.154   2.464  0.0523 -0.7707 -0.0168
23742SOL    HW171804   2.594   0.103   2.412 -1.1746 -0.8110 -1.5257
23742SOL    HW271805   2.494   0.216   2.402 -1.2877 -0.6373  0.8869
23743SOL     OW71806   6.509   6.005   6.376  0.3671  0.0092  0.0288
23743SOL    HW171807   6.531   5.922   6.418  0.0484 -0.7248 -1.1928
23743SOL    HW271808   6.553   6.072   6.429  1.5573 -1.0290  0.3971
23744SOL     OW71809   9.357   7.645   3.232  0.4716 -0.4804 -0.2900
23744SOL    HW171810   9.356   7.588   3.155  0.4967 -1.6209  0.5299
23744SOL    HW271811   9.271   7.688   3.230 -0.7190 -2.6490  0.5536
23745SOL     OW71812   9.870   2.951   0.855  0.2165 -0.0291  0.2203
23745SOL    HW171813   9.871   2.862   0.891  0.4932  0.1457  0.6518
23745SOL    HW271814   9.945   2.954   0.796 -0.3840 -0.3956 -0.5865
23746SOL     OW71815   3.560   7.623   4.313 -0.1851  0.4334  0.2065
23746SOL    HW171816   3.646   7.595   4.280 -0.8063 -0.5095 -0.6610
23746SOL    HW271817   3.577   7.708   4.353  0.7607  1.4517 -2.1385
23747SOL     OW71818   1.902   5.424   1.653 -0.1277 -0.4359 -0.3099
23747SOL    HW171819   1.925   5.515   1.670 -1.1279  0.2393 -2.2998
23747SOL    HW271820   1.901   5.383   1.740 -1.1644  1.8010  0.8144
23748SOL     OW71821   8.974   6.879   8.250  0.3192  0.0135 -0.1646
23748SOL    HW171822   8.962   6.972   8.235 -2.4194 -0.1752  0.4199
23748SOL    HW271823   8.900   6.853   8.305  0.4031 -2.7197 -1.1593
23749SOL     OW71824   6.292   0.140   8.013 -0.4432 -0.6028  0.6289
23749SOL    HW171825   6.327   0.076   8.076  0.0473 -0.7466  0.2135
23749SOL    HW271826   6.222   0.184   8.061  1.2213  0.6919  1.9953
23750SOL     OW71827   5.549   0.081   8.392  0.6984 -0.1208  0.1111
23750SOL    HW171828   5.622   0.143   8.388  1.4283 -0.8861  1.0187
23750SOL    HW271829   5.552   0.034   8.309 -0.8375  2.0636 -1.2885
23751SOL     OW71830   9.828   1.536   1.959  0.3093  0.2310 -0.5797
23751SOL    HW171831   9.890   1.520   2.030  0.8536 -1.6989 -1.4278
23751SOL    HW271832   9.748   1.564   2.003  0.9799  0.1829  0.7126
23752SOL     OW71833   3.159   5.286   3.002 -0.0861 -0.5152 -0.4402
23752SOL    HW171834   3.092   5.351   2.981 -0.6805 -0.7545  0.6283
23752SOL    HW271835   3.134   5.254   3.089  1.9595  0.1008  0.4482
23753SOL     OW71836   9.745   6.278   1.901  0.1188  0.0415 -0.5016
23753SOL    HW171837   9.793   6.361   1.904  1.1697 -0.5670  0.0424
23753SOL    HW271838   9.768   6.235   1.984 -1.4044 -0.2579 -0.2144
23754SOL     OW71839   1.294   3.717   9.843 -0.3181 -0.3384  0.5238
23754SOL    HW171840   1.369   3.758   9.886 -0.4483  1.4189 -0.7907
23754SOL    HW271841   1.234   3.696   9.915  0.8421 -0.5087  1.4634
23755SOL     OW71842   1.833   9.460   2.024 -0.2144  0.7225  0.1919
23755SOL    HW171843   1.830   9.530   2.090 -0.7264  1.3544 -0.4795
23755SOL    HW271844   1.747   9.419   2.030  0.3191 -0.2932  1.0403
23756SOL     OW71845   3.778   9.550   2.899 -0.0744  0.0491 -0.1070
23756SOL    HW171846   3.777   9.636   2.857 -0.0214  0.1486  0.0954
23756SOL    HW271847   3.870   9.533   2.917 -0.1054  0.0449  0.0491
23757SOL     OW71848   9.776   8.954   9.549  0.0094  0.1226 -0.2848
23757SOL    HW171849   9.719   8.884   9.582  0.3924  0.1002  0.3594
23757SOL    HW271850   9.746   8.969   9.459 -2.4080  1.5635  0.6559
23758SOL     OW71851   1.518   4.023   7.963  0.4992 -0.4289  0.4869
23758SOL    HW171852   1.438   4.059   8.001 -0.7817 -0.4209 -2.0136
23758SOL    HW271853   1.584   4.090   7.979 -0.5374  0.5967  0.5976
23759SOL     OW71854   1.439   0.760   9.672 -0.0002  0.0403  0.3741
23759SOL    HW171855   1.390   0.790   9.596 -0.7943 -0.5826  0.6342
23759SOL    HW271856   1.440   0.665   9.665  0.5919  0.0096  0.7415
23760SOL     OW71857   9.082   0.788   4.923 -0.1228  0.0721 -0.1358
23760SOL    HW171858   9.035   0.823   4.848 -1.2923 -0.2469  0.4237
23760SOL    HW271859   9.042   0.831   4.999 -0.1524 -0.9064  0.4226
23761SOL     OW71860   1.095   7.823   5.618 -0.0297  0.0741 -0.7773
23761SOL    HW171861   1.022   7.778   5.659  1.5720 -0.7881  1.3233
23761SOL    HW271862   1.066   7.914   5.610 -0.8450  0.0462  1.3248
23762SOL     OW71863   7.439   1.752   1.417  0.0229  0.1554  0.1931
23762SOL    HW171864   7.517   1.712   1.456 -0.3811 -0.7920  0.0524
23762SOL    HW271865   7.366   1.704   1.455 -0.5868  1.8511  1.2711
23763SOL     OW71866   2.933   8.164   2.271 -0.1089 -0.2019 -0.2536
23763SOL    HW171867   2.894   8.207   2.347 -0.6506 -0.1726 -0.5408
23763SOL    HW271868   2.886   8.201   2.196  0.2466 -0.4161 -0.5836
23764SOL     OW71869   9.197   7.785   5.744 -0.0247  0.0132 -0.1804
23764SOL    HW171870   9.128   7.836   5.788 -1.1865 -2.3575  0.9249
23764SOL    HW271871   9.238   7.734   5.814  1.7750  0.1340 -1.0931
23765SOL     OW71872   2.573   0.426   9.519  0.7453 -0.3312 -0.1870
23765SOL    HW171873   2.492   0.378   9.536 -0.3649  1.1094 -1.2154
23765SOL    HW271874   2.599   0.458   9.606  0.8561 -1.7356  0.3267
23766SOL     OW71875   5.373   0.650   2.939 -0.0054  0.3721  0.4294
23766SOL    HW171876   5.430   0.650   3.016 -0.7642  1.0533  1.0168
23766SOL    HW271877   5.286   0.674   2.974 -0.3503  0.7389 -0.6435
23767SOL     OW71878   6.029   0.628   5.336  0.4793  0.0508 -0.1722
23767SOL    HW171879   6.103   0.601   5.281 -0.6977 -0.2602 -1.6844
23767SOL    HW271880   6.062   0.701   5.388  1.5748  0.5659 -1.5335
23768SOL     OW71881   1.190   8.910   2.987  0.0351 -0.0638  0.4544
23768SOL    HW171882   1.149   8.862   2.914  1.7101 -2.2112  0.8159
23768SOL    HW271883   1.250   8.847   3.026 -0.9583  0.8959  3.9012
23769SOL     OW71884   7.907   4.565   5.784 -0.3618 -0.2274 -0.4824
23769SOL    HW171885   7.916   4.588   5.692 -2.1553  0.0058 -0.6269
23769SOL    HW271886   7.892   4.649   5.828 -1.1387 -0.5024 -0.2132
23770SOL     OW71887   5.032   0.870   0.913 -0.3090 -0.2936  0.3427
23770SOL    HW171888   5.012   0.812   0.839 -1.2755 -0.1118  0.4526
23770SOL    HW271889   5.084   0.940   0.874 -1.8382  0.4485 -0.4261
23771SOL     OW71890   1.860   7.241   8.926 -0.0505 -0.5706  0.0964
23771SOL    HW171891   1.948   7.233   8.962 -1.1887  0.5154  3.5157
23771SOL    HW271892   1.814   7.164   8.958 -0.4415 -1.0639 -1.5548
23772SOL     OW71893   1.582   4.489   6.102 -0.0157 -0.2206 -0.1390
23772SOL    HW171894   1.612   4.441   6.179 -1.2341 -2.2607 -0.8318
23772SOL    HW271895   1.493   4.457   6.088 -0.4033  1.3061 -1.4645
23773SOL     OW71896   8.230   4.742   0.570 -0.3804  0.5298  0.4582
23773SOL    HW171897   8.176   4.663   0.575  1.3813 -0.7566  0.1332
23773SOL    HW271898   8.316   4.710   0.541 -0.3417  2.8830 -2.5433
23774SOL     OW71899   9.806   6.118   2.696  0.0900  0.9229  0.0112
23774SOL    HW171900   9.804   6.113   2.792 -0.7943  1.0117  0.0104
23774SOL    HW271901   9.893   6.151   2.676  0.7977 -0.4566  0.7079
23775SOL     OW71902   4.953   4.236   5.322  0.0384  1.0355  0.0200
23775SOL    HW171903   4.965   4.185   5.242 -0.3632  1.8562 -0.5737
23775SOL    HW271904   5.041   4.243   5.360 -0.0448 -1.0721  0.7473
23776SOL     OW71905   9.658   8.786   7.348 -0.5640  0.6333  0.5577
23776SOL    HW171906   9.743   8.820   7.318 -0.6312  2.0510  1.8401
23776SOL    HW271907   9.680   8.713   7.406 -0.3806 -1.0498 -1.5203
23777SOL     OW71908   4.564   9.675   7.644 -0.4420 -0.0702 -0.5468
23777SOL    HW171909   4.601   9.725   7.570 -0.3535 -0.1086 -0.5278
23777SOL    HW271910   4.621   9.696   7.717 -0.7501  0.2644 -0.3976
23778SOL     OW71911   5.149   3.050   7.673  0.5060 -0.6272  0.2237
23778SOL    HW171912   5.066   3.095   7.688  0.2731 -0.9837  0.0247
23778SOL    HW271913   5.124   2.962   7.645  0.8805 -2.2210  4.2434
23779SOL     OW71914   2.617   7.414   9.624  0.0380  0.1443 -0.1341
23779SOL    HW171915   2.651   7.490   9.671 -0.3793  0.5701 -0.4977
23779SOL    HW271916   2.579   7.451   9.544  0.6348 -0.5498 -0.7477
23780SOL     OW71917   8.644   4.296   9.306 -0.3178 -0.2026 -0.2444
23780SOL    HW171918   8.654   4.391   9.315 -1.5968 -0.2025  2.1034
23780SOL    HW271919   8.591   4.270   9.382 -1.1217 -2.6312 -1.5100
23781SOL     OW71920   5.187   2.140   7.877  0.3645  0.5454  0.2871
23781SOL    HW171921   5.282   2.149   7.867  0.6428 -1.7116  0.3966
23781SOL    HW271922   5.175   2.049   7.902 -1.8438  0.8391  0.4119
23782SOL     OW71923   2.175   0.715   6.838  0.3920  0.1185 -0.2102
23782SOL    HW171924   2.210   0.703   6.926  2.5551  0.7572 -0.9282
23782SOL    HW271925   2.110   0.645   6.828 -0.0837  0.1899  1.9378
23783SOL     OW71926   4.098   5.405   8.925  0.4663 -0.3129  0.1386
23783SOL    HW171927   4.022   5.413   8.867  2.4373 -0.0851 -2.6046
23783SOL    HW271928   4.083   5.323   8.973 -1.4972 -0.2282 -0.2423
23784SOL     OW71929   0.847   9.726   8.860  0.4864 -0.0910 -0.3501
23784SOL    HW171930   0.886   9.813   8.871  0.8461 -0.2087 -0.7105
23784SOL    HW271931   0.792   9.734   8.782  0.4985 -0.1785 -0.3676
23785SOL     OW71932   0.065   5.622   7.315  0.0938 -0.5680  0.2122
23785SOL    HW171933   0.001   5.678   7.271 -1.5714 -1.4542  1.3816
23785SOL    HW271934   0.106   5.572   7.244 -0.5244  0.0089 -0.5711
23786SOL     OW71935   8.402   6.100   7.856 -0.4296 -0.1522 -0.1782
23786SOL    HW171936   8.377   6.010   7.876 -1.4347  0.2324  0.3457
23786SOL    HW271937   8.323   6.152   7.872  0.7699  1.1849  1.9896
23787SOL     OW71938   3.583   3.093   1.352  0.1757  0.3545  0.9186
23787SOL    HW171939   3.507   3.049   1.391  0.7185 -0.6726  0.8455
23787SOL    HW271940   3.598   3.170   1.407 -0.3912  0.1022  1.4319
23788SOL     OW71941   4.942   3.893   8.000 -0.5693  0.3916  0.1396
23788SOL    HW171942   4.900   3.810   7.979 -1.6408  0.8455  0.4401
23788SOL    HW271943   4.881   3.960   7.970  0.1958  1.0794  0.0752
23789SOL     OW71944   3.870   6.278   2.704  0.3255 -0.3533 -0.5177
23789SOL    HW171945   3.891   6.184   2.702  1.6588 -0.0695 -0.7960
23789SOL    HW271946   3.775   6.281   2.710  0.3107 -1.7355  0.4429
23790SOL     OW71947   0.803   2.149   1.697  0.5086 -0.3607  0.1924
23790SOL    HW171948   0.750   2.126   1.773 -0.0813 -0.0424 -0.1100
23790SOL    HW271949   0.752   2.217   1.652  0.9533 -0.3844 -0.3623
23791SOL     OW71950   1.082   1.153   5.719  0.4051  0.1616  0.1356
23791SOL    HW171951   1.087   1.091   5.792  1.9600 -0.8367 -0.7527
23791SOL    HW271952   1.111   1.236   5.756 -1.3347  0.3048  1.2557
23792SOL     OW71953   2.981   9.198   0.475 -0.5020 -0.0289  0.0076
23792SOL    HW171954   3.030   9.220   0.554 -0.4660 -0.4165  0.0951
23792SOL    HW271955   3.046   9.198   0.405 -0.2136 -1.3698  0.2612
23793SOL     OW71956   6.377   9.091   9.733 -0.6183  0.0237 -0.5434
23793SOL    HW171957   6.428   9.026   9.782 -0.1123  1.4120  0.8426
23793SOL    HW271958   6.288   9.056   9.734 -0.1306 -1.2805 -0.9618
23794SOL     OW71959   3.080   5.218   9.807 -0.1128  0.0136 -0.0840
23794SOL    HW171960   3.023   5.294   9.794  1.9428  1.5140 -0.7956
23794SOL    HW271961   3.168   5.254   9.812  0.7840 -2.1548  1.6258
23795SOL     OW71962   2.264   4.881   4.390 -0.2871 -0.3881 -0.2256
23795SOL    HW171963   2.168   4.874   4.388 -0.4017  0.7228  0.2782
23795SOL    HW271964   2.295   4.791   4.382 -1.4320 -1.0826  2.0586
23796SOL     OW71965   6.478   8.440   0.472 -0.1634  0.3294 -0.0814
23796SOL    HW171966   6.389   8.409   0.488  1.2327 -3.6306  1.1148
23796SOL    HW271967   6.483   8.453   0.377 -2.3788  2.4324 -0.0135
23797SOL     OW71968   2.253   4.113   2.366  0.2425 -0.0569 -0.1278
23797SOL    HW171969   2.307   4.115   2.445  0.4319  0.1769 -0.2578
23797SOL    HW271970   2.190   4.044   2.381  0.9985 -0.7909 -0.2373
23798SOL     OW71971   8.268   7.808   7.111  0.0743  0.0375  0.1347
23798SOL    HW171972   8.230   7.836   7.028 -0.1344 -0.3303  0.1010
23798SOL    HW271973   8.192   7.794   7.168  0.2134  0.2194  0.3629
23799SOL     OW71974   9.039   3.661   0.753 -0.5325  0.0450 -0.2285
23799SOL    HW171975   8.975   3.617   0.809  0.0323 -0.0360  0.3520
23799SOL    HW271976   9.046   3.604   0.676  0.1112 -0.8380  0.4646
23800SOL     OW71977   5.778   7.973   5.075  0.4054  0.1467  0.3608
23800SOL    HW171978   5.768   7.880   5.053  2.1495 -0.1501  0.6541
23800SOL    HW271979   5.873   7.988   5.074  0.1331  2.7535 -2.9798
23801SOL     OW71980   8.867   2.484   6.182  0.2122  0.2703  0.5303
23801SOL    HW171981   8.810   2.515   6.253 -0.4799  0.5606 -0.1395
23801SOL    HW271982   8.856   2.389   6.181 -0.1810  0.3159  0.4760
23802SOL     OW71983   6.962   2.120   9.186  0.3469  0.0136 -0.4177
23802SOL    HW171984   6.985   2.203   9.143 -1.1885  0.3177 -0.7103
23802SOL    HW271985   7.034   2.061   9.164 -0.2771  0.1979 -3.3278
23803SOL     OW71986   6.432   5.565   9.538 -0.2651 -0.0362 -0.0264
23803SOL    HW171987   6.474   5.509   9.605  0.1490 -0.9836 -1.0474
23803SOL    HW271988   6.486   5.644   9.536  1.0534 -0.9166 -0.7638
23804SOL     OW71989   7.458   0.958   9.792 -0.1132 -0.8532 -0.3471
23804SOL    HW171990   7.506   0.908   9.727  0.8975 -0.9839  0.4678
23804SOL    HW271991   7.372   0.916   9.798 -0.5882 -0.2614 -2.2511
23805SOL     OW71992   1.257   8.942   2.572 -0.5493 -0.4207  0.2531
23805SOL    HW171993   1.272   9.022   2.621  0.1264 -0.7503  0.5990
23805SOL    HW271994   1.298   8.873   2.625  1.2549 -0.6351 -1.2872
23806SOL     OW71995   3.019   4.630   7.329  0.1460 -0.6008 -0.1210
23806SOL    HW171996   3.113   4.624   7.347  0.5450  0.7279 -1.5083
23806SOL    HW271997   3.000   4.555   7.272  0.6885 -0.1459 -0.9297
23807SOL     OW71998   5.117   5.395   1.271  0.3987 -0.2140 -0.8709
23807SOL    HW171999   5.115   5.299   1.275 -2.5013 -0.2166 -0.2687
23807SOL    HW272000   5.035   5.419   1.228 -0.7970  2.0500  2.2739
23808SOL     OW72001   9.025   3.856   6.735  0.1072 -0.1082 -0.1109
23808SOL    HW172002   8.944   3.906   6.733  0.0687 -0.1564  0.2942
23808SOL    HW272003   9.074   3.887   6.658 -0.4568 -0.3640 -0.5818
23809SOL     OW72004   3.394   9.014   6.936 -0.4088  0.0825 -0.6628
23809SOL    HW172005   3.334   8.957   6.888 -1.4111 -1.9719  2.6790
23809SOL    HW272006   3.426   8.959   7.008  1.4412  2.7260  0.6780
23810SOL     OW72007   8.227   1.929   7.401  0.5634 -0.1948  0.0399
23810SOL    HW172008   8.191   1.974   7.477  2.8213  1.0448  0.4888
23810SOL    HW272009   8.266   1.999   7.349 -0.2318 -1.1171 -1.8732
23811SOL     OW72010   7.333   4.261   6.182  0.4046  0.1652  0.3549
23811SOL    HW172011   7.349   4.191   6.118  0.8723 -2.0277  2.7240
23811SOL    HW272012   7.264   4.227   6.239 -1.2706  2.7985  0.0648
23812SOL     OW72013   0.661   6.009   3.885 -0.5177  0.3974  0.6315
23812SOL    HW172014   0.706   6.058   3.953 -0.1493 -0.7126  1.2110
23812SOL    HW272015   0.623   5.934   3.931 -1.5283  0.4114 -0.1380
23813SOL     OW72016   7.485   8.985   7.309  0.1235  0.4068 -0.1324
23813SOL    HW172017   7.397   8.948   7.308  0.5550 -0.8144  1.8697
23813SOL    HW272018   7.534   8.934   7.246 -0.2683  0.1687 -0.2450
23814SOL     OW72019   2.105   8.439   1.391 -0.0252 -0.4293  0.2239
23814SOL    HW172020   2.097   8.530   1.419  0.2374 -1.0475  2.5453
23814SOL    HW272021   2.059   8.436   1.307 -0.0742  1.8155  0.0994
23815SOL     OW72022   7.162   3.577   6.029  0.2243 -0.2908 -0.2999
23815SOL    HW172023   7.236   3.523   6.058  1.1436  0.6412 -0.8240
23815SOL    HW272024   7.085   3.521   6.040  0.8963 -0.9782  1.0896
23816SOL     OW72025   2.438   7.692   7.503 -0.0061  0.1579  0.3505
23816SOL    HW172026   2.417   7.655   7.417 -1.4270  0.5674  0.4880
23816SOL    HW272027   2.533   7.686   7.510  0.0107 -1.0798 -0.7019
23817SOL     OW72028   6.903   4.164   7.977  0.0104 -0.2767 -0.0348
23817SOL    HW172029   6.881   4.177   8.069 -1.1308  0.5337 -0.4152
23817SOL    HW272030   6.972   4.097   7.979  2.0290  1.7261  1.5775
23818SOL     OW72031   9.170   5.178   6.282 -0.0641  0.0697 -0.1530
23818SOL    HW172032   9.154   5.126   6.361  0.4772 -0.3283 -0.2970
23818SOL    HW272033   9.090   5.169   6.231 -0.3738  0.2399  0.3003
23819SOL     OW72034   3.210   7.765   7.826 -0.8252  0.6640  0.0331
23819SOL    HW172035   3.124   7.761   7.867 -0.7500 -3.5731  0.2755
23819SOL    HW272036   3.203   7.708   7.749  2.2051 -1.9402  1.4264
23820SOL     OW72037   8.337   8.507   6.859 -0.4541 -0.6039  0.4285
23820SOL    HW172038   8.410   8.550   6.905 -0.3409  0.0832 -0.3604
23820SOL    HW272039   8.308   8.438   6.919  1.0817 -1.1371  0.6236
23821SOL     OW72040   9.426   6.936   4.910  0.2319  0.3067 -0.3157
23821SOL    HW172041   9.452   6.859   4.960  0.9534 -0.0388 -1.1875
23821SOL    HW272042   9.402   6.902   4.824 -1.0953  0.8738 -0.1896
23822SOL     OW72043   4.663   0.943   0.880  0.2465 -0.2246  0.1294
23822SOL    HW172044   4.698   0.882   0.815  0.3312  0.7602 -0.7824
23822SOL    HW272045   4.700   0.914   0.963  1.8442 -0.2616 -0.5543
23823SOL     OW72046   0.428   6.884   2.929 -0.1523  0.4275 -0.0855
23823SOL    HW172047   0.460   6.912   2.843  0.3434  0.2911  0.0532
23823SOL    HW272048   0.481   6.807   2.950  0.2007  0.8792  0.6656
23824SOL     OW72049   1.683   9.850   2.595 -0.3791 -0.3659 -0.1978
23824SOL    HW172050   1.775   9.823   2.595 -0.6567 -1.3839 -0.6213
23824SOL    HW272051   1.677   9.916   2.664  0.8195  0.2678 -0.6778
23825SOL     OW72052   6.927   9.047   8.349 -0.6341  0.0661 -0.5292
23825SOL    HW172053   6.989   8.988   8.309 -1.7395 -0.5126 -1.4520
23825SOL    HW272054   6.966   9.134   8.339  0.2348 -0.3317 -0.6427
23826SOL     OW72055   7.666   9.726   1.888  0.2083  0.5356 -0.1811
23826SOL    HW172056   7.654   9.710   1.795 -1.4839 -1.1765  0.2720
23826SOL    HW272057   7.621   9.653   1.931 -1.9960  2.9826  2.0084
23827SOL     OW72058   1.507   0.338   2.665  0.1283  0.1369  0.5082
23827SOL    HW172059   1.563   0.346   2.587  0.2985 -2.0054  0.3522
23827SOL    HW272060   1.467   0.425   2.675  0.5465  0.6332 -1.6271
23828SOL     OW72061   7.833   0.553   5.084 -0.2395 -0.2302 -0.1844
23828SOL    HW172062   7.804   0.643   5.070 -0.2143  0.1668  2.0445
23828SOL    HW272063   7.927   0.554   5.061 -0.0041  0.5597  0.7816
23829SOL     OW72064   7.993   9.429   8.177 -0.0393 -0.1022 -0.2609
23829SOL    HW172065   8.028   9.513   8.205  1.3540 -0.7058 -0.1082
23829SOL    HW272066   8.019   9.421   8.085  0.7155 -0.7852 -0.0038
23830SOL     OW72067   8.632   5.784   8.350 -0.5367 -0.6224 -0.4661
23830SOL    HW172068   8.589   5.701   8.372 -1.1199 -0.8776 -2.4188
23830SOL    HW272069   8.636   5.785   8.255  1.3711  0.6610 -0.4299
23831SOL     OW72070   5.366   4.326   1.732  0.0669 -0.0126 -0.8828
23831SOL    HW172071   5.454   4.291   1.746 -0.7226 -1.8975 -0.2774
23831SOL    HW272072   5.354   4.391   1.801  1.3372  1.0069 -1.6024
23832SOL     OW72073   6.060   1.726   0.781  0.2121  0.7458  0.2224
23832SOL    HW172074   5.988   1.735   0.844 -0.8392 -0.7757 -0.6682
23832SOL    HW272075   6.112   1.653   0.815  0.8905  1.3339  0.4531
23833SOL     OW72076   3.194   4.998   3.450  0.4310 -0.2706 -0.0279
23833SOL    HW172077   3.182   4.905   3.468  0.5087 -0.2908 -0.0781
23833SOL    HW272078   3.180   5.042   3.534  1.5589 -0.4236  0.2549
23834SOL     OW72079   5.643   4.236   1.741 -0.2331  0.5578  0.3545
23834SOL    HW172080   5.686   4.155   1.715  0.1343  0.3739  1.5111
23834SOL    HW272081   5.676   4.301   1.679  0.5871  0.1161  0.3175
23835SOL     OW72082   2.987   5.593   7.468 -1.0026  0.2895  0.4232
23835SOL    HW172083   2.956   5.624   7.384 -0.0043  0.4750  0.1104
23835SOL    HW272084   2.940   5.646   7.533 -1.7096  0.1974 -0.0067
23836SOL     OW72085   2.113   6.215   2.009 -0.4874  0.1027 -0.0671
23836SOL    HW172086   2.084   6.125   1.995  0.7155 -0.2098 -0.6440
23836SOL    HW272087   2.104   6.257   1.923  1.2098 -0.1548 -0.4117
23837SOL     OW72088   4.058   4.972   8.877  0.1017  0.6991 -0.2051
23837SOL    HW172089   3.988   4.907   8.880  0.3382  0.3964 -1.1013
23837SOL    HW272090   4.036   5.028   8.802  1.0982  0.2791 -0.8222
23838SOL     OW72091   9.178   6.980   6.041 -0.1061 -0.2536 -0.1092
23838SOL    HW172092   9.139   6.902   6.080 -1.5909  0.2733 -0.4732
23838SOL    HW272093   9.247   7.006   6.102 -1.4847 -0.2178  1.4844
23839SOL     OW72094   8.817   4.505   9.784 -0.1987  0.0547  0.0840
23839SOL    HW172095   8.826   4.423   9.834  1.1564  0.1963  0.1192
23839SOL    HW272096   8.898   4.511   9.734 -0.0031  1.6769  0.5359
23840SOL     OW72097   7.847   0.715   0.678 -0.1289 -0.3883 -0.5685
23840SOL    HW172098   7.759   0.679   0.687 -0.0164 -1.0996 -2.0170
23840SOL    HW272099   7.879   0.726   0.768 -1.2999 -1.0901 -0.0607
23841SOL     OW72100   1.983   4.398   9.101  0.1203 -0.2836  0.3121
23841SOL    HW172101   1.890   4.409   9.082  0.1069 -1.0241 -0.1262
23841SOL    HW272102   1.987   4.375   9.194 -0.2261 -1.1436  0.1275
23842SOL     OW72103   7.130   7.255   1.182  0.1085 -0.2110  0.5029
23842SOL    HW172104   7.055   7.313   1.172 -0.8108 -1.2735  0.9538
23842SOL    HW272105   7.180   7.293   1.254  0.4859  0.9905 -0.3772
23843SOL     OW72106   7.894   0.583   3.225 -0.1632 -0.6395  0.0171
23843SOL    HW172107   7.946   0.612   3.300 -0.5172 -2.1361  0.8798
23843SOL    HW272108   7.837   0.515   3.261 -0.1476 -1.5916 -1.6748
23844SOL     OW72109   2.252   2.340   6.646  0.2665  0.3608 -0.6916
23844SOL    HW172110   2.221   2.299   6.727 -0.1889  0.9661 -0.5482
23844SOL    HW272111   2.346   2.322   6.645  0.6718  2.0039  0.9982
23845SOL     OW72112   5.885   9.615   2.532  0.3636 -0.2977 -0.4365
23845SOL    HW172113   5.955   9.641   2.472  0.4219 -0.7621 -0.5703
23845SOL    HW272114   5.908   9.526   2.558  0.3680 -0.0878  0.3149
23846SOL     OW72115   0.669   1.210   9.306  0.3303 -0.0179 -0.4654
23846SOL    HW172116   0.700   1.127   9.269  1.2557 -0.1745  0.6051
23846SOL    HW272117   0.711   1.215   9.391 -1.1045  0.7300  0.2308
23847SOL     OW72118   0.157   1.107   3.595  0.5671  0.5524  0.2941
23847SOL    HW172119   0.084   1.113   3.656 -0.5624  0.9932 -1.0232
23847SOL    HW272120   0.173   1.198   3.568  1.1004  0.3767  0.0070
23848SOL     OW72121   3.371   3.575   5.377 -0.2635  0.0799  0.0489
23848SOL    HW172122   3.317   3.631   5.321  1.1900 -1.6978 -3.4770
23848SOL    HW272123   3.330   3.489   5.372  1.3335 -0.6981 -0.5095
23849SOL     OW72124   6.653   8.640   1.425  0.0065 -0.3244 -0.2508
23849SOL    HW172125   6.662   8.651   1.519  0.2097 -1.1541 -0.1591
23849SOL    HW272126   6.703   8.560   1.406  1.1324  0.5747 -1.2606
23850SOL     OW72127   9.255   2.071   0.281  0.0349 -0.2147 -0.0130
23850SOL    HW172128   9.336   2.062   0.231  0.9634 -0.4762  1.4864
23850SOL    HW272129   9.218   2.154   0.251  0.5532 -0.3611 -1.1165
23851SOL     OW72130   7.253   0.401   0.618  0.0384  0.0706  0.3511
23851SOL    HW172131   7.192   0.331   0.593 -0.5851  0.6842  0.1383
23851SOL    HW272132   7.320   0.356   0.670  0.3464 -0.9189 -0.8427
23852SOL     OW72133   3.113   1.497   1.284 -0.3899  0.2415  0.5525
23852SOL    HW172134   3.033   1.447   1.269  0.2559 -0.3356 -1.1478
23852SOL    HW272135   3.107   1.524   1.376 -2.1211 -0.4950  0.6942
23853SOL     OW72136   5.304   6.746   3.450  0.1042 -0.0169 -0.4292
23853SOL    HW172137   5.264   6.816   3.502  1.3092  0.3589  0.0107
23853SOL    HW272138   5.277   6.665   3.494  0.6174  0.2729  0.4516
23854SOL     OW72139   6.692   3.148   8.532 -0.6523  0.4335  0.0014
23854SOL    HW172140   6.636   3.071   8.540 -0.1705  0.0395 -0.3384
23854SOL    HW272141   6.776   3.120   8.569 -0.5381  0.8659  0.0683
23855SOL     OW72142   0.126   0.803   9.783 -0.0336  0.1218 -0.6689
23855SOL    HW172143   0.153   0.762   9.701  0.7241 -2.4180  0.7494
23855SOL    HW272144   0.185   0.878   9.793  0.9416 -0.4848 -1.6712
23856SOL     OW72145   6.975   3.760   4.870 -0.1647 -0.3557 -0.4702
23856SOL    HW172146   7.015   3.710   4.799  1.5984 -3.7044  2.5225
23856SOL    HW272147   7.047   3.809   4.909 -0.6664 -0.0911  0.1509
23857SOL     OW72148   1.575   6.009   1.648  0.2901  0.3539  0.3142
23857SOL    HW172149   1.517   6.051   1.585 -0.1504 -0.1980  0.3411
23857SOL    HW272150   1.628   5.948   1.596  0.6591  0.6567  0.3299
23858SOL     OW72151   0.304   6.247   2.890  0.5067 -0.1410 -0.4775
23858SOL    HW172152   0.275   6.170   2.939 -1.5007  1.7129  1.5112
23858SOL    HW272153   0.229   6.306   2.893  0.6176  0.5876 -5.0326
23859SOL     OW72154   7.426   5.866   9.211  0.1100 -0.1435 -0.4208
23859SOL    HW172155   7.509   5.821   9.222  0.9613  0.8262 -2.2765
23859SOL    HW272156   7.445   5.958   9.232 -0.9381 -0.1704  0.7728
23860SOL     OW72157   3.800   1.239   6.440 -0.5115 -0.1677  0.2732
23860SOL    HW172158   3.842   1.159   6.410  2.1144  0.4853  1.8476
23860SOL    HW272159   3.780   1.223   6.532  0.7611  1.1923  0.8225
23861SOL     OW72160   3.916   2.529   4.607 -0.5117  0.6483 -0.1164
23861SOL    HW172161   3.863   2.536   4.528  0.6925 -1.2320 -1.1671
23861SOL    HW272162   3.934   2.436   4.615  1.8302  1.1162  0.7133
23862SOL     OW72163   8.675   2.516   3.600 -0.0423 -0.3874  0.5029
23862SOL    HW172164   8.730   2.537   3.524 -1.3643 -0.7490 -0.5882
23862SOL    HW272165   8.689   2.422   3.614 -0.3879 -0.4874  0.2020
23863SOL     OW72166   2.707   1.481   5.146 -0.2117  0.1501  0.2504
23863SOL    HW172167   2.753   1.554   5.188  0.8159  0.5036 -1.4059
23863SOL    HW272168   2.621   1.516   5.124 -0.0084  0.6094  0.1780
23864SOL     OW72169   3.450   5.575   4.775  0.0907 -0.7428  0.5143
23864SOL    HW172170   3.532   5.561   4.820  0.4169  1.4460  0.7087
23864SOL    HW272171   3.465   5.652   4.720 -1.3583 -1.2244 -0.6432
23865SOL     OW72172   3.418   2.014   8.869 -0.1865 -0.3395  0.9428
23865SOL    HW172173   3.328   1.994   8.894 -0.4897  0.8222  0.8066
23865SOL    HW272174   3.463   2.028   8.952 -0.2062 -0.5542  0.9924
23866SOL     OW72175   2.957   2.444   3.364  0.2316  0.0286  0.1678
23866SOL    HW172176   2.896   2.371   3.355  0.8047 -0.8343  2.5701
23866SOL    HW272177   2.966   2.479   3.275 -0.2297 -2.6848 -1.0401
23867SOL     OW72178   0.964   9.744   6.275  0.2016  0.0942 -0.2495
23867SOL    HW172179   1.019   9.821   6.291  0.3084  0.1017 -0.6360
23867SOL    HW272180   0.965   9.733   6.180 -0.3245 -0.0129 -0.2469
23868SOL     OW72181   1.203   0.184   9.728 -0.3708  0.4836  1.1698
23868SOL    HW172182   1.265   0.114   9.707  1.9355  2.8986 -0.8068
23868SOL    HW272183   1.131   0.140   9.773  2.5566 -2.6161  3.3257
23869SOL     OW72184   0.532   9.295   7.756 -0.4210 -0.2978  0.1327
23869SOL    HW172185   0.499   9.221   7.706 -2.1417  0.3289  0.2859
23869SOL    HW272186   0.456   9.328   7.804  0.6893  0.5093  1.4127
23870SOL     OW72187   2.795   7.786   0.178 -0.1855 -0.0055  0.1203
23870SOL    HW172188   2.873   7.730   0.172 -0.8643 -0.9183 -0.3770
23870SOL    HW272189   2.727   7.737   0.133 -0.5132  1.7499 -1.4142
23871SOL     OW72190   1.331   5.373   7.637  0.4182 -0.1461 -0.3843
23871SOL    HW172191   1.268   5.419   7.692 -2.1549 -0.8304 -2.5382
23871SOL    HW272192   1.296   5.284   7.631  1.4049 -0.4681 -1.9053
23872SOL     OW72193   2.119   8.237   6.191 -0.2191 -0.3672 -0.0331
23872SOL    HW172194   2.191   8.295   6.216  0.5178 -0.8963 -0.9119
23872SOL    HW272195   2.161   8.162   6.149 -1.1660 -1.5044  0.9697
23873SOL     OW72196   7.108   2.803   9.858  0.7085  0.1276 -0.4625
23873SOL    HW172197   7.016   2.793   9.834  0.2852  3.0186 -0.3806
23873SOL    HW272198   7.110   2.790   9.952  0.0327  1.6733 -0.2008
23874SOL     OW72199   7.284   7.206   7.578 -0.2414  0.2793  0.0965
23874SOL    HW172200   7.211   7.147   7.596  0.2232 -0.5744 -0.7200
23874SOL    HW272201   7.245   7.293   7.573 -1.3649 -0.2685 -1.2040
23875SOL     OW72202   3.105   7.373   6.929 -0.3820 -0.3068 -0.5469
23875SOL    HW172203   3.081   7.435   6.860  0.3028  1.0810  0.4144
23875SOL    HW272204   3.056   7.402   7.006  0.6331 -0.3876  0.1539
23876SOL     OW72205   5.430   8.479   8.661 -0.0644  0.1329 -0.1574
23876SOL    HW172206   5.479   8.540   8.606 -0.5941 -1.0226 -2.0074
23876SOL    HW272207   5.418   8.525   8.744  1.6565  1.5481 -0.6353
23877SOL     OW72208   7.618   6.533   6.979  0.7113 -0.4932  0.1631
23877SOL    HW172209   7.662   6.615   7.002  0.8156 -0.5758  0.2533
23877SOL    HW272210   7.548   6.561   6.920  0.3896 -0.2716  0.6410
23878SOL     OW72211   8.082   9.191   0.386  0.2025  0.2295 -0.2009
23878SOL    HW172212   8.140   9.179   0.461  0.2751  0.3614 -0.2360
23878SOL    HW272213   8.008   9.132   0.403  0.0458  0.5235  0.1517
23879SOL     OW72214   6.067   4.760   8.367 -0.1341 -0.1061  0.3094
23879SOL    HW172215   6.148   4.780   8.413  1.0122 -0.9343 -1.2702
23879SOL    HW272216   6.031   4.846   8.345  1.4824  0.3207 -0.8937
23880SOL     OW72217   0.894   6.830   2.222 -0.4129 -0.2073  0.1032
23880SOL    HW172218   0.911   6.738   2.203  0.0811 -0.2553  0.7625
23880SOL    HW272219   0.809   6.848   2.181 -0.9684 -1.2029  0.8011
23881SOL     OW72220   7.401   1.930   2.839  0.5561  0.1518  0.1900
23881SOL    HW172221   7.396   1.958   2.930 -0.8139 -0.4616  0.3268
23881SOL    HW272222   7.345   1.991   2.791  0.5683 -0.0573 -0.0976
23882SOL     OW72223   5.574   4.303   6.255  0.1030 -0.0053 -0.2667
23882SOL    HW172224   5.514   4.340   6.320  1.7940  0.9080  0.8297
23882SOL    HW272225   5.632   4.375   6.232  0.5678 -0.7671 -1.5879
23883SOL     OW72226   8.339   8.270   0.740 -0.3830  0.2423  0.1441
23883SOL    HW172227   8.311   8.362   0.748 -3.2076 -0.4297 -0.6564
23883SOL    HW272228   8.324   8.249   0.648  2.1528 -0.5388 -0.1606
23884SOL     OW72229   9.612   5.870   7.587  0.3690 -0.0539  0.2945
23884SOL    HW172230   9.627   5.809   7.514 -0.2825  0.4702 -0.2942
23884SOL    HW272231   9.683   5.934   7.579 -0.4525  0.7841 -0.7435
23885SOL     OW72232   2.931   1.086   4.172 -0.2165  0.3603 -0.8254
23885SOL    HW172233   2.938   1.084   4.267  0.7996  2.3288 -0.8106
23885SOL    HW272234   2.837   1.092   4.155 -0.3859  0.3457  0.0650
23886SOL     OW72235   0.788   0.214   1.062 -0.0261  0.2995 -0.3631
23886SOL    HW172236   0.875   0.238   1.096 -0.2039  0.6353 -0.1335
23886SOL    HW272237   0.795   0.224   0.968  0.5937 -1.0242 -0.4772
23887SOL     OW72238   2.557   7.287   7.837  0.0219  0.1377  0.1905
23887SOL    HW172239   2.516   7.214   7.790  1.1452  1.1499 -2.6193
23887SOL    HW272240   2.527   7.365   7.791  1.6861  1.1644  0.7413
23888SOL     OW72241   7.260   1.198   0.039  0.0359 -0.2502  0.0365
23888SOL    HW172242   7.316   1.200  -0.038 -0.2794 -0.0284 -0.1931
23888SOL    HW272243   7.226   1.109   0.042  0.3019 -0.3504  0.1078
23889SOL     OW72244   0.367   4.781   1.473  0.3916  0.4645  0.1099
23889SOL    HW172245   0.312   4.713   1.433  2.8636 -0.8491 -1.2880
23889SOL    HW272246   0.386   4.748   1.561 -0.2138  0.4461  0.2377
23890SOL     OW72247   8.667   0.392   9.654 -0.9632  0.1598 -0.1169
23890SOL    HW172248   8.640   0.316   9.601 -1.9105 -0.0109  0.5877
23890SOL    HW272249   8.684   0.355   9.741 -0.7729  0.6542  0.0536
23891SOL     OW72250   8.058   9.879   0.493  0.0755 -0.1202 -0.2243
23891SOL    HW172251   8.110   9.806   0.527 -1.6746 -0.8950  0.9601
23891SOL    HW272252   8.007   9.909   0.569 -0.4672  1.2582 -1.0997
23892SOL     OW72253   7.438   5.264   1.572 -0.3015  0.0137  0.0171
23892SOL    HW172254   7.424   5.313   1.653  0.2981 -1.2194  0.8905
23892SOL    HW272255   7.533   5.257   1.564 -0.3468  0.3593 -0.9498
23893SOL     OW72256   3.434   2.278   6.911  0.0156 -0.7795  0.5851
23893SOL    HW172257   3.391   2.308   6.831  1.5734  1.0349  0.3750
23893SOL    HW272258   3.462   2.189   6.891 -1.1137 -0.9694 -0.2568
23894SOL     OW72259   5.875   9.858   1.433  0.1092  0.3105  0.2908
23894SOL    HW172260   5.865   9.788   1.368 -0.7666  0.6342  0.0662
23894SOL    HW272261   5.946   9.913   1.399 -0.3832  0.5118 -0.4246
23895SOL     OW72262   0.544   9.466   5.156  0.0213 -0.3467  0.2351
23895SOL    HW172263   0.622   9.417   5.130 -0.2146 -1.3870  1.3613
23895SOL    HW272264   0.575   9.555   5.170  1.1332 -0.8390  1.0960
23896SOL     OW72265   9.715   4.310   3.885  0.7158  0.6609  0.0971
23896SOL    HW172266   9.695   4.216   3.887  3.0243 -0.0476 -2.5919
23896SOL    HW272267   9.674   4.341   3.805 -3.0994  2.9885  2.6204
23897SOL     OW72268   2.764   8.975   5.696  0.1552  0.0654  0.4200
23897SOL    HW172269   2.768   8.951   5.603  0.7307  1.3397  0.0951
23897SOL    HW272270   2.702   9.048   5.700  1.1160  0.8914  0.8179
23898SOL     OW72271   8.910   9.381   2.553  0.9402 -0.5399 -0.0837
23898SOL    HW172272   8.825   9.373   2.510  1.4340 -0.0254 -1.1830
23898SOL    HW272273   8.894   9.441   2.626 -0.1227 -2.1578  1.1104
23899SOL     OW72274   6.620   6.758   4.052 -0.3291  0.2548 -0.3503
23899SOL    HW172275   6.661   6.685   4.099 -2.3144  0.0183  1.1176
23899SOL    HW272276   6.542   6.720   4.012 -1.2782  1.4968  0.2611
23900SOL     OW72277   7.488   8.356   0.379  0.3112  0.5013  0.5447
23900SOL    HW172278   7.477   8.295   0.306  0.1687 -0.0700  1.0385
23900SOL    HW272279   7.407   8.347   0.431  0.4689  0.8016  0.8489
23901SOL     OW72280   1.304   7.388   1.358 -0.5674 -0.4383 -0.0528
23901SOL    HW172281   1.353   7.351   1.431 -0.3315 -0.3931 -0.1871
23901SOL    HW272282   1.334   7.478   1.351 -1.9990  0.1495  1.0201
23902SOL     OW72283   8.806   6.900   7.021 -0.0917  0.7308 -0.6426
23902SOL    HW172284   8.771   6.814   7.003  0.6078  0.5423 -1.1408
23902SOL    HW272285   8.835   6.896   7.113  1.3645 -0.0844 -1.1051
23903SOL     OW72286   8.251   3.974   7.797 -0.4165 -0.0870 -0.2276
23903SOL    HW172287   8.191   4.040   7.760  0.2785  0.4070 -0.5023
23903SOL    HW272288   8.194   3.902   7.823 -1.0753  0.1473 -0.9775
23904SOL     OW72289   4.430   0.100   1.304 -0.5413 -0.9295 -0.5002
23904SOL    HW172290   4.469   0.022   1.344 -0.0965 -0.0642  0.7921
23904SOL    HW272291   4.359   0.124   1.364  0.0919  0.3446 -0.2338
23905SOL     OW72292   4.171   8.869   7.311 -0.7021  0.0266  0.1857
23905SOL    HW172293   4.103   8.936   7.322 -0.7119  0.0644 -0.0934
23905SOL    HW272294   4.205   8.855   7.399  0.1286  1.2760  0.0934
23906SOL     OW72295   8.315   9.491   2.155 -0.0205  0.2782 -0.3727
23906SOL    HW172296   8.228   9.467   2.189  0.7531  0.4267  1.8674
23906SOL    HW272297   8.317   9.586   2.158  0.3747  0.2631  0.0817
23907SOL     OW72298   7.078   7.655   3.384 -0.6217 -0.3636 -0.2421
23907SOL    HW172299   7.174   7.658   3.384 -0.6348  0.8905  0.4947
23907SOL    HW272300   7.052   7.746   3.366 -1.6565 -0.1591  2.0348
23908SOL     OW72301   0.540   0.149   5.101  1.1382 -0.9209 -0.3348
23908SOL    HW172302   0.546   0.070   5.154 -1.2093  0.7185  2.7378
23908SOL    HW272303   0.447   0.157   5.080  1.0569  1.6777  0.6741
23909SOL     OW72304   4.160   4.025   4.543  0.2691  0.6078  0.0465
23909SOL    HW172305   4.185   4.112   4.513  2.7848  0.2869  0.9510
23909SOL    HW272306   4.196   3.966   4.478  0.3729  0.1637  0.5000
23910SOL     OW72307   4.008   4.068   5.587 -0.1891 -0.1675  0.5815
23910SOL    HW172308   3.977   4.152   5.619 -1.1908 -0.2062 -0.2632
23910SOL    HW272309   3.965   4.056   5.503  0.5013 -1.1977  0.3510
23911SOL     OW72310   0.115   5.276   1.078  0.1846  0.1783  0.3293
23911SOL    HW172311   0.120   5.354   1.133 -0.1140 -0.2282  0.9473
23911SOL    HW272312   0.137   5.204   1.137 -0.9965 -0.3584  0.1440
23912SOL     OW72313   9.888   0.583   7.343  0.1596 -0.2759  0.0582
23912SOL    HW172314   9.938   0.504   7.321  1.3005  0.7283 -1.1084
23912SOL    HW272315   9.934   0.620   7.418 -0.3322 -0.6644  0.5590
23913SOL     OW72316   7.739   9.276   2.876 -0.0904  0.0573 -0.3136
23913SOL    HW172317   7.730   9.238   2.789  1.4158  1.3767 -1.1054
23913SOL    HW272318   7.679   9.350   2.877 -0.2874 -0.1031 -0.1327
23914SOL     OW72319   9.293   7.125   5.199 -0.8222  0.5693  0.2840
23914SOL    HW172320   9.364   7.088   5.147  0.5819  0.0717  2.4362
23914SOL    HW272321   9.321   7.214   5.220 -1.6901  1.0072 -0.3347
23915SOL     OW72322   0.446   2.620   5.997 -0.2125  0.3462  0.7389
23915SOL    HW172323   0.456   2.549   6.060  1.5088  0.7742  1.0006
23915SOL    HW272324   0.458   2.699   6.049  1.8533  0.6908 -0.1503
23916SOL     OW72325   0.637   4.428   6.916  0.3525  0.0451 -0.1595
23916SOL    HW172326   0.730   4.435   6.937  0.0153  0.8274  1.2001
23916SOL    HW272327   0.610   4.345   6.956  0.3103  0.1718  0.0753
23917SOL     OW72328   7.584   4.775   6.193  0.5536  0.2312 -0.1972
23917SOL    HW172329   7.639   4.853   6.187  0.9181 -0.0253 -0.1916
23917SOL    HW272330   7.572   4.761   6.287  1.6216 -0.5050 -0.1466
23918SOL     OW72331   0.380   1.551   7.213 -0.3914  0.5418  0.2853
23918SOL    HW172332   0.325   1.474   7.196 -0.5842  0.6781  0.2848
23918SOL    HW272333   0.449   1.519   7.271  1.0517 -0.2712 -1.7571
23919SOL     OW72334   7.507   3.512   4.744  0.1063  0.2756 -0.2338
23919SOL    HW172335   7.483   3.594   4.787 -1.0196  0.3826 -1.0021
23919SOL    HW272336   7.595   3.527   4.711 -0.2534  1.3660 -0.7665
23920SOL     OW72337   5.308   6.083   6.106 -0.3055  0.0335  0.3861
23920SOL    HW172338   5.326   6.097   6.013  1.9433  0.6722  0.8461
23920SOL    HW272339   5.303   5.987   6.115 -0.3701 -0.0423 -0.3692
23921SOL     OW72340   6.470   2.401   7.898 -0.7812  0.1809  0.2414
23921SOL    HW172341   6.523   2.345   7.954 -0.4754 -0.2936 -0.5129
23921SOL    HW272342   6.475   2.488   7.939  1.6556  0.4544 -0.5167
23922SOL     OW72343   5.808   2.184   8.266 -0.2304  0.1031 -0.5269
23922SOL    HW172344   5.886   2.136   8.296  0.7039  1.7366 -0.2077
23922SOL    HW272345   5.776   2.132   8.192  0.6806 -1.0520 -0.1499
23923SOL     OW72346   6.287   9.549   4.688  0.2775 -0.4778  0.2649
23923SOL    HW172347   6.258   9.639   4.676  1.1450 -0.1300  0.7137
23923SOL    HW272348   6.353   9.536   4.621  1.4557 -0.1791  1.3252
23924SOL     OW72349   2.158   9.273   9.461 -0.3325 -0.4946  0.5198
23924SOL    HW172350   2.116   9.189   9.446 -0.1961 -0.4741  0.0077
23924SOL    HW272351   2.233   9.274   9.401 -1.3287  0.7007 -0.8040
23925SOL     OW72352   7.035   6.935   3.014 -0.0581  0.1177  0.0025
23925SOL    HW172353   6.941   6.926   3.028  0.0320 -0.6825  0.1642
23925SOL    HW272354   7.057   6.862   2.956  0.7239 -0.6366  1.2190
23926SOL     OW72355   2.916   9.127   6.050  0.2361 -0.4722 -0.3303
23926SOL    HW172356   2.915   9.116   6.145  0.8468  2.9167  0.2060
23926SOL    HW272357   2.823   9.127   6.025  0.0018 -0.1887  0.4943
23927SOL     OW72358   4.372   4.394   6.074 -0.6441 -0.2105 -0.1427
23927SOL    HW172359   4.388   4.412   6.166  0.5384  0.7001 -0.5045
23927SOL    HW272360   4.358   4.299   6.070 -1.5422 -0.1459  1.0647
23928SOL     OW72361   0.934   0.288   2.000  0.2402 -0.5446 -0.3348
23928SOL    HW172362   0.930   0.228   2.075 -0.2008 -1.4215 -1.0422
23928SOL    HW272363   0.844   0.291   1.967  0.1436  0.8990 -0.0376
23929SOL     OW72364   5.730   6.441   7.859 -0.4431  0.3417 -0.0237
23929SOL    HW172365   5.642   6.411   7.882 -0.4046 -0.3044 -0.6721
23929SOL    HW272366   5.786   6.409   7.930 -0.6929  0.5182  0.2529
23930SOL     OW72367   4.578   3.180   2.512 -0.7417  0.9609  0.0082
23930SOL    HW172368   4.520   3.115   2.471 -2.2728  1.0921  1.7994
23930SOL    HW272369   4.540   3.264   2.487 -0.0478  1.1239 -0.5264
23931SOL     OW72370   7.494   9.990   6.969  0.1290 -0.5179  0.3127
23931SOL    HW172371   7.460   9.939   6.896  1.0692  0.1196 -0.5939
23931SOL    HW272372   7.489   9.931   7.044  0.2151 -1.5735 -0.4975
23932SOL     OW72373   3.316   3.805   1.413 -0.0966  0.0921 -0.3824
23932SOL    HW172374   3.351   3.808   1.324 -1.8922  1.2413 -1.1099
23932SOL    HW272375   3.244   3.868   1.412 -1.4222 -1.3054  1.3343
23933SOL     OW72376   4.806   1.533   6.751 -0.0458 -0.0603 -0.4273
23933SOL    HW172377   4.716   1.527   6.782  0.0722  0.5123  0.0403
23933SOL    HW272378   4.798   1.541   6.656 -0.5152  0.4281 -0.3516
23934SOL     OW72379   9.034   9.733   8.033 -0.0486 -0.6262 -0.1922
23934SOL    HW172380   9.107   9.741   8.095  0.0659 -0.3296 -0.3656
23934SOL    HW272381   9.076   9.725   7.947 -0.1884 -1.6257 -0.1878
23935SOL     OW72382   8.506   3.019   8.624 -0.7615 -0.2517 -0.2346
23935SOL    HW172383   8.526   3.109   8.649 -2.2117  0.1496 -0.3945
23935SOL    HW272384   8.460   2.983   8.700  0.1675 -1.0114 -0.0099
23936SOL     OW72385   4.270   9.578   5.486  0.0862 -0.4592  0.1240
23936SOL    HW172386   4.324   9.560   5.409  1.3302 -1.0395  1.0959
23936SOL    HW272387   4.320   9.642   5.536  0.5775 -2.0028  1.7096
23937SOL     OW72388   9.751   1.668   9.927  0.6447 -0.1999 -0.1325
23937SOL    HW172389   9.785   1.739   9.872 -1.7279 -0.1156 -1.5947
23937SOL    HW272390   9.713   1.606   9.866  2.2393 -2.6105  1.1454
23938SOL     OW72391   2.135  -0.006   9.043 -0.9095  0.4555 -0.0915
23938SOL    HW172392   2.148   0.027   8.954  0.0986  0.4401  0.0431
23938SOL    HW272393   2.045   0.019   9.065 -1.8356 -1.1642 -1.7988
23939SOL     OW72394   6.535   1.394   8.366 -0.4119 -0.3200 -0.1493
23939SOL    HW172395   6.629   1.380   8.377 -0.5625 -0.2151  1.4738
23939SOL    HW272396   6.523   1.396   8.271  1.4057  0.9410 -0.4161
23940SOL     OW72397   3.016   4.117   3.853 -0.0772 -0.2786 -0.0594
23940SOL    HW172398   2.967   4.199   3.854 -0.7715 -0.6943 -0.0793
23940SOL    HW272399   3.058   4.112   3.939 -2.1422 -1.1669  0.9603
23941SOL     OW72400   2.305   5.758   8.377  0.3125 -0.1206 -0.7083
23941SOL    HW172401   2.268   5.670   8.390  1.1372 -0.6100 -1.4939
23941SOL    HW272402   2.255   5.814   8.435 -1.2358 -0.8609 -1.2662
23942SOL     OW72403   6.489   8.900   9.886  0.6077 -0.2724  0.7102
23942SOL    HW172404   6.415   8.914   9.945 -0.3332  0.0427 -0.4937
23942SOL    HW272405   6.492   8.805   9.874  0.2572 -0.2711  0.6033
23943SOL     OW72406   3.473   7.246   6.448  0.2217  0.3913 -0.6000
23943SOL    HW172407   3.527   7.275   6.375  0.6574  0.2141 -0.3523
23943SOL    HW272408   3.535   7.209   6.511 -0.2305 -0.1547 -0.4714
23944SOL     OW72409   4.565   1.093   7.389  0.0219  0.1578  0.4520
23944SOL    HW172410   4.640   1.109   7.331  0.2698 -1.0854  0.4087
23944SOL    HW272411   4.490   1.123   7.338  0.3093 -0.2329 -0.2209
23945SOL     OW72412   2.111   9.935   8.271 -0.5129  0.3315  0.3605
23945SOL    HW172413   2.122   9.894   8.185  1.0960  0.5748  0.4223
23945SOL    HW272414   2.079  10.023   8.251 -1.8480 -0.1884  0.1189
23946SOL     OW72415   6.056   8.976   3.283 -0.1086 -0.1491  1.1202
23946SOL    HW172416   6.108   9.027   3.345 -0.5611  2.2157 -0.3506
23946SOL    HW272417   6.014   9.041   3.227 -0.2706 -2.1462 -1.2459
23947SOL     OW72418   2.531   4.652   2.003  0.3318  0.0199 -0.1806
23947SOL    HW172419   2.437   4.668   2.018  0.3321  0.5715 -0.7404
23947SOL    HW272420   2.557   4.595   2.076 -0.4578 -0.2176 -0.0701
23948SOL     OW72421   4.152   5.553   9.902 -0.2544  0.0422 -0.3654
23948SOL    HW172422   4.092   5.494   9.856 -0.6445  0.8048 -0.8624
23948SOL    HW272423   4.157   5.518   9.991  0.3599 -1.3384 -0.9271
23949SOL     OW72424   5.096   6.394   1.941  0.0530 -0.3223  0.3434
23949SOL    HW172425   5.142   6.376   1.859  1.4411 -0.2251  1.0866
23949SOL    HW272426   5.150   6.457   1.987 -1.6379  1.0523  0.5610
23950SOL     OW72427   0.981   4.395   2.536 -0.1393  0.6418 -0.3999
23950SOL    HW172428   1.065   4.392   2.583 -0.3930 -1.2914  0.0211
23950SOL    HW272429   0.973   4.308   2.496 -0.8069  1.6209 -2.5375
23951SOL     OW72430   1.951   4.193   5.079  0.1870  0.0210  0.0328
23951SOL    HW172431   1.883   4.214   5.014 -0.2914 -3.3369 -0.7326
23951SOL    HW272432   1.903   4.183   5.161 -0.1177 -1.1171 -0.2606
23952SOL     OW72433   2.047   7.038   9.887 -0.6615  0.2050 -0.1634
23952SOL    HW172434   2.116   6.994   9.937 -0.9717 -1.7481 -1.3535
23952SOL    HW272435   1.967   7.022   9.937 -0.6437  0.1295 -0.1581
23953SOL     OW72436   3.634   3.533   8.974 -0.3456  0.1500 -0.2153
23953SOL    HW172437   3.721   3.572   8.983 -0.4942  0.5728 -0.5339
23953SOL    HW272438   3.617   3.492   9.058  0.0025  0.4091 -0.0151
23954SOL     OW72439   8.604   1.259   9.942 -0.0987  0.2304 -0.2571
23954SOL    HW172440   8.523   1.309   9.937  0.1958  0.9351  1.3783
23954SOL    HW272441   8.638   1.277  10.030  0.7494 -1.7357 -0.1273
23955SOL     OW72442   2.739   2.063   2.737  0.1051 -0.4987  0.1700
23955SOL    HW172443   2.816   2.054   2.681 -1.1256  0.1847 -1.7285
23955SOL    HW272444   2.691   2.138   2.701 -0.7702 -0.0428  2.1556
23956SOL     OW72445   3.647   3.908   8.728  0.1700  0.2213  0.2195
23956SOL    HW172446   3.593   3.829   8.736 -0.0027 -0.2054 -3.5089
23956SOL    HW272447   3.584   3.980   8.724  0.3045  0.5913  2.9512
23957SOL     OW72448   3.803   3.484   7.912 -0.0527  0.0100 -0.8231
23957SOL    HW172449   3.726   3.529   7.946  0.5627 -0.8868  1.9854
23957SOL    HW272450   3.858   3.554   7.876 -1.4622  0.8117 -1.5314
23958SOL     OW72451   6.490   3.628   1.956  0.1721  0.0721 -0.0908
23958SOL    HW172452   6.414   3.678   1.986  0.0322  0.1997 -0.6455
23958SOL    HW272453   6.558   3.647   2.020 -0.3314 -0.2366  0.5495
23959SOL     OW72454   7.158   5.044   5.000 -0.3688 -0.4384 -0.3124
23959SOL    HW172455   7.105   4.963   5.002  0.6665 -1.2092 -1.7559
23959SOL    HW272456   7.248   5.013   5.001  0.0779  0.8338  1.3139
23960SOL     OW72457   5.471   3.030   1.975  0.1963 -0.4837 -0.0490
23960SOL    HW172458   5.536   3.024   1.905  0.1644 -1.0221 -0.0359
23960SOL    HW272459   5.398   2.977   1.945 -0.3730  0.3611 -0.1969
23961SOL     OW72460   6.405   0.202   2.947  0.4924 -0.5282  0.5157
23961SOL    HW172461   6.447   0.220   3.031  1.1067 -1.0104  0.3178
23961SOL    HW272462   6.355   0.282   2.928  0.5586 -0.3164  1.2066
23962SOL     OW72463   7.781   9.642   0.641  0.3572 -0.3368 -0.4230
23962SOL    HW172464   7.772   9.549   0.662 -0.9289 -0.4133 -1.1794
23962SOL    HW272465   7.729   9.653   0.561 -3.0221  1.7680  1.7804
23963SOL     OW72466   2.959   2.338   5.932 -0.0646 -0.4217  0.5391
23963SOL    HW172467   2.899   2.334   5.858  0.1875 -0.0414  0.3123
23963SOL    HW272468   3.027   2.399   5.905  0.2277 -0.5629  0.9398
23964SOL     OW72469   5.869   5.316   7.415 -0.0576 -0.1764  0.0913
23964SOL    HW172470   5.861   5.311   7.511 -1.6309  0.2577  0.0104
23964SOL    HW272471   5.926   5.392   7.400  1.4072 -1.1001  0.6759
23965SOL     OW72472   0.328   4.291   5.217 -0.2093 -0.1814 -0.3504
23965SOL    HW172473   0.255   4.353   5.218  0.7218  0.9559  0.5854
23965SOL    HW272474   0.401   4.342   5.182  0.2216 -1.2082 -0.9773
23966SOL     OW72475   7.864   7.309   9.816 -0.3323 -0.1844  0.0414
23966SOL    HW172476   7.866   7.396   9.777 -0.3818  0.7303  1.9821
23966SOL    HW272477   7.772   7.296   9.841 -0.0425 -0.1062  1.1935
23967SOL     OW72478   5.386   9.178   6.459  0.1323 -0.6262  0.1353
23967SOL    HW172479   5.477   9.148   6.464  0.2012 -0.4667 -0.1787
23967SOL    HW272480   5.360   9.188   6.551  0.3059 -1.0447  0.2319
23968SOL     OW72481   5.273   6.316   9.818 -0.1011 -0.5908 -0.0232
23968SOL    HW172482   5.349   6.259   9.830 -0.8155 -1.5972 -0.1682
23968SOL    HW272483   5.239   6.330   9.906 -0.8021 -1.6334 -0.1150
23969SOL     OW72484   8.662   1.263   6.495  0.0190 -0.0480  0.5165
23969SOL    HW172485   8.581   1.214   6.487  0.9322 -1.7993  1.4717
23969SOL    HW272486   8.642   1.333   6.558 -1.6023  1.6286 -1.6730
23970SOL     OW72487   2.182   5.700   7.761 -0.1167 -0.1876  0.3149
23970SOL    HW172488   2.247   5.768   7.744  1.3067 -1.9220 -1.7456
23970SOL    HW272489   2.213   5.655   7.839 -0.6813  1.0324  1.2676
23971SOL     OW72490   1.659   0.143   0.426 -0.4815  0.6155  0.0878
23971SOL    HW172491   1.593   0.193   0.474 -0.5601 -0.1864  0.8368
23971SOL    HW272492   1.673   0.193   0.346 -1.4594  1.1882  0.2544
23972SOL     OW72493   8.223   0.859   0.345  0.1418 -0.4313 -0.1071
23972SOL    HW172494   8.308   0.821   0.366  0.3086 -0.6461 -1.1262
23972SOL    HW272495   8.168   0.784   0.322  0.1042 -0.1816 -0.8709
23973SOL     OW72496   1.589   8.078   5.692 -0.0806 -0.0140 -0.0034
23973SOL    HW172497   1.631   8.017   5.632  0.5715  1.4269 -1.0661
23973SOL    HW272498   1.635   8.065   5.775  0.6871 -0.3125 -0.4636
23974SOL     OW72499   5.129   7.453   9.427 -0.2310  0.2117 -0.3183
23974SOL    HW172500   5.060   7.438   9.491 -0.8187 -0.2528 -1.0420
23974SOL    HW272501   5.087   7.505   9.359  0.2050  0.1419 -0.6429
23975SOL     OW72502   4.158   0.416   8.444 -0.0063  0.3152  0.2928
23975SOL    HW172503   4.128   0.327   8.429  1.2686  0.0477 -0.9695
23975SOL    HW272504   4.109   0.469   8.381 -0.6331  0.4828  0.9174
23976SOL     OW72505   6.375   7.398   6.462  0.7505  0.0943 -0.1820
23976SOL    HW172506   6.357   7.491   6.480  0.1730 -0.5514  3.2375
23976SOL    HW272507   6.358   7.388   6.368  1.7582  3.6133 -0.8824
23977SOL     OW72508   5.835   3.158   2.690  0.1806  0.2027  0.8178
23977SOL    HW172509   5.817   3.230   2.751  0.6494  0.1471  1.0216
23977SOL    HW272510   5.841   3.081   2.745  0.1193  0.0719  0.6433
23978SOL     OW72511   8.204   4.428   3.422  0.1601 -0.4740 -0.2193
23978SOL    HW172512   8.184   4.339   3.450  0.1763 -0.3270  0.2689
23978SOL    HW272513   8.153   4.484   3.480  0.1162 -0.1636 -0.5513
23979SOL     OW72514   8.464   1.005   7.661  0.5042  0.1238  0.4246
23979SOL    HW172515   8.484   1.095   7.687  3.5945  0.2065 -1.6803
23979SOL    HW272516   8.426   1.012   7.574 -1.0068 -0.5624  1.0001
23980SOL     OW72517   0.409   8.317   8.578  0.3919 -0.3595  0.2300
23980SOL    HW172518   0.464   8.271   8.514 -0.4939 -0.2892 -0.6071
23980SOL    HW272519   0.347   8.250   8.608 -0.6861  0.1770 -0.7446
23981SOL     OW72520   0.102   1.573   8.050 -0.5825  0.3210 -0.3834
23981SOL    HW172521   0.029   1.511   8.053  0.4042 -1.1428 -3.0277
23981SOL    HW272522   0.144   1.565   8.135 -0.8010 -2.3048 -0.4602
23982SOL     OW72523   5.167   5.291   9.319  0.1034 -0.4097  1.0967
23982SOL    HW172524   5.216   5.210   9.328  0.1023 -0.3480  1.7494
23982SOL    HW272525   5.210   5.339   9.248 -0.1715 -1.1722  0.4057
23983SOL     OW72526   0.259   7.374   3.864 -0.1246 -0.6465 -0.9496
23983SOL    HW172527   0.337   7.426   3.845 -1.1515  1.6851  0.8238
23983SOL    HW272528   0.191   7.412   3.809 -1.0895  0.5640  0.9859
23984SOL     OW72529   3.590   6.313   1.558 -0.1075 -0.2350  0.1366
23984SOL    HW172530   3.633   6.365   1.490  0.4728 -2.6098 -1.4420
23984SOL    HW272531   3.609   6.223   1.534  0.2041 -1.2110  3.5562
23985SOL     OW72532   7.058   6.604   2.924 -0.3254 -0.5094  1.1232
23985SOL    HW172533   6.965   6.617   2.945 -0.8902 -1.5509 -0.5662
23985SOL    HW272534   7.103   6.617   3.007 -1.7044  2.4869  1.5505
23986SOL     OW72535   1.119   3.461   7.568  0.0850  0.2700 -0.0747
23986SOL    HW172536   1.119   3.513   7.487  1.1727  1.5229  0.6883
23986SOL    HW272537   1.026   3.454   7.591 -0.3037 -0.7309 -1.7879
23987SOL     OW72538   6.269   1.105   9.959 -0.2706 -0.3073 -0.2170
23987SOL    HW172539   6.258   1.192   9.922  0.6594  0.2677  0.8180
23987SOL    HW272540   6.217   1.107  10.040  1.3924  0.0024  0.8848
23988SOL     OW72541   3.085   9.687   7.148  0.1132 -0.2311 -0.6124
23988SOL    HW172542   3.151   9.721   7.209  1.2261  0.6486 -2.2301
23988SOL    HW272543   3.106   9.594   7.139  0.8610 -0.0566 -0.7590
23989SOL     OW72544   2.584   9.676   3.732  0.2640 -0.4339  0.4318
23989SOL    HW172545   2.623   9.755   3.694 -0.3269  0.7278  2.1098
23989SOL    HW272546   2.531   9.639   3.662 -0.1713  1.1735 -0.1271
23990SOL     OW72547   3.900   8.433   4.995 -0.1240  0.1261 -0.2695
23990SOL    HW172548   3.984   8.463   4.961  0.7075 -1.4301  0.3258
23990SOL    HW272549   3.896   8.468   5.084 -1.3025  2.3232 -1.0994
23991SOL     OW72550   2.728   4.898   4.106  0.1422 -0.3867  0.1976
23991SOL    HW172551   2.742   4.965   4.039  0.6639 -0.0350  0.6428
23991SOL    HW272552   2.647   4.924   4.149  0.0998 -0.2978  0.0634
23992SOL     OW72553   3.910   1.192   3.990 -0.2666  0.1342 -0.0038
23992SOL    HW172554   3.853   1.117   4.006 -0.6596  0.6739  1.2677
23992SOL    HW272555   3.855   1.254   3.942  0.1663 -0.5039 -1.3732
23993SOL     OW72556   7.178   0.369   0.970 -0.2731 -0.2050  0.0285
23993SOL    HW172557   7.206   0.368   1.062 -0.6295 -0.4849  0.1354
23993SOL    HW272558   7.084   0.385   0.974 -0.5463 -1.6298 -0.2259
23994SOL     OW72559   8.482   3.012   4.131  0.4756  0.7520  0.5723
23994SOL    HW172560   8.559   3.052   4.171  2.1236 -1.4208 -0.2285
23994SOL    HW272561   8.504   3.005   4.038  0.7620 -2.7492  0.7594
23995SOL     OW72562   2.185   2.757   7.222  0.4670 -0.2255  0.2983
23995SOL    HW172563   2.104   2.751   7.172  1.4364 -0.6802 -1.3093
23995SOL    HW272564   2.165   2.816   7.294 -1.0107  0.4383 -0.6156
23996SOL     OW72565   8.001   7.338   3.698  0.1587 -0.6552 -0.0343
23996SOL    HW172566   7.983   7.322   3.606  0.7509  0.2474 -0.3164
23996SOL    HW272567   7.926   7.391   3.728  0.1221 -0.6874 -0.0689
23997SOL     OW72568   6.062   3.357   2.286 -0.4662 -0.9238 -0.5292
23997SOL    HW172569   6.007   3.289   2.324  1.3028 -2.5395 -0.6996
23997SOL    HW272570   6.136   3.310   2.248 -0.2273  0.9449 -2.5996
23998SOL     OW72571   5.511   1.800   9.120 -0.1782 -0.7080 -0.5018
23998SOL    HW172572   5.577   1.753   9.170 -0.4716 -0.1180  0.4555
23998SOL    HW272573   5.561   1.845   9.051  0.3934 -0.4726  0.0590
23999SOL     OW72574   1.980   1.916   8.637 -0.2422 -0.1810 -0.4073
23999SOL    HW172575   1.914   1.908   8.568 -0.8453 -1.7163  0.3090
23999SOL    HW272576   1.991   1.827   8.670  3.3845 -0.3271 -1.5676
24000SOL     OW72577   1.122   4.390   5.848 -0.0179  0.2113  0.2334
24000SOL    HW172578   1.141   4.298   5.867  1.1601  0.4327  0.1652
24000SOL    HW272579   1.148   4.402   5.757  1.1919  0.9513  0.6534
24001SOL     OW72580   5.191   8.580   5.530  0.6782 -0.2297 -0.4656
24001SOL    HW172581   5.156   8.517   5.593  2.2326  0.1531  0.8262
24001SOL    HW272582   5.126   8.650   5.526  0.1398 -0.6982  0.0050
24002SOL     OW72583   1.528   0.207   5.212 -0.3248  1.0707 -0.4007
24002SOL    HW172584   1.528   0.252   5.296  0.0151  0.1531  0.1010
24002SOL    HW272585   1.447   0.156   5.212 -1.0159  2.1262 -1.2255
24003SOL     OW72586   2.692   0.390   4.188 -0.2104  0.1695  0.5480
24003SOL    HW172587   2.635   0.345   4.250  0.1027  0.3881  1.0127
24003SOL    HW272588   2.781   0.374   4.221 -0.0336  0.2182  0.1048
24004SOL     OW72589   8.122   7.046   7.421 -0.4532 -0.5664 -0.3022
24004SOL    HW172590   8.072   7.125   7.443 -0.0161 -0.1084 -0.9330
24004SOL    HW272591   8.088   7.019   7.335 -0.7017 -1.1571 -0.0284
24005SOL     OW72592   6.426   1.814   3.450  0.1614 -0.2033 -0.0847
24005SOL    HW172593   6.446   1.724   3.475 -1.7022 -0.7666 -0.4737
24005SOL    HW272594   6.468   1.825   3.365  0.1254 -0.8177 -0.1880
24006SOL     OW72595   5.608   9.840   3.892  0.0420  0.6449 -0.5001
24006SOL    HW172596   5.528   9.850   3.944  0.1007  1.0042 -0.4750
24006SOL    HW272597   5.602   9.908   3.826  0.3747  0.7347 -0.4388
24007SOL     OW72598   2.034   9.185   7.276 -0.0871 -0.2687  0.2127
24007SOL    HW172599   2.043   9.106   7.222  1.0805 -0.2760  0.3845
24007SOL    HW272600   2.073   9.161   7.360  1.3714  0.8390 -0.1088
24008SOL     OW72601   4.357   7.382   2.349 -0.1548 -0.0398  0.1289
24008SOL    HW172602   4.443   7.407   2.383 -0.6479  1.3278  0.4470
24008SOL    HW272603   4.366   7.289   2.328  1.5672  0.1951 -0.3820
24009SOL     OW72604   4.060   7.428   8.881 -0.2714 -0.0420  0.7404
24009SOL    HW172605   4.029   7.362   8.818  0.4736  0.5429 -0.2709
24009SOL    HW272606   3.983   7.481   8.900 -0.8657 -1.1362  1.5068
24010SOL     OW72607   0.383   1.148   4.805  0.2374  0.7952 -0.0369
24010SOL    HW172608   0.351   1.102   4.727  0.3109 -3.0560  1.9680
24010SOL    HW272609   0.305   1.184   4.846 -0.3410 -0.4510  0.0023
24011SOL     OW72610   8.789   1.199   5.969  0.4855 -0.2334  0.3520
24011SOL    HW172611   8.836   1.282   5.978 -2.1636  1.5980 -1.2757
24011SOL    HW272612   8.730   1.196   6.044 -1.8236  1.1548 -1.2989
24012SOL     OW72613   4.553   6.497   5.240  0.0816  0.1366  0.2934
24012SOL    HW172614   4.613   6.472   5.310 -0.9768  0.7572  1.4592
24012SOL    HW272615   4.602   6.481   5.160  1.7980  0.6075  1.2070
24013SOL     OW72616   5.636   4.594   8.836  0.1060  0.2216 -0.0022
24013SOL    HW172617   5.688   4.524   8.877 -0.8293 -0.2711  0.3555
24013SOL    HW272618   5.662   4.673   8.882 -0.2916 -0.1927  0.9472
24014SOL     OW72619   6.261   7.304   4.782 -0.2725  0.0052 -0.0243
24014SOL    HW172620   6.323   7.263   4.842  0.0398  2.2492  1.2915
24014SOL    HW272621   6.178   7.307   4.830 -0.6162 -0.2586 -0.5943
24015SOL     OW72622   3.744   9.031   3.295  0.3209 -0.0264 -0.0746
24015SOL    HW172623   3.702   9.068   3.217 -1.0422 -0.5218  0.3950
24015SOL    HW272624   3.682   9.049   3.366  1.2883 -0.0685  0.8056
24016SOL     OW72625   4.883   9.545   2.354  0.0699 -0.4635  0.2968
24016SOL    HW172626   4.828   9.560   2.277  0.6813  0.9509  0.0945
24016SOL    HW272627   4.852   9.463   2.390 -0.6979 -0.8116 -1.0696
24017SOL     OW72628   3.863   4.643   0.261  0.0230  0.3723  0.4376
24017SOL    HW172629   3.800   4.658   0.331 -0.8894  0.0885 -0.2994
24017SOL    HW272630   3.842   4.708   0.195 -0.0259 -0.2388 -0.1623
24018SOL     OW72631   6.373   8.374   7.817 -0.3495  0.1928  0.3834
24018SOL    HW172632   6.315   8.404   7.887  0.8029  1.0615  1.0050
24018SOL    HW272633   6.323   8.305   7.773 -3.2111  3.0464 -1.2408
24019SOL     OW72634   7.330   3.838   8.918  0.2765 -0.3144 -0.3055
24019SOL    HW172635   7.234   3.844   8.923  0.2270 -1.1310  0.0072
24019SOL    HW272636   7.360   3.928   8.922 -0.3854 -0.1128  1.8952
24020SOL     OW72637   1.347   3.607   0.247  0.0893 -0.0927 -0.2760
24020SOL    HW172638   1.302   3.606   0.332  1.2829 -0.7304  0.3839
24020SOL    HW272639   1.440   3.610   0.270  0.4215  0.1212 -1.5818
24021SOL     OW72640   6.859   4.802   2.082 -0.1126 -0.4519 -0.1917
24021SOL    HW172641   6.843   4.717   2.125 -0.4772 -0.0214  0.5613
24021SOL    HW272642   6.777   4.850   2.095 -0.2030 -0.2834 -1.3406
24022SOL     OW72643   5.892   1.742   6.269  0.2475 -0.1292  0.4613
24022SOL    HW172644   5.880   1.647   6.265  1.2599 -0.4758  3.4877
24022SOL    HW272645   5.803   1.778   6.271 -0.1914 -1.2220  1.9813
24023SOL     OW72646   0.182   1.852   0.313 -0.6362  0.5648 -0.7896
24023SOL    HW172647   0.164   1.894   0.398  0.0578  0.1259 -0.4169
24023SOL    HW272648   0.115   1.784   0.305 -0.2687  0.1253 -0.2466
24024SOL     OW72649   8.949   7.736   7.508 -0.0338  0.2637 -0.4232
24024SOL    HW172650   9.011   7.809   7.504  0.8179 -0.3402  0.9518
24024SOL    HW272651   8.988   7.675   7.572 -1.8668 -0.2880  0.2321
24025SOL     OW72652   1.635   8.744   2.023 -0.0839  0.1313 -0.0198
24025SOL    HW172653   1.569   8.700   2.076  1.8766 -1.0930  1.5787
24025SOL    HW272654   1.670   8.813   2.079  0.1656  0.6189 -0.7530
24026SOL     OW72655   3.098   6.148   4.404  0.3694  0.1722  0.4254
24026SOL    HW172656   3.180   6.195   4.384  0.3396 -0.0916 -0.3500
24026SOL    HW272657   3.057   6.134   4.319  0.1712 -0.9013  0.6876
24027SOL     OW72658   0.714   9.884   2.152 -0.1030 -0.2919  0.1890
24027SOL    HW172659   0.737   9.976   2.166  1.5846 -0.8367  1.2417
24027SOL    HW272660   0.737   9.867   2.061  0.1784  0.1717  0.1706
24028SOL     OW72661   0.677   3.353   5.372 -0.0745 -0.1474  0.3462
24028SOL    HW172662   0.618   3.305   5.431  0.3284 -0.7350  0.2731
24028SOL    HW272663   0.620   3.415   5.327 -0.2306  1.1327  2.1751
24029SOL     OW72664   4.327   2.979   6.148 -0.2906 -0.0541 -0.2136
24029SOL    HW172665   4.350   2.887   6.137  1.1978  0.0804  1.4053
24029SOL    HW272666   4.263   2.996   6.078 -1.3020 -2.5306 -0.0048
24030SOL     OW72667   6.580   6.697   2.715 -0.1503  0.3184 -0.3725
24030SOL    HW172668   6.524   6.772   2.738 -0.6138 -0.3278  0.6690
24030SOL    HW272669   6.534   6.653   2.644 -0.7764  0.0219  0.2089
24031SOL     OW72670   8.886   3.628   1.416 -0.0465  0.0131  0.5674
24031SOL    HW172671   8.882   3.715   1.376 -1.0035 -0.2286  0.0879
24031SOL    HW272672   8.977   3.600   1.404  1.1740  2.1730  3.5146
24032SOL     OW72673   7.311   9.166   9.192  0.1843  0.2599 -0.2063
24032SOL    HW172674   7.344   9.076   9.189 -1.6830 -0.4977  0.3682
24032SOL    HW272675   7.300   9.184   9.285  2.6779  1.9938 -0.1326
24033SOL     OW72676   0.691   1.858   8.115 -0.4723  0.2651 -0.1418
24033SOL    HW172677   0.721   1.873   8.205 -2.0110  0.9253  0.2863
24033SOL    HW272678   0.715   1.938   8.068  0.2575 -0.0469 -0.3234
24034SOL     OW72679   0.966   9.144   0.170 -0.0806 -0.2587  0.0821
24034SOL    HW172680   0.904   9.156   0.098 -1.7236 -0.6060  1.3611
24034SOL    HW272681   1.003   9.232   0.184  0.6799 -0.3045 -1.5070
24035SOL     OW72682   7.354   1.407   2.892 -0.3427  0.2961  0.3161
24035SOL    HW172683   7.339   1.484   2.837 -1.8598 -0.1203  0.0806
24035SOL    HW272684   7.449   1.398   2.896 -0.1675  0.8582 -1.5280
24036SOL     OW72685   6.303   2.621   0.106  0.2367  0.4620 -0.5595
24036SOL    HW172686   6.290   2.527   0.119  0.2245  0.0794 -2.8886
24036SOL    HW272687   6.314   2.656   0.194 -2.0731 -1.3598  0.5644
24037SOL     OW72688   7.051   7.337   6.978 -0.2954 -0.1434 -0.3356
24037SOL    HW172689   7.135   7.293   6.962  0.1306  0.5787 -0.1163
24037SOL    HW272690   7.010   7.339   6.892  0.7137  1.1115 -0.8208
24038SOL     OW72691   4.388   9.855   7.936 -0.5691 -0.1697  0.2291
24038SOL    HW172692   4.314   9.801   7.962 -0.6885 -0.2586 -0.2769
24038SOL    HW272693   4.425   9.887   8.018 -0.5931 -0.8921  0.5247
24039SOL     OW72694   9.215   1.370   5.863 -0.1898  0.0010  0.6748
24039SOL    HW172695   9.271   1.446   5.851 -0.6856  0.0973 -1.3530
24039SOL    HW272696   9.266   1.296   5.831 -0.2328 -0.3215  1.3284
24040SOL     OW72697   3.342   8.517   6.245 -0.0199  0.5105 -0.2553
24040SOL    HW172698   3.345   8.469   6.163 -0.7136 -1.3082  0.7245
24040SOL    HW272699   3.367   8.606   6.222  0.5635 -0.1338 -2.2840
24041SOL     OW72700   6.804   9.340   1.526  0.0140  0.0691  0.8437
24041SOL    HW172701   6.854   9.276   1.575 -1.1019 -0.3366  1.4906
24041SOL    HW272702   6.754   9.389   1.592 -2.8982 -1.6634  0.1300
24042SOL     OW72703   7.893   1.456   1.425  0.3105  0.1003 -0.1664
24042SOL    HW172704   7.889   1.362   1.407  0.2723 -0.1386  0.9607
24042SOL    HW272705   7.863   1.498   1.345  0.9033 -0.8329 -0.8882
24043SOL     OW72706   7.301   3.767   6.197  0.0269  0.1940  0.0636
24043SOL    HW172707   7.364   3.713   6.150  0.0739 -1.1986  1.6428
24043SOL    HW272708   7.217   3.721   6.185 -0.0386  0.0738  0.9345
24044SOL     OW72709   8.219   4.370   2.492 -0.1471 -0.4384 -0.0687
24044SOL    HW172710   8.152   4.335   2.435 -1.0804  0.4511  0.4534
24044SOL    HW272711   8.259   4.293   2.533 -0.4314 -1.0001 -0.8434
24045SOL     OW72712   2.644   6.563   8.040 -0.3132  0.3557  0.2161
24045SOL    HW172713   2.585   6.496   8.005  0.2877  0.4650 -1.0545
24045SOL    HW272714   2.732   6.527   8.030  0.1720  1.9128 -2.0338
24046SOL     OW72715   0.432   3.701   5.557 -0.3213  0.0294 -0.4227
24046SOL    HW172716   0.472   3.749   5.485  0.8856  1.7993  1.3269
24046SOL    HW272717   0.505   3.660   5.603 -0.9156 -0.0462  0.4892
24047SOL     OW72718   9.522   5.154   2.401 -0.6734 -0.6082 -0.3142
24047SOL    HW172719   9.516   5.201   2.317 -0.7380 -1.9236 -1.0705
24047SOL    HW272720   9.503   5.221   2.467 -1.4476  0.2751 -1.3901
24048SOL     OW72721   5.616   3.948   8.571 -0.0602  0.1259 -0.1374
24048SOL    HW172722   5.638   3.972   8.481 -0.7942  0.8689 -0.1301
24048SOL    HW272723   5.638   4.025   8.623 -1.0156  0.2592  0.1023
24049SOL     OW72724   3.449   6.046   9.785 -0.0930 -0.1025  0.0535
24049SOL    HW172725   3.533   6.079   9.754 -0.2915  0.0099 -0.3710
24049SOL    HW272726   3.472   5.986   9.856  0.2851  0.6637  0.5878
24050SOL     OW72727   7.905   4.871   9.935 -0.1314 -0.2054 -0.8015
24050SOL    HW172728   7.957   4.910   9.865  0.4385 -1.8898 -1.3509
24050SOL    HW272729   7.816   4.903   9.920  0.1408  0.1259 -1.7778
24051SOL     OW72730   5.064   0.755   5.598  0.2907 -0.5351  0.2786
24051SOL    HW172731   5.090   0.837   5.557  0.3958 -0.5853  0.2421
24051SOL    HW272732   4.969   0.758   5.601  0.3187  0.9948  3.1313
24052SOL     OW72733   8.076   1.548   1.588 -0.5198  0.5640 -0.3202
24052SOL    HW172734   8.150   1.525   1.531 -1.4668  0.6126 -1.6063
24052SOL    HW272735   7.998   1.522   1.539 -1.3795  0.5514  0.9936
24053SOL     OW72736   7.165   3.090   5.643  0.1238  0.0186 -0.0956
24053SOL    HW172737   7.186   3.005   5.681 -0.4302  0.3911  1.0669
24053SOL    HW272738   7.101   3.128   5.702 -0.0243  1.0358 -0.8834
24054SOL     OW72739   5.132   0.295   4.304  0.6745  0.5393  0.1757
24054SOL    HW172740   5.191   0.251   4.366  0.0612 -0.6723 -0.0717
24054SOL    HW272741   5.045   0.284   4.342  0.1217 -1.4078 -1.5214
24055SOL     OW72742   2.834   7.726   3.657 -0.4832 -0.1311  0.1918
24055SOL    HW172743   2.746   7.713   3.692 -0.1204 -1.4867  0.6591
24055SOL    HW272744   2.824   7.714   3.562 -1.0071  1.0028  0.0839
24056SOL     OW72745   4.816   5.884   8.151  0.0637  0.7298 -1.2037
24056SOL    HW172746   4.826   5.853   8.061  1.4179 -1.2993 -0.4038
24056SOL    HW272747   4.880   5.954   8.160  0.7605  0.1367 -1.4894
24057SOL     OW72748   5.226   7.604   4.546  0.0430  0.0080  0.6755
24057SOL    HW172749   5.254   7.577   4.459 -0.9929 -0.7603  0.5698
24057SOL    HW272750   5.261   7.537   4.605 -0.3342 -0.1672  0.7033
24058SOL     OW72751   2.675   3.260   0.068  0.6693  0.1454  0.2366
24058SOL    HW172752   2.730   3.283   0.143  0.7280  1.6811 -0.2416
24058SOL    HW272753   2.605   3.326   0.069 -0.8892 -1.4406  0.5224
24059SOL     OW72754   6.240   7.534   9.003  0.1966  0.1800 -0.6147
24059SOL    HW172755   6.298   7.589   8.950 -0.5388  1.0762 -0.5228
24059SOL    HW272756   6.158   7.530   8.953 -0.0513 -0.0811 -0.1920
24060SOL     OW72757   7.876   7.013   3.728 -0.2432  0.3434  0.1505
24060SOL    HW172758   7.859   7.093   3.777  0.7760  1.1401 -0.7309
24060SOL    HW272759   7.823   7.021   3.649 -0.7770 -0.2600  0.4368
24061SOL     OW72760   7.148   3.568   3.057 -0.1839  0.3645 -0.1534
24061SOL    HW172761   7.102   3.567   3.140 -0.1423 -0.7414 -0.1194
24061SOL    HW272762   7.184   3.656   3.050 -0.0470  0.4238  1.0728
24062SOL     OW72763   8.283   2.936   9.060  0.4077  0.1694  0.1514
24062SOL    HW172764   8.242   2.873   9.120  3.1523 -2.3484 -0.3651
24062SOL    HW272765   8.243   2.918   8.975  1.8212 -1.6801 -0.1855
24063SOL     OW72766   8.076   3.086   6.308 -0.3021  0.2283  0.2902
24063SOL    HW172767   8.042   3.036   6.234  1.4901 -0.7318  0.0657
24063SOL    HW272768   8.166   3.107   6.284 -0.0310  0.8642  1.7354
24064SOL     OW72769   0.285   9.258   2.665 -0.1190  0.5466  0.9757
24064SOL    HW172770   0.272   9.341   2.710 -0.9777  0.1186  1.5448
24064SOL    HW272771   0.215   9.202   2.698 -0.8830  0.2544 -0.9909
24065SOL     OW72772   5.862   4.573   3.742 -0.0540 -0.1572 -0.0002
24065SOL    HW172773   5.868   4.668   3.736 -0.6031 -0.1405 -0.3141
24065SOL    HW272774   5.896   4.553   3.830 -0.7408  0.4053  0.4054
24066SOL     OW72775   8.289   8.197   9.797  0.2888  0.5617  0.4983
24066SOL    HW172776   8.301   8.288   9.772  2.1244  0.1172 -0.3917
24066SOL    HW272777   8.377   8.165   9.815 -0.5147 -0.4051  3.2609
24067SOL     OW72778   2.689   0.202   4.470 -0.3274 -0.5456 -0.7135
24067SOL    HW172779   2.600   0.170   4.480 -0.1540 -0.3692  2.7652
24067SOL    HW272780   2.732   0.138   4.414 -2.2650 -1.4370 -1.2469
24068SOL     OW72781   1.435   2.954   8.926  0.4092 -0.1191 -0.7786
24068SOL    HW172782   1.413   2.929   8.837  0.1492  1.5951 -1.2409
24068SOL    HW272783   1.483   3.036   8.916 -2.1526  1.7247  0.7416
24069SOL     OW72784   1.829   8.607   0.521 -0.3018  0.3318 -0.1836
24069SOL    HW172785   1.783   8.569   0.595  1.0801 -1.6910 -0.2738
24069SOL    HW272786   1.908   8.553   0.512  0.3407  1.5047 -2.1441
24070SOL     OW72787   8.554   6.474   0.987  0.3254  0.1654  0.3768
24070SOL    HW172788   8.602   6.414   1.043 -0.6301 -0.5600  0.4390
24070SOL    HW272789   8.620   6.511   0.928  0.8957 -1.0616  0.2282
24071SOL     OW72790   2.927   6.541   3.908  0.6212 -0.0374 -0.2416
24071SOL    HW172791   2.925   6.445   3.904  0.8024 -0.2620  2.4949
24071SOL    HW272792   2.846   6.569   3.865  0.0021 -1.5001 -0.0903
24072SOL     OW72793   7.148   2.628   0.138 -0.0842  0.3242  0.0054
24072SOL    HW172794   7.125   2.543   0.102  0.1375  0.7233 -1.1066
24072SOL    HW272795   7.244   2.628   0.141  0.0171  1.3158 -2.0080
24073SOL     OW72796   6.358   3.318   2.350  0.7097  0.4501 -0.0063
24073SOL    HW172797   6.282   3.366   2.384  0.5920  0.3938 -0.1912
24073SOL    HW272798   6.417   3.312   2.425  0.6179  0.6653  0.0868
24074SOL     OW72799   7.391   0.788   7.618 -0.2881  0.2495  0.1049
24074SOL    HW172800   7.335   0.785   7.540  0.6217  0.2820 -0.5655
24074SOL    HW272801   7.454   0.857   7.599  0.0324  0.1554  0.8163
24075SOL     OW72802   6.160   3.715   1.813 -0.1511 -0.1923  1.0834
24075SOL    HW172803   6.172   3.670   1.897 -0.1596  0.2962  1.3532
24075SOL    HW272804   6.183   3.650   1.747 -0.5684 -0.7261  1.4486
24076SOL     OW72805   7.171   4.237   8.390 -0.4091 -0.8065 -0.0853
24076SOL    HW172806   7.215   4.293   8.454 -0.7875  0.2158 -0.6988
24076SOL    HW272807   7.207   4.149   8.406  1.2841 -0.1385 -0.0801
24077SOL     OW72808   9.711   8.714   9.989  0.3925  0.9146 -0.5676
24077SOL    HW172809   9.754   8.799   9.997  2.4958 -0.0129 -1.2706
24077SOL    HW272810   9.705   8.699   9.895  2.9282 -0.9850 -0.5431
24078SOL     OW72811   4.358   4.620   2.892  0.4102 -0.1243  0.5213
24078SOL    HW172812   4.311   4.699   2.917 -1.0707 -0.3153 -1.4383
24078SOL    HW272813   4.311   4.549   2.935 -0.0236 -0.1638 -0.0095
24079SOL     OW72814   4.272   3.152   2.524  0.0471 -0.5108 -0.4795
24079SOL    HW172815   4.211   3.217   2.560  1.0875 -0.0519  0.5131
24079SOL    HW272816   4.216   3.091   2.476 -1.2973 -0.6030  1.1156
24080SOL     OW72817   5.237   6.768   4.857 -0.5192 -0.0593 -0.1665
24080SOL    HW172818   5.274   6.680   4.861 -2.0306 -0.8023 -1.3527
24080SOL    HW272819   5.246   6.802   4.946  0.0576 -1.4277  0.3236
24081SOL     OW72820   4.920   4.410   5.020  0.0377  0.0247  0.7703
24081SOL    HW172821   4.852   4.343   5.027 -1.2961  1.2186 -0.2389
24081SOL    HW272822   4.879   4.489   5.055  1.0019  0.7020  0.3862
24082SOL     OW72823   5.472   6.603   9.821 -0.5686 -0.5939 -0.0828
24082SOL    HW172824   5.390   6.653   9.816  0.7665  1.5412 -2.5820
24082SOL    HW272825   5.530   6.658   9.874  0.0663 -0.8002 -0.5558
24083SOL     OW72826   8.123   0.505   1.916 -0.0004 -0.2244 -0.0752
24083SOL    HW172827   8.081   0.427   1.879  1.8037 -1.1742 -0.2039
24083SOL    HW272828   8.146   0.480   2.005  1.3168 -0.1437 -0.3758
24084SOL     OW72829   9.660   7.169   2.726 -0.1163 -0.4786 -0.9121
24084SOL    HW172830   9.607   7.240   2.689 -0.8771  0.0951  1.1284
24084SOL    HW272831   9.611   7.090   2.705 -2.1017  0.0610  1.2092
24085SOL     OW72832   0.629   2.137   7.831 -0.0157 -0.3326 -0.1958
24085SOL    HW172833   0.569   2.133   7.904 -0.6117 -1.5493 -0.7175
24085SOL    HW272834   0.578   2.107   7.756  0.4984  1.1479 -1.1795
24086SOL     OW72835   2.443   0.053   5.865  0.3704  0.5561  0.3091
24086SOL    HW172836   2.520  -0.004   5.868  0.2075  0.2551 -0.8656
24086SOL    HW272837   2.474   0.137   5.899  0.2903 -0.5258  3.3407
24087SOL     OW72838   0.203   7.032   1.410 -0.9065  0.1883 -0.7263
24087SOL    HW172839   0.154   6.980   1.475  0.6957 -1.0499 -0.4384
24087SOL    HW272840   0.174   6.997   1.326 -0.4116 -0.6916 -0.5531
24088SOL     OW72841   4.151   9.666   9.894 -0.3107 -0.5111  0.2249
24088SOL    HW172842   4.113   9.708   9.818 -0.2607 -0.2958  0.3185
24088SOL    HW272843   4.187   9.583   9.861  1.1535  0.3010 -0.3056
24089SOL     OW72844   0.664   9.226   8.116 -0.7145  0.0893  0.1661
24089SOL    HW172845   0.746   9.198   8.075  0.7667 -0.0737  2.9465
24089SOL    HW272846   0.653   9.317   8.090 -0.7609 -0.4334 -1.8095
24090SOL     OW72847   4.922   7.427   3.467 -0.4317 -0.5846 -0.4355
24090SOL    HW172848   4.948   7.477   3.390 -0.4959  0.7110  0.3655
24090SOL    HW272849   4.999   7.374   3.489 -0.6961 -1.6397 -1.8744
24091SOL     OW72850   2.061   9.473   4.608  0.1499  0.3999  0.0916
24091SOL    HW172851   2.060   9.484   4.513 -0.7102  1.2770  0.1941
24091SOL    HW272852   2.120   9.398   4.622  0.3111  0.2732 -1.1187
24092SOL     OW72853   7.781   7.922   4.192  0.5259 -0.4964 -0.0405
24092SOL    HW172854   7.791   7.877   4.108  1.1850 -2.6940  1.1581
24092SOL    HW272855   7.782   8.015   4.169  2.6979 -0.9686 -2.2655
24093SOL     OW72856   6.437   3.200   8.863 -0.5187  0.0831  0.2180
24093SOL    HW172857   6.405   3.140   8.930  1.7481 -1.2593  0.1931
24093SOL    HW272858   6.385   3.279   8.874 -2.4953 -1.2958  1.3222
24094SOL     OW72859   7.352   4.609   0.039  0.1772 -0.4282  0.1618
24094SOL    HW172860   7.395   4.670   0.099  0.6243  1.5241 -1.9974
24094SOL    HW272861   7.404   4.529   0.046 -0.5822 -0.7971  3.2643
24095SOL     OW72862   2.191   9.206   5.349  0.7374  0.4286  0.4581
24095SOL    HW172863   2.164   9.298   5.347 -1.9149 -0.2419 -2.9843
24095SOL    HW272864   2.245   9.195   5.271 -0.1264 -1.1901  0.0527
24096SOL     OW72865   5.991   7.195   6.273 -0.2007 -0.1619 -0.4583
24096SOL    HW172866   5.968   7.238   6.190  2.1519  1.6042 -0.2676
24096SOL    HW272867   5.913   7.207   6.328 -0.0646  3.0570 -0.7700
24097SOL     OW72868   6.371   6.581   7.447  0.0776  0.0217  0.3398
24097SOL    HW172869   6.342   6.571   7.538 -0.6845 -1.1824 -0.0114
24097SOL    HW272870   6.359   6.674   7.428 -0.4049  0.1591  1.2676
24098SOL     OW72871   6.561   3.035   2.655  0.1347 -0.1455 -0.1515
24098SOL    HW172872   6.504   3.103   2.620  0.4223 -0.2344 -0.8077
24098SOL    HW272873   6.511   2.954   2.645  0.4992 -0.2719 -1.0492
24099SOL     OW72874   8.627   9.597   5.750 -0.2981 -0.2590 -0.8831
24099SOL    HW172875   8.593   9.668   5.695 -0.5759 -0.5649 -1.1088
24099SOL    HW272876   8.551   9.544   5.773 -0.5828  1.1386  1.7521
24100SOL     OW72877   8.269   6.266   4.219 -0.6561 -0.8032 -0.0664
24100SOL    HW172878   8.187   6.304   4.187  0.4428  0.8086 -1.1185
24100SOL    HW272879   8.277   6.183   4.172 -2.7750 -2.1584  1.7744
24101SOL     OW72880   9.127   1.779   3.668  0.3012  0.0305  0.2042
24101SOL    HW172881   9.034   1.798   3.681  0.4958  0.2608  1.4468
24101SOL    HW272882   9.153   1.839   3.598 -0.5705 -0.3428 -0.4638
24102SOL     OW72883   1.759   4.010   3.144 -0.4994  0.0280  0.1911
24102SOL    HW172884   1.665   4.001   3.160 -0.6092  1.0862  0.1772
24102SOL    HW272885   1.786   3.924   3.112 -1.4614 -0.2837  0.1969
24103SOL     OW72886   7.037   9.329   8.627 -0.1926  0.2301 -0.8509
24103SOL    HW172887   6.957   9.379   8.639  1.2234  2.3096  0.6080
24103SOL    HW272888   7.078   9.367   8.550  0.0235  0.0810 -0.8115
24104SOL     OW72889   1.655   1.038   5.813 -0.1597  0.2189 -0.3973
24104SOL    HW172890   1.719   0.995   5.756  0.7213 -0.0381  0.7286
24104SOL    HW272891   1.619   1.109   5.761  0.0713 -0.4632 -1.5088
24105SOL     OW72892   2.006   3.031   1.641 -0.5388 -0.1169 -1.0003
24105SOL    HW172893   2.037   2.974   1.572  1.1533  2.0261 -2.1216
24105SOL    HW272894   2.069   3.103   1.644 -2.5043  1.6943  0.3393
24106SOL     OW72895   7.961   6.268   1.148 -0.0712 -0.1406  0.5469
24106SOL    HW172896   7.946   6.195   1.208 -0.2798  0.0363  0.7100
24106SOL    HW272897   7.946   6.231   1.061 -0.6896 -0.1611  0.6608
24107SOL     OW72898   2.710   5.968   8.182 -0.0753  0.1263 -0.1182
24107SOL    HW172899   2.756   5.915   8.247  2.1665  0.9964 -0.8838
24107SOL    HW272900   2.642   6.013   8.232 -0.4223 -1.5419  0.9944
24108SOL     OW72901   0.021   4.037   9.292 -0.4080  0.4459 -0.3208
24108SOL    HW172902   0.067   4.028   9.376 -0.4817  1.2240 -0.1910
24108SOL    HW272903   0.088   4.062   9.230 -0.2578 -0.6265 -0.6216
24109SOL     OW72904   3.621   8.309   7.715 -0.0244  0.0160  0.2049
24109SOL    HW172905   3.606   8.220   7.682  2.5051 -0.1245 -0.7732
24109SOL    HW272906   3.593   8.365   7.642  0.8624 -0.1072 -0.2446
24110SOL     OW72907   3.343   3.043   8.382 -0.0498  0.4455  0.1468
24110SOL    HW172908   3.347   2.993   8.300  0.2258  1.9744 -0.8188
24110SOL    HW272909   3.435   3.062   8.403  0.3000 -3.3756  3.1321
24111SOL     OW72910   2.309   0.769   1.342  0.3623  0.5416  0.2361
24111SOL    HW172911   2.219   0.801   1.329 -0.4987 -1.2409  1.3442
24111SOL    HW272912   2.323   0.709   1.269 -0.0879 -0.6095  1.0696
24112SOL     OW72913   2.131   6.814   0.021  0.3657 -0.0417  0.4083
24112SOL    HW172914   2.103   6.725   0.001  2.9830 -0.7475 -0.5474
24112SOL    HW272915   2.080   6.839   0.098 -0.7438 -2.1856  0.4367
24113SOL     OW72916   3.246   8.986   0.081 -0.0164 -0.3628  0.1201
24113SOL    HW172917   3.246   8.896   0.049  1.0986  0.0684 -1.1821
24113SOL    HW272918   3.277   9.038   0.007 -2.2944  1.3372  0.2511
24114SOL     OW72919   3.431   9.144   3.118 -0.3191  0.2213  0.7769
24114SOL    HW172920   3.411   9.181   3.204  0.7699 -2.2928  2.1994
24114SOL    HW272921   3.346   9.118   3.083 -0.5889 -0.8771  2.1691
24115SOL     OW72922   5.157   8.868   5.152 -0.0200 -0.3063 -0.1252
24115SOL    HW172923   5.128   8.848   5.063  0.4469 -1.4836 -0.0257
24115SOL    HW272924   5.233   8.926   5.139 -0.8300  0.7247 -0.4369
24116SOL     OW72925   4.786   1.008   7.875  0.2997 -0.0246  0.4770
24116SOL    HW172926   4.830   1.080   7.921  0.2474 -0.8898  1.9434
24116SOL    HW272927   4.729   0.969   7.941 -0.6156 -0.6418 -0.6492
24117SOL     OW72928   4.585   7.957   6.709 -0.0581 -0.0587  0.0271
24117SOL    HW172929   4.553   7.982   6.622 -0.1774 -1.6598 -0.4218
24117SOL    HW272930   4.666   7.909   6.691  0.6761  0.7894  0.9176
24118SOL     OW72931   6.823   7.776   4.372  0.0529 -0.0898  0.0056
24118SOL    HW172932   6.791   7.866   4.361 -0.8640 -0.6162 -2.1947
24118SOL    HW272933   6.744   7.725   4.390  0.6489 -0.4135  1.9210
24119SOL     OW72934   7.892   7.051   0.155  0.0555  0.3723 -0.5243
24119SOL    HW172935   7.837   7.120   0.192  0.7444 -0.0393  1.3864
24119SOL    HW272936   7.846   7.024   0.075 -0.1226  3.1419 -1.4585
24120SOL     OW72937   3.052   8.421   4.466 -0.0445 -0.1040  0.1298
24120SOL    HW172938   3.148   8.424   4.470 -0.0261  0.0719 -0.3580
24120SOL    HW272939   3.031   8.329   4.485  0.2555 -0.2690 -0.3102
24121SOL     OW72940   5.777   2.447   3.212 -0.0156 -0.1822 -0.3708
24121SOL    HW172941   5.752   2.538   3.227 -0.7979 -0.3407 -0.6449
24121SOL    HW272942   5.825   2.421   3.290  0.2694  0.4830 -0.3216
24122SOL     OW72943   9.539   7.114   8.454 -0.1855  0.3363  0.6668
24122SOL    HW172944   9.462   7.148   8.408 -0.4709 -0.6638  0.3760
24122SOL    HW272945   9.613   7.144   8.402 -0.5370 -3.6256 -2.6965
24123SOL     OW72946   0.331   2.901   7.423  0.7796  0.3281  0.2144
24123SOL    HW172947   0.254   2.845   7.413  1.9086 -1.5677  1.5408
24123SOL    HW272948   0.371   2.904   7.336  1.2771 -1.8865  0.3180
24124SOL     OW72949   9.405   7.106   8.050  0.3411  0.0553 -0.4061
24124SOL    HW172950   9.367   7.183   8.092  0.6146 -0.1108  0.1510
24124SOL    HW272951   9.380   7.033   8.106  2.1011  0.0247  0.3928
24125SOL     OW72952   7.730   0.803   5.066 -0.4305  0.3553 -0.5327
24125SOL    HW172953   7.795   0.832   5.130 -1.2149 -0.9018  0.8741
24125SOL    HW272954   7.707   0.882   5.018 -0.4090  1.5040  1.2664
24126SOL     OW72955   1.875   7.460   5.444 -0.0568 -0.0511  0.6321
24126SOL    HW172956   1.791   7.417   5.460 -0.6991  1.2145  0.7364
24126SOL    HW272957   1.933   7.423   5.510 -0.0020 -2.3049 -0.5824
24127SOL     OW72958   9.440   3.452   5.845 -0.0957  0.2447 -0.6381
24127SOL    HW172959   9.444   3.499   5.928 -0.8247  0.9955 -1.0103
24127SOL    HW272960   9.469   3.363   5.866 -1.1959  0.1584  0.6083
24128SOL     OW72961   9.219   3.572   5.328  0.0243 -0.6223 -0.0771
24128SOL    HW172962   9.273   3.519   5.269 -2.0652 -2.2789 -0.6392
24128SOL    HW272963   9.129   3.554   5.300 -0.8605  3.5526 -0.4864
24129SOL     OW72964   8.636   9.737   3.785 -0.2511  0.1697  0.2107
24129SOL    HW172965   8.549   9.765   3.756 -0.4366  0.2788  0.8594
24129SOL    HW272966   8.696   9.780   3.724 -0.7023 -1.1441 -1.2166
24130SOL     OW72967   4.838   3.554   8.840 -0.4438  0.4828  0.4628
24130SOL    HW172968   4.805   3.466   8.857  0.9302 -0.2807 -0.5753
24130SOL    HW272969   4.906   3.542   8.773 -0.1669  2.3226  0.3465
24131SOL     OW72970   1.442   5.906   6.364  0.5211  0.3276 -0.3371
24131SOL    HW172971   1.522   5.923   6.313  0.4386  1.6298 -0.0699
24131SOL    HW272972   1.402   5.992   6.374 -0.0192 -0.0648  1.0366
24132SOL     OW72973   8.320   7.851   6.822 -0.1425 -1.0658  0.1003
24132SOL    HW172974   8.290   7.869   6.733 -2.4610  1.4086  1.2456
24132SOL    HW272975   8.391   7.914   6.837  0.6828 -1.9059 -0.1398
24133SOL     OW72976   0.687   7.757   1.145  0.4010  0.2708  0.2002
24133SOL    HW172977   0.669   7.707   1.225  2.5580 -2.3372 -0.7962
24133SOL    HW272978   0.766   7.807   1.166  0.6479  0.0062 -0.0778
24134SOL     OW72979   6.806   4.646   4.846 -0.1571 -0.4681 -0.1043
24134SOL    HW172980   6.882   4.650   4.788  1.2611  0.5060  1.7260
24134SOL    HW272981   6.740   4.702   4.804  1.1464  0.9304 -0.3557
24135SOL     OW72982   4.561   5.109   5.649  0.4192 -0.5359 -0.1103
24135SOL    HW172983   4.622   5.040   5.676  2.5012  1.5501  0.9499
24135SOL    HW272984   4.537   5.153   5.731 -0.3074  0.4093 -0.8093
24136SOL     OW72985   9.369   7.441   8.129  0.0162  0.2598  0.2377
24136SOL    HW172986   9.362   7.390   8.209 -0.6971  0.9559  0.6310
24136SOL    HW272987   9.457   7.422   8.096  0.0400 -0.6217  0.7702
24137SOL     OW72988   6.927   1.916   7.201 -0.3580  0.3446 -0.0555
24137SOL    HW172989   6.982   1.913   7.279 -1.9827  1.7496  1.2387
24137SOL    HW272990   6.865   1.844   7.212 -0.7088  0.6596  0.0587
24138SOL     OW72991   8.112   3.181   0.151  0.5517 -0.9626  0.2451
24138SOL    HW172992   8.056   3.259   0.159  1.9337 -0.0482  1.8280
24138SOL    HW272993   8.052   3.110   0.130 -1.0922  0.1205  1.0382
24139SOL     OW72994   3.771   7.313   1.570 -0.2726 -0.3524  0.0723
24139SOL    HW172995   3.748   7.370   1.497  2.1149  0.6227  0.0016
24139SOL    HW272996   3.864   7.293   1.558 -0.6478 -3.0497  0.9609
24140SOL     OW72997   2.506   4.037   1.240  0.2382 -0.1706  0.2411
24140SOL    HW172998   2.448   4.111   1.222 -0.0727  0.0739  2.0145
24140SOL    HW272999   2.550   4.061   1.322  2.4538 -0.6032 -0.7540
24141SOL     OW73000   3.631   1.422   4.322 -0.1505 -0.3068  0.3518
24141SOL    HW173001   3.545   1.463   4.318 -0.3231 -0.4969  1.6112
24141SOL    HW273002   3.613   1.329   4.305 -0.0855 -0.2223 -0.1737
24142SOL     OW73003   4.852   9.536   3.165  0.2878 -0.0139 -0.2837
24142SOL    HW173004   4.812   9.610   3.209  0.6959  0.4087 -0.6168
24142SOL    HW273005   4.846   9.464   3.228  1.0754  0.6402  0.5613
24143SOL     OW73006   6.898   6.822   1.025 -0.2733  0.7295 -0.3312
24143SOL    HW173007   6.947   6.740   1.030 -0.9290  0.3295 -0.3216
24143SOL    HW273008   6.964   6.889   1.005  0.3065  0.2436 -0.0641
24144SOL     OW73009   5.540   7.659   4.865  0.3771 -0.1367 -0.1082
24144SOL    HW173010   5.586   7.743   4.863 -0.3082  0.2281 -1.0241
24144SOL    HW273011   5.608   7.596   4.886  0.8347  0.6786  0.9992
24145SOL     OW73012   5.023   3.803   8.587  0.7832  0.1194 -0.2615
24145SOL    HW173013   4.954   3.863   8.615 -0.2184 -0.4309 -1.4287
24145SOL    HW273014   4.977   3.739   8.532  2.1363 -0.6196 -0.5649
24146SOL     OW73015   1.570   2.016   9.122 -0.5325 -0.0100  0.4271
24146SOL    HW173016   1.539   2.039   9.034  0.6165 -2.7419 -0.8021
24146SOL    HW273017   1.550   1.923   9.131  3.2373 -0.9247  1.2225
24147SOL     OW73018   2.287   4.276   0.074 -0.6114 -0.1382  0.0226
24147SOL    HW173019   2.215   4.223   0.108 -0.3146 -1.2446 -1.0313
24147SOL    HW273020   2.307   4.238  -0.011  1.0324  0.3174  0.1709
24148SOL     OW73021   5.674   1.376   3.671  0.3879 -0.3563  0.0998
24148SOL    HW173022   5.599   1.346   3.724  1.1392 -1.5543  0.5454
24148SOL    HW273023   5.636   1.436   3.607 -0.6614  0.5764  1.5399
24149SOL     OW73024   4.467   3.133   5.427  0.0618 -0.6937  0.6900
24149SOL    HW173025   4.461   3.188   5.349 -0.0115  0.4957  1.5072
24149SOL    HW273026   4.397   3.068   5.416  1.6197 -2.1257 -1.3866
24150SOL     OW73027   7.177   8.225   7.666 -0.5618  0.1695  0.0140
24150SOL    HW173028   7.197   8.279   7.742 -0.8396 -1.5190  1.3533
24150SOL    HW273029   7.106   8.271   7.621  1.6714  2.8406 -1.1032
24151SOL     OW73030   8.769   7.249   3.411 -0.2546 -0.2950 -0.4361
24151SOL    HW173031   8.814   7.300   3.478 -0.0573 -0.6939 -0.2602
24151SOL    HW273032   8.677   7.254   3.436 -0.5879  2.1460 -1.8861
24152SOL     OW73033   9.734   3.461   8.180 -0.2782 -0.2339 -0.0801
24152SOL    HW173034   9.668   3.490   8.243  0.5496  1.0148  0.2587
24152SOL    HW273035   9.781   3.391   8.225  1.7634  2.0890  1.7062
24153SOL     OW73036   4.834   1.650   0.703 -0.3115  0.4281 -1.1665
24153SOL    HW173037   4.782   1.715   0.749 -0.2221  1.4552 -2.4523
24153SOL    HW273038   4.851   1.689   0.617 -1.0176 -1.6531 -2.3311
24154SOL     OW73039   9.305   8.830   8.372 -0.1910 -0.0503  0.1830
24154SOL    HW173040   9.221   8.786   8.356 -0.0652 -0.2991  0.2075
24154SOL    HW273041   9.281   8.920   8.391 -0.4313 -0.0358 -0.1788
24155SOL     OW73042   4.987   8.579   9.319  0.6292  0.4692 -0.0042
24155SOL    HW173043   4.901   8.553   9.288  1.3497 -0.8709 -0.9901
24155SOL    HW273044   4.985   8.674   9.320 -1.1950  0.4608  1.0266
24156SOL     OW73045   9.092   8.396   0.515  0.0833 -0.0304  0.1702
24156SOL    HW173046   9.150   8.471   0.529  0.6474  0.3632 -3.3103
24156SOL    HW273047   9.149   8.320   0.526  0.8506  0.2894 -1.3777
24157SOL     OW73048   0.902   9.964   1.712  0.7106  0.0165  0.3851
24157SOL    HW173049   0.986   9.951   1.756  1.1013 -1.8472 -0.7881
24157SOL    HW273050   0.903   9.901   1.639 -1.2948  0.6412 -0.2521
24158SOL     OW73051   4.684   0.136   3.311 -0.4247 -0.2311  0.2762
24158SOL    HW173052   4.766   0.086   3.314 -0.3214 -0.0061  1.8039
24158SOL    HW273053   4.618   0.072   3.285  0.2672 -0.3387 -1.3343
24159SOL     OW73054   7.992   1.701   4.775 -0.4261  0.4572 -0.0913
24159SOL    HW173055   7.921   1.697   4.840 -0.2075  3.0622  0.4132
24159SOL    HW273056   8.065   1.741   4.822  1.0212 -1.0119 -0.9651
24160SOL     OW73057   8.122   8.994   6.960  0.0443  0.8229 -0.6271
24160SOL    HW173058   8.081   8.961   6.880 -0.5924 -0.3450  0.1484
24160SOL    HW273059   8.087   8.939   7.029  1.9609  0.6168  0.2490
24161SOL     OW73060   7.229   6.829   7.688 -0.0137  0.2897  0.1417
24161SOL    HW173061   7.265   6.844   7.775 -0.4460 -2.0945  0.8156
24161SOL    HW273062   7.170   6.903   7.672  2.1182  2.2082  0.6599
24162SOL     OW73063   9.071   4.810   9.635  0.3779  0.0066 -0.3888
24162SOL    HW173064   9.126   4.885   9.656  0.7657 -0.2442 -0.4928
24162SOL    HW273065   9.046   4.774   9.721  1.1556 -0.4355 -0.3364
24163SOL     OW73066   1.451   8.440   7.702  0.1822  0.2625 -0.2972
24163SOL    HW173067   1.540   8.463   7.674 -0.2191  0.0787 -1.8680
24163SOL    HW273068   1.395   8.504   7.657 -0.5220 -0.1119  0.0355
24164SOL     OW73069   2.235   8.552   2.467  0.3921  0.0065  0.8041
24164SOL    HW173070   2.322   8.586   2.488 -0.2678  0.5696  2.9642
24164SOL    HW273071   2.247   8.458   2.455  1.6689  0.4026 -1.5928
24165SOL     OW73072   0.692   3.773   2.738 -0.1525  0.3505  0.8967
24165SOL    HW173073   0.668   3.735   2.654  2.4278  0.8851 -0.1531
24165SOL    HW273074   0.717   3.698   2.792  1.6559  0.2237 -0.0505
24166SOL     OW73075   6.079   4.415   1.081  0.4093  0.3025 -0.1916
24166SOL    HW173076   6.009   4.351   1.079  0.2655  0.4219  0.7568
24166SOL    HW273077   6.160   4.363   1.080  0.2941  0.0688  1.2980
24167SOL     OW73078   3.952   7.250   1.325 -0.2952  0.2669  0.2716
24167SOL    HW173079   3.993   7.266   1.240 -0.2482  1.6336  0.5200
24167SOL    HW273080   3.913   7.164   1.317  1.1521 -0.3522 -0.5593
24168SOL     OW73081   1.220   0.958   7.602 -0.2113  0.0283 -0.2574
24168SOL    HW173082   1.157   0.894   7.569  0.7995 -0.8481 -0.5548
24168SOL    HW273083   1.194   0.972   7.693 -1.2076  0.1640 -0.5495
24169SOL     OW73084   2.660   1.537   1.280 -0.2049 -0.6770  0.4692
24169SOL    HW173085   2.747   1.570   1.255 -0.3283 -0.6950  0.0008
24169SOL    HW273086   2.600   1.582   1.221 -0.5047 -0.7376  0.7305
24170SOL     OW73087   1.204   7.763   6.058  0.0907  0.3288 -0.1552
24170SOL    HW173088   1.116   7.737   6.033 -1.2086  2.3571  1.9773
24170SOL    HW273089   1.238   7.690   6.109 -0.5894 -0.2110 -0.4720
24171SOL     OW73090   9.087   8.186   7.909 -0.3281  0.7425 -0.1912
24171SOL    HW173091   9.090   8.152   7.819 -2.6802 -2.2571  0.6805
24171SOL    HW273092   9.146   8.128   7.957 -0.9612  0.7714  0.6210
24172SOL     OW73093   8.448   5.202   6.873 -0.3920  0.0020 -0.5559
24172SOL    HW173094   8.446   5.224   6.780  0.5363 -1.2115 -0.8884
24172SOL    HW273095   8.378   5.138   6.884 -0.8236  0.5150 -0.3146
24173SOL     OW73096   5.604   3.587   9.187  0.0154  0.5867 -0.3914
24173SOL    HW173097   5.519   3.548   9.165 -0.2183  0.5948  0.4671
24173SOL    HW273098   5.638   3.617   9.103 -0.7243  0.3732 -0.7841
24174SOL     OW73099   2.241   0.982   5.812 -0.2754 -0.8997 -0.1289
24174SOL    HW173100   2.331   0.978   5.844 -0.5051 -2.1097  0.4070
24174SOL    HW273101   2.238   0.919   5.740 -0.4320 -0.0576 -0.8926
24175SOL     OW73102   0.649   4.726   7.331  0.1195  0.3130 -0.0161
24175SOL    HW173103   0.706   4.718   7.407 -1.0026  1.1556  0.9390
24175SOL    HW273104   0.560   4.721   7.366 -0.4275 -0.8101 -1.4552
24176SOL     OW73105   1.065   4.491   1.379  0.3031  0.0911 -0.4207
24176SOL    HW173106   0.988   4.530   1.421  1.0247  1.9053 -0.6671
24176SOL    HW273107   1.042   4.487   1.286 -0.1851 -1.1572 -0.2609
24177SOL     OW73108   6.198   5.982   8.432  0.1245 -0.0010 -0.1985
24177SOL    HW173109   6.233   5.893   8.426  1.7664  0.4275  1.7901
24177SOL    HW273110   6.110   5.970   8.467  0.6986 -0.8427  1.0526
24178SOL     OW73111   5.143   3.113   2.696  0.3823  0.0299  0.2455
24178SOL    HW173112   5.185   3.032   2.670 -1.6934 -1.3695  0.9561
24178SOL    HW273113   5.104   3.094   2.781  0.7195  2.1302  0.9335
24179SOL     OW73114   3.775   8.818   3.868 -0.2865 -0.0012  0.2596
24179SOL    HW173115   3.765   8.740   3.923 -1.8028 -0.2396 -0.3073
24179SOL    HW273116   3.849   8.798   3.811  0.0729 -0.5362  0.8991
24180SOL     OW73117   8.266   1.678   4.956  0.4540 -0.0087  0.4558
24180SOL    HW173118   8.264   1.618   4.882  0.3689  1.0621 -0.4442
24180SOL    HW273119   8.264   1.622   5.033 -1.3424 -1.1204 -0.3293
24181SOL     OW73120   5.222   3.566   0.109  0.6355 -0.3265  0.3461
24181SOL    HW173121   5.184   3.638   0.160  0.9624 -0.3573  0.6408
24181SOL    HW273122   5.305   3.547   0.154  0.9789 -0.2825 -0.2636
24182SOL     OW73123   7.929   0.724   0.927  0.1287  0.4005 -0.3988
24182SOL    HW173124   8.017   0.700   0.954 -0.2231  0.8450  1.2977
24182SOL    HW273125   7.918   0.814   0.957  0.5787  2.0245 -4.4466
24183SOL     OW73126   4.699   3.879   5.953 -0.0592 -0.7620  0.1005
24183SOL    HW173127   4.677   3.944   5.886 -0.6721 -2.0346 -1.0101
24183SOL    HW273128   4.790   3.855   5.935  0.0753 -0.4105  0.3242
24184SOL     OW73129   6.238   9.647   7.756 -0.2176 -0.3729 -0.0015
24184SOL    HW173130   6.198   9.730   7.784 -0.5104 -0.4545 -0.1740
24184SOL    HW273131   6.323   9.646   7.799 -1.4557 -1.4552  2.6053
24185SOL     OW73132   1.390   5.820   4.474 -0.0516  0.5258 -0.4221
24185SOL    HW173133   1.297   5.842   4.462 -0.3730 -0.1555  0.6846
24185SOL    HW273134   1.426   5.895   4.523 -0.8735 -0.7170  2.2930
24186SOL     OW73135   6.106   7.921   1.818  0.6251 -0.2953 -0.5585
24186SOL    HW173136   6.053   7.982   1.869  0.1829 -0.2195 -1.1009
24186SOL    HW273137   6.195   7.932   1.852  0.2667 -0.5864  0.5126
24187SOL     OW73138   0.858   0.070   6.118 -0.6362 -0.4730 -0.2428
24187SOL    HW173139   0.817  -0.008   6.081 -0.2581 -0.6154 -0.3641
24187SOL    HW273140   0.938   0.081   6.067 -0.1850 -0.5807  0.4364
24188SOL     OW73141   7.234   4.352   9.387 -0.0856  0.0995 -0.3546
24188SOL    HW173142   7.198   4.441   9.391 -1.6968 -0.5003 -0.8301
24188SOL    HW273143   7.233   4.322   9.478  0.2393  0.4691 -0.2229
24189SOL     OW73144   0.827   4.051   7.855 -0.1677 -0.0028 -0.7358
24189SOL    HW173145   0.742   4.085   7.881  0.0884 -0.5303  0.9246
24189SOL    HW273146   0.858   4.112   7.788 -0.9069  1.4567  0.1858
24190SOL     OW73147   0.221   2.335   5.472 -0.1775 -0.0726 -0.5020
24190SOL    HW173148   0.287   2.273   5.503  1.3954  0.6552 -2.2214
24190SOL    HW273149   0.138   2.289   5.483  0.7736 -1.7459 -0.0029
24191SOL     OW73150   2.612   7.649   4.164  0.5582 -0.3231  0.1407
24191SOL    HW173151   2.638   7.578   4.105 -1.1566 -1.2231  0.4161
24191SOL    HW273152   2.520   7.632   4.184  0.6612  0.8479  1.8384
24192SOL     OW73153   2.335   9.151   9.240 -0.3096 -0.0592 -0.1420
24192SOL    HW173154   2.425   9.184   9.241 -1.1415  2.5240  1.8939
24192SOL    HW273155   2.341   9.064   9.279  1.2670  0.2028  0.2774
24193SOL     OW73156   6.631   8.005   6.410 -0.0568  0.0975 -0.1531
24193SOL    HW173157   6.701   8.068   6.395  0.4506 -0.2375  0.7467
24193SOL    HW273158   6.667   7.921   6.380 -0.6026  0.1732 -1.0278
24194SOL     OW73159   0.694   7.337   5.695 -0.2896 -0.2542 -0.3781
24194SOL    HW173160   0.671   7.247   5.717  1.7366 -0.7251  0.1017
24194SOL    HW273161   0.696   7.382   5.779 -2.3189  0.5482 -0.7180
24195SOL     OW73162   5.025   3.599   2.037 -0.3646  0.2987 -0.0500
24195SOL    HW173163   4.979   3.622   1.956 -2.2665  0.1088  0.9293
24195SOL    HW273164   4.980   3.522   2.069 -1.5544  1.9645  2.6176
24196SOL     OW73165   5.495   7.348   7.656 -0.2234 -0.4168 -0.3643
24196SOL    HW173166   5.570   7.353   7.715 -0.0199 -2.3261 -0.3987
24196SOL    HW273167   5.420   7.367   7.712  0.0943 -0.7800  0.2035
24197SOL     OW73168   0.268   5.869   7.452  0.1494  0.0941 -0.2428
24197SOL    HW173169   0.274   5.935   7.383  1.1816  1.3782  1.0091
24197SOL    HW273170   0.177   5.874   7.481 -0.0997  0.0767 -1.0011
24198SOL     OW73171   4.310   6.734   4.898  0.3013 -0.2428  0.7638
24198SOL    HW173172   4.264   6.651   4.882 -0.3591  0.2695 -0.0539
24198SOL    HW273173   4.283   6.759   4.986 -1.8527  0.5426 -0.0328
24199SOL     OW73174   9.657   7.183   5.638 -0.7599  0.1718  0.1105
24199SOL    HW173175   9.671   7.227   5.554  0.7565  0.5346  0.5120
24199SOL    HW273176   9.745   7.170   5.673 -1.2385 -1.9922  0.6483
24200SOL     OW73177   7.966   9.338   7.886  0.1030  0.1883 -0.0256
24200SOL    HW173178   8.043   9.281   7.884 -0.1453 -0.1377 -0.6453
24200SOL    HW273179   7.963   9.376   7.798  0.9830  2.1442  0.7158
24201SOL     OW73180   6.056   5.676   9.183  0.4368 -0.5008  0.1042
24201SOL    HW173181   6.080   5.728   9.106  0.7064 -1.2883 -0.3589
24201SOL    HW273182   6.053   5.739   9.255  0.4262  0.2067 -0.5062
24202SOL     OW73183   7.283   9.330   4.720 -0.0660 -0.5666 -0.4755
24202SOL    HW173184   7.246   9.394   4.782 -1.4083 -1.2277 -0.5570
24202SOL    HW273185   7.378   9.342   4.728 -0.2083 -0.3349  1.4021
24203SOL     OW73186   9.873   2.238   6.784 -0.2986  0.3184 -0.3500
24203SOL    HW173187   9.861   2.326   6.820  1.1660  0.9797 -1.3664
24203SOL    HW273188   9.854   2.247   6.691  0.8679 -0.1732 -0.6616
24204SOL     OW73189   9.702   7.647   4.899 -0.5329 -0.4327  0.7711
24204SOL    HW173190   9.735   7.698   4.825 -0.0185 -0.5847  0.8912
24204SOL    HW273191   9.778   7.637   4.957 -0.5743 -1.4803  0.6667
24205SOL     OW73192   6.737   1.482   1.159 -0.1428 -0.1813 -1.0061
24205SOL    HW173193   6.659   1.493   1.214  0.5254  0.8195 -0.2235
24205SOL    HW273194   6.719   1.403   1.108 -0.3994 -1.7553  1.3462
24206SOL     OW73195   0.663   5.825   9.416  0.1900  0.2123 -0.0048
24206SOL    HW173196   0.600   5.821   9.344 -0.8469  1.6881  0.7556
24206SOL    HW273197   0.653   5.740   9.460 -1.3164  0.4148  0.1115
24207SOL     OW73198   0.538   4.068   7.913  0.0098  0.4012 -0.3937
24207SOL    HW173199   0.463   4.127   7.920 -0.3081 -0.1129  0.7570
24207SOL    HW273200   0.501   3.981   7.928  0.9018  0.1761  0.5649
24208SOL     OW73201   2.909   7.180   4.068 -0.2171 -0.1823 -0.2999
24208SOL    HW173202   2.828   7.148   4.026 -0.0585 -1.1961  0.1371
24208SOL    HW273203   2.960   7.216   3.996 -0.1469 -1.4952 -0.9421
24209SOL     OW73204   5.128   7.115   6.014 -0.0346  0.4651 -0.4542
24209SOL    HW173205   5.199   7.094   5.954  0.8052  1.3207  0.2130
24209SOL    HW273206   5.050   7.077   5.974  0.7110 -0.0255 -1.4625
24210SOL     OW73207   1.160   9.570   2.939 -0.7881  0.4734  0.5633
24210SOL    HW173208   1.161   9.613   3.024 -1.6157  1.1289  0.2611
24210SOL    HW273209   1.229   9.505   2.944 -0.8052  0.5233  1.7223
24211SOL     OW73210   4.763   1.438   2.112  0.1743 -0.3362  0.3535
24211SOL    HW173211   4.723   1.523   2.129 -0.1239 -0.4270  0.1178
24211SOL    HW273212   4.765   1.431   2.017 -1.8622 -1.5290  0.3398
24212SOL     OW73213   1.262   8.173   9.230 -0.1217 -0.1387  0.1727
24212SOL    HW173214   1.319   8.097   9.220  2.2239  1.2746  1.7643
24212SOL    HW273215   1.307   8.244   9.185 -0.5090  1.0771  1.5946
24213SOL     OW73216   4.184   5.712   1.769 -0.4302 -0.0119 -0.4753
24213SOL    HW173217   4.158   5.646   1.704 -1.1848  0.2127 -0.4091
24213SOL    HW273218   4.160   5.674   1.853  1.5268 -0.7631 -0.2221
24214SOL     OW73219   9.399   3.939   2.037 -0.6442  0.5215  0.0482
24214SOL    HW173220   9.450   4.010   1.998 -0.7626  0.5418 -0.0702
24214SOL    HW273221   9.312   3.947   1.996 -0.3589 -0.3504 -0.7520
24215SOL     OW73222   2.954   3.772   9.297  0.5140 -0.1471  0.4856
24215SOL    HW173223   2.939   3.740   9.386  0.5553 -0.7835  0.2719
24215SOL    HW273224   2.954   3.867   9.305 -0.1111 -0.1867  1.0676
24216SOL     OW73225   4.351   5.219   0.553 -0.2287 -0.2070 -0.6495
24216SOL    HW173226   4.276   5.195   0.606  0.2324 -0.5014 -0.1183
24216SOL    HW273227   4.389   5.295   0.597 -0.1905 -0.0840 -0.8920
24217SOL     OW73228   5.013   9.018   7.218  1.1418 -0.0189 -0.4837
24217SOL    HW173229   5.006   9.070   7.299  1.9529 -0.2673 -0.2387
24217SOL    HW273230   4.969   8.936   7.238 -0.2509  0.5874 -0.9106
24218SOL     OW73231   2.776   4.268   7.466  0.1767 -0.2498  0.1252
24218SOL    HW173232   2.699   4.249   7.520 -0.3332  0.5306 -0.3068
24218SOL    HW273233   2.836   4.197   7.484 -1.7635 -2.5179 -1.6703
24219SOL     OW73234   5.042   5.196   0.585  0.3253 -0.0850 -0.2559
24219SOL    HW173235   5.102   5.218   0.514  1.4659  2.3621  1.3181
24219SOL    HW273236   4.956   5.227   0.554  0.7205  0.5126 -0.7686
24220SOL     OW73237   8.681   4.822   8.862  0.2856 -0.6169 -0.1325
24220SOL    HW173238   8.620   4.755   8.831  0.2236  0.2860 -2.1091
24220SOL    HW273239   8.767   4.783   8.852  0.1390 -1.3477  1.2550
24221SOL     OW73240   3.498   8.012   0.502 -0.1796  0.6872  0.2699
24221SOL    HW173241   3.453   7.982   0.423 -0.5695 -1.3055  1.1787
24221SOL    HW273242   3.447   8.087   0.532 -0.5945  0.8620 -0.8207
24222SOL     OW73243   4.748   9.652   4.710  0.8711 -0.0015 -0.6247
24222SOL    HW173244   4.764   9.565   4.746  2.4088  0.9804  1.2010
24222SOL    HW273245   4.666   9.681   4.750  0.5102 -0.4556 -1.0135
24223SOL     OW73246   7.461   4.865   8.835  0.1120  0.5110 -0.0664
24223SOL    HW173247   7.489   4.851   8.925  0.2768 -0.2667 -0.2320
24223SOL    HW273248   7.533   4.829   8.782  1.2162  3.2005 -0.5549
24224SOL     OW73249   0.368   7.479   1.852 -0.3302  0.0371  0.6093
24224SOL    HW173250   0.457   7.498   1.823  0.1363 -0.1056  1.8638
24224SOL    HW273251   0.336   7.412   1.792  0.4341  0.0552  0.1780
24225SOL     OW73252   8.031   5.096   6.408  0.0825 -0.6508  0.0701
24225SOL    HW173253   8.103   5.126   6.352 -0.1054 -1.3015 -0.5409
24225SOL    HW273254   8.019   5.004   6.383 -0.3253 -0.8185  0.8523
24226SOL     OW73255   9.207   6.770   1.486  0.3208  0.1788 -0.9905
24226SOL    HW173256   9.172   6.737   1.569  1.2921 -1.1656 -1.0889
24226SOL    HW273257   9.138   6.753   1.422  0.5727 -1.1990 -0.9312
24227SOL     OW73258   7.501   7.799   3.664  0.3028  0.0296  0.6094
24227SOL    HW173259   7.500   7.861   3.591  1.0218  1.3334  1.6752
24227SOL    HW273260   7.578   7.745   3.648 -0.0594 -0.3087 -0.0666
24228SOL     OW73261   1.647   9.224   4.092 -0.3048  0.1291  0.0969
24228SOL    HW173262   1.608   9.138   4.106 -0.6862 -0.1528 -2.3153
24228SOL    HW273263   1.604   9.280   4.156 -2.3503 -0.8440 -0.3420
24229SOL     OW73264   6.395   4.751   4.116  0.2434  0.8793 -0.3514
24229SOL    HW173265   6.433   4.798   4.042  1.7892  1.7617  0.9253
24229SOL    HW273266   6.470   4.710   4.160 -0.5503  0.7771  0.9784
24230SOL     OW73267   5.641   2.459   6.321 -0.3442 -0.1966  0.4418
24230SOL    HW173268   5.625   2.479   6.413 -0.1324 -0.8203  0.6151
24230SOL    HW273269   5.559   2.484   6.277  0.3904  2.4417  0.4091
24231SOL     OW73270   8.206   2.328   6.039  0.4570  0.5221 -0.3659
24231SOL    HW173271   8.246   2.342   5.953 -0.0910  3.1189 -0.2523
24231SOL    HW273272   8.270   2.363   6.101  0.7027 -1.0478  0.3278
24232SOL     OW73273   9.056   6.955   3.837 -0.8124 -0.0509 -0.1854
24232SOL    HW173274   8.970   6.914   3.845  0.0482 -2.0095 -0.4978
24232SOL    HW273275   9.037   7.048   3.827 -2.8512 -0.3201  0.7006
24233SOL     OW73276   9.507   4.576   5.230  0.3604 -0.5447 -0.2792
24233SOL    HW173277   9.488   4.662   5.192 -0.6825 -1.2081 -1.3160
24233SOL    HW273278   9.423   4.531   5.231  1.0039 -1.7836 -0.3481
24234SOL     OW73279   9.266   0.978   1.322 -0.4974  0.0807  0.0659
24234SOL    HW173280   9.300   1.067   1.311 -2.8412  0.9067 -1.3141
24234SOL    HW273281   9.223   0.958   1.239 -0.2851 -2.2533  0.4582
24235SOL     OW73282   0.043   2.110   3.822 -0.1619 -0.1282 -0.0563
24235SOL    HW173283   0.126   2.156   3.834  0.0067  0.0846 -1.6855
24235SOL    HW273284   0.064   2.039   3.761 -1.2905  0.3601 -1.0431
24236SOL     OW73285   3.174   2.537   6.516 -0.0857 -0.1046  0.0311
24236SOL    HW173286   3.228   2.461   6.539  0.7439  0.5279  0.2231
24236SOL    HW273287   3.224   2.612   6.548 -0.7377  0.5461 -0.4527
24237SOL     OW73288   2.794   9.960   4.307 -0.0970  0.1500 -0.0271
24237SOL    HW173289   2.772   9.872   4.276  1.5617  0.1098 -1.2343
24237SOL    HW273290   2.877   9.949   4.353  0.5498  1.1836 -0.9011
24238SOL     OW73291   5.730   7.842   3.957  0.3753  0.6318  0.1654
24238SOL    HW173292   5.795   7.884   4.013  1.7363 -0.3938 -0.5812
24238SOL    HW273293   5.652   7.835   4.012  1.4863  0.1576  1.7596
24239SOL     OW73294   3.826   0.285   2.359 -0.3335 -0.2245  0.7257
24239SOL    HW173295   3.760   0.227   2.396 -2.1733  0.3096 -1.4713
24239SOL    HW273296   3.819   0.365   2.412 -0.8056 -0.4961  1.0846
24240SOL     OW73297   5.895   5.347   1.109  0.5219  0.2718  0.5006
24240SOL    HW173298   5.875   5.385   1.194 -1.0941  0.1912  0.1908
24240SOL    HW273299   5.944   5.268   1.129 -0.9868 -0.4762  1.4640
24241SOL     OW73300   3.601   6.241   2.705 -0.2051  0.9780 -0.4464
24241SOL    HW173301   3.562   6.244   2.618  0.5753  0.6344 -0.8125
24241SOL    HW273302   3.571   6.158   2.742  1.1309  0.1216 -1.1983
24242SOL     OW73303   6.111   0.201   7.489 -0.1197  0.2093  0.2057
24242SOL    HW173304   6.072   0.114   7.491  1.4133 -0.4887  0.7832
24242SOL    HW273305   6.166   0.205   7.567  1.1773  1.0481 -0.7135
24243SOL     OW73306   1.020   3.462   1.414 -0.3889 -0.4109 -0.2266
24243SOL    HW173307   0.954   3.412   1.460 -1.3977 -1.2361 -2.4264
24243SOL    HW273308   0.975   3.542   1.387 -0.6209 -1.0589 -1.8973
24244SOL     OW73309   7.698   0.945   5.518 -0.9067 -0.6277  0.1114
24244SOL    HW173310   7.650   0.880   5.569  0.5257 -0.0670  2.3399
24244SOL    HW273311   7.757   0.895   5.463 -0.9950 -1.2316  0.5629
24245SOL     OW73312   7.709   9.358   0.228  0.5914  0.2980 -0.3421
24245SOL    HW173313   7.692   9.422   0.159 -0.7530 -0.9110 -1.1892
24245SOL    HW273314   7.718   9.275   0.182  0.2336 -0.4542  0.8927
24246SOL     OW73315   7.696   3.958   0.692  0.3811  0.1725 -0.2152
24246SOL    HW173316   7.663   3.927   0.608  0.3734 -2.1251  0.5640
24246SOL    HW273317   7.791   3.947   0.685  0.2959 -1.1617  0.4557
24247SOL     OW73318   1.301   4.775   6.214 -0.4197 -0.4257  0.6148
24247SOL    HW173319   1.276   4.696   6.263  1.6938 -1.0520  0.7959
24247SOL    HW273320   1.392   4.758   6.188 -0.7608  0.8701 -1.5873
24248SOL     OW73321   3.431   5.079   5.837  0.2176 -0.0379 -0.4530
24248SOL    HW173322   3.449   5.002   5.890  0.4852 -0.9633 -1.8471
24248SOL    HW273323   3.477   5.063   5.754  0.5695  1.7773 -0.6504
24249SOL     OW73324   0.620   6.813   2.554 -0.3736  0.0142 -0.1413
24249SOL    HW173325   0.557   6.866   2.603  1.3143  0.9834  1.0887
24249SOL    HW273326   0.679   6.877   2.514  2.1638 -0.8437  1.9930
24250SOL     OW73327   4.544   2.368   6.626 -0.4299  0.3667  0.4361
24250SOL    HW173328   4.542   2.387   6.720  0.0701  1.1261  0.2991
24250SOL    HW273329   4.522   2.451   6.584  2.2122  0.8469 -0.1793
24251SOL     OW73330   0.054   2.038   3.411  0.2564 -0.2609  0.3900
24251SOL    HW173331   0.000   2.100   3.362 -0.9480 -1.6709 -0.1402
24251SOL    HW273332  -0.001   2.013   3.485  1.2828  0.3302  1.3881
24252SOL     OW73333   5.037   8.124   3.810 -0.5045 -0.2810  0.0634
24252SOL    HW173334   5.128   8.140   3.837 -0.3906 -1.1813  0.2500
24252SOL    HW273335   4.990   8.111   3.892 -0.8243  0.2772 -0.0298
24253SOL     OW73336   8.457   6.549   3.175  0.1029  0.0336 -0.4712
24253SOL    HW173337   8.479   6.629   3.127  2.8763 -0.5414 -0.2813
24253SOL    HW273338   8.420   6.491   3.109 -1.3015  1.1656 -0.7420
24254SOL     OW73339   1.870   0.134   8.943  0.5113 -0.7690 -0.5987
24254SOL    HW173340   1.777   0.122   8.924  0.6019 -1.7783 -0.4551
24254SOL    HW273341   1.881   0.100   9.031  0.7855  0.5407 -0.1059
24255SOL     OW73342   5.498   6.073   9.833 -0.2371  0.2475  0.7874
24255SOL    HW173343   5.525   6.026   9.912  0.0898 -1.0901 -0.0846
24255SOL    HW273344   5.413   6.037   9.811  0.8870 -1.5001 -1.0261
24256SOL     OW73345   4.919   6.013   1.882 -0.0166 -0.4309 -0.1919
24256SOL    HW173346   4.835   6.034   1.922 -1.7246 -4.6225 -0.9893
24256SOL    HW273347   4.933   5.920   1.902  2.4640 -0.9369 -3.3406
24257SOL     OW73348   9.811   3.838   7.988  0.0966 -0.4216 -0.5309
24257SOL    HW173349   9.847   3.865   8.072  0.9747 -0.6670 -0.8142
24257SOL    HW273350   9.716   3.835   8.002  0.0097  1.9379 -0.2618
24258SOL     OW73351   8.210   0.007   9.648 -0.0439  0.0835  0.3281
24258SOL    HW173352   8.136  -0.011   9.706 -0.5683 -0.7939 -0.5974
24258SOL    HW273353   8.255   0.082   9.689 -1.3508  0.5341  0.9762
24259SOL     OW73354   9.313   9.283   3.807  0.0335  0.1244  0.1218
24259SOL    HW173355   9.258   9.262   3.883  0.7927 -0.0323  0.6424
24259SOL    HW273356   9.392   9.230   3.820  0.4265  0.5568 -0.4712
24260SOL     OW73357   6.967   8.743   1.717 -0.2788 -0.5663  0.0872
24260SOL    HW173358   6.874   8.721   1.715 -0.1665 -1.2774  1.6681
24260SOL    HW273359   7.008   8.672   1.765  0.8021  0.6689  1.0778
24261SOL     OW73360   1.950   0.175   6.831 -0.2009  0.4828 -0.2714
24261SOL    HW173361   2.017   0.131   6.778  1.0949  0.6588  1.1447
24261SOL    HW273362   1.997   0.203   6.910 -1.7780  1.3533  0.3998
24262SOL     OW73363   0.037   0.384   1.201 -0.0027  0.0657 -0.0901
24262SOL    HW173364   0.131   0.390   1.222  0.5148 -1.1320 -1.7754
24262SOL    HW273365   0.034   0.326   1.124 -2.1712 -0.2303  0.1592
24263SOL     OW73366   4.022   7.681   7.190  0.1156 -0.1923  0.3331
24263SOL    HW173367   4.091   7.672   7.124  1.3719  3.4921  0.9148
24263SOL    HW273368   4.067   7.668   7.274 -1.4031 -4.5169  0.7426
24264SOL     OW73369   2.182   2.242   1.047  0.1467  0.5441 -0.1227
24264SOL    HW173370   2.166   2.335   1.065  1.0076  0.5925  0.3987
24264SOL    HW273371   2.095   2.208   1.026 -0.2401  1.3861  0.0373
24265SOL     OW73372   2.249   7.793   5.793 -0.4876 -0.2396 -0.4354
24265SOL    HW173373   2.245   7.864   5.858 -0.0377 -0.3087 -0.3325
24265SOL    HW273374   2.341   7.787   5.770 -0.5626 -0.6254 -0.6355
24266SOL     OW73375   7.281   3.104   7.736  0.1119 -0.3803 -0.4893
24266SOL    HW173376   7.314   3.059   7.658  1.8752  1.6903 -1.0394
24266SOL    HW273377   7.192   3.071   7.747  1.0549 -3.4311 -1.1982
24267SOL     OW73378   9.792   6.802   1.082  0.0736  0.5252  0.4140
24267SOL    HW173379   9.742   6.724   1.108  0.8448 -0.0277  0.2570
24267SOL    HW273380   9.825   6.781   0.995  2.0589  0.1455  1.2053
24268SOL     OW73381   6.741   1.323   6.446  0.3088 -0.0670  0.0813
24268SOL    HW173382   6.689   1.372   6.510 -2.2033 -2.1795 -0.1571
24268SOL    HW273383   6.737   1.232   6.477 -0.1704 -1.0101 -2.4728
24269SOL     OW73384   9.096   6.792   8.661 -0.0985  0.4415 -0.6635
24269SOL    HW173385   9.087   6.767   8.753 -1.1454  1.2552 -0.5383
24269SOL    HW273386   9.153   6.869   8.663  0.2147  0.2130 -0.7380
24270SOL     OW73387   2.461   0.663   8.165 -0.3087  0.7124 -0.9313
24270SOL    HW173388   2.495   0.604   8.097 -1.4541  0.4439 -1.2823
24270SOL    HW273389   2.390   0.614   8.206 -0.3405  1.3076 -0.2731
24271SOL     OW73390   4.880   5.761   1.638 -0.3345 -0.1763  0.3491
24271SOL    HW173391   4.852   5.698   1.704 -0.5971 -0.8163 -0.3602
24271SOL    HW273392   4.814   5.830   1.640 -0.7323 -0.5495  0.2644
24272SOL     OW73393   9.615   9.655   7.486  0.4228 -0.0002 -0.0905
24272SOL    HW173394   9.638   9.569   7.450  0.3201  0.5256 -1.4785
24272SOL    HW273395   9.693   9.708   7.472 -0.0142  0.5231 -0.5799
24273SOL     OW73396   3.446   9.438   4.472  0.4008 -0.6523 -0.1510
24273SOL    HW173397   3.425   9.418   4.563 -0.3295  1.3162  0.1640
24273SOL    HW273398   3.532   9.481   4.476  0.3765 -0.5776 -0.3979
24274SOL     OW73399   2.883   8.325   1.172 -0.2253  0.0263  0.8530
24274SOL    HW173400   2.842   8.408   1.149 -1.7819 -0.6141  1.1777
24274SOL    HW273401   2.977   8.341   1.165 -0.5351  1.3410 -0.6908
24275SOL     OW73402   8.266   6.804   3.407 -0.4864 -0.2354 -0.0657
24275SOL    HW173403   8.253   6.832   3.316  0.7536  0.0909 -0.1606
24275SOL    HW273404   8.354   6.834   3.429 -0.1797 -1.6522  0.7462
24276SOL     OW73405   9.191   0.617   6.687  0.0705 -0.1120 -0.0984
24276SOL    HW173406   9.221   0.700   6.652  0.2782 -0.0598  0.1995
24276SOL    HW273407   9.190   0.557   6.612  0.4413  0.0156 -0.2022
24277SOL     OW73408   7.495   3.317   0.486  0.2198 -0.3358 -0.1539
24277SOL    HW173409   7.575   3.274   0.519 -0.1628 -0.1593  1.0745
24277SOL    HW273410   7.425   3.281   0.540 -0.4514 -0.0306 -0.8128
24278SOL     OW73411   6.306   9.773   0.102 -0.3921 -0.4876  0.2710
24278SOL    HW173412   6.301   9.867   0.085 -0.1067 -0.6783 -1.0027
24278SOL    HW273413   6.327   9.766   0.195  0.0662  0.7168  0.2749
24279SOL     OW73414   0.327   3.987   4.627  0.0912 -0.4868 -0.1627
24279SOL    HW173415   0.401   4.018   4.577  0.6611 -0.1290  0.8727
24279SOL    HW273416   0.347   3.895   4.645  0.8941 -0.0729  1.1588
24280SOL     OW73417   1.844   7.372   0.092 -0.1249 -0.1088 -0.1295
24280SOL    HW173418   1.807   7.441   0.037 -1.3741  0.4465  1.3327
24280SOL    HW273419   1.889   7.419   0.163 -2.1063 -0.6816  1.6273
24281SOL     OW73420   3.323   2.996   8.109 -0.0177  0.2510 -0.1536
24281SOL    HW173421   3.288   2.985   8.021 -0.2959  0.1254 -0.0303
24281SOL    HW273422   3.316   2.910   8.149 -0.5104  0.4549  0.2108
24282SOL     OW73423   5.509   7.187   9.625 -1.2936 -0.5505  0.1007
24282SOL    HW173424   5.576   7.238   9.579 -1.6671 -1.4891 -1.5755
24282SOL    HW273425   5.559   7.129   9.683 -0.5864 -1.4535 -1.3492
24283SOL     OW73426   8.308   7.319   8.661 -0.2749 -0.2592  0.2199
24283SOL    HW173427   8.402   7.326   8.649 -0.4693  3.6248 -0.3896
24283SOL    HW273428   8.280   7.255   8.595  1.9322 -2.1809  1.0294
24284SOL     OW73429   6.196   2.113   0.583 -0.1053 -0.5560 -0.1105
24284SOL    HW173430   6.284   2.150   0.588 -0.6195  0.7598 -0.5092
24284SOL    HW273431   6.144   2.179   0.538 -0.4852 -2.8520 -3.4453
24285SOL     OW73432   1.983   5.983   0.645 -0.5817  0.4549 -0.1247
24285SOL    HW173433   1.913   5.931   0.604 -0.1563  0.0121 -0.3093
24285SOL    HW273434   2.006   6.048   0.579 -0.5772  0.3697 -0.2086
24286SOL     OW73435   7.055   2.877   8.859  0.2434 -0.1452  0.2721
24286SOL    HW173436   7.021   2.965   8.841 -0.8116 -0.3903  0.9695
24286SOL    HW273437   7.095   2.885   8.946  1.4387 -0.0208 -0.2688
24287SOL     OW73438   5.942   0.373   0.960 -0.3280  0.2181  0.8523
24287SOL    HW173439   5.852   0.356   0.986 -0.2272  0.6646  1.4992
24287SOL    HW273440   5.994   0.361   1.039  0.1806  0.0220  0.5001
24288SOL     OW73441   5.268   1.861   4.034  0.7053  0.1888 -0.1428
24288SOL    HW173442   5.251   1.772   4.005 -1.3335  0.8367 -1.1778
24288SOL    HW273443   5.224   1.916   3.969  0.3394  1.8843  1.4448
24289SOL     OW73444   5.907   3.149   5.330 -0.3514  0.1418 -0.0356
24289SOL    HW173445   5.915   3.126   5.422 -1.0477  0.0905  0.0162
24289SOL    HW273446   5.928   3.068   5.283 -0.8504 -0.0713  0.1014
24290SOL     OW73447   2.090   2.269   0.138 -0.3443  0.2522  0.3342
24290SOL    HW173448   2.136   2.304   0.062 -0.4450  1.2066  0.6982
24290SOL    HW273449   2.105   2.175   0.134  1.7872  0.5443  0.5449
24291SOL     OW73450   0.065   0.920   1.439 -0.4325  0.5073 -0.2719
24291SOL    HW173451   0.060   0.832   1.475 -2.6529 -0.2307 -2.1850
24291SOL    HW273452   0.031   0.976   1.509  0.5316 -0.1720  0.7754
24292SOL     OW73453   5.875   4.837   2.094 -0.1657  0.8081 -0.0231
24292SOL    HW173454   5.817   4.766   2.066  1.7970 -1.3533  1.0192
24292SOL    HW273455   5.822   4.916   2.085 -2.2357 -0.6590 -1.9710
24293SOL     OW73456   1.648   8.394   5.642  0.3080 -0.4214 -0.1596
24293SOL    HW173457   1.576   8.349   5.687 -0.3586 -0.6471 -1.3831
24293SOL    HW273458   1.698   8.323   5.600  0.7975 -0.2079  0.0530
24294SOL     OW73459   0.105   6.104   1.653  0.4244 -0.2129 -0.1741
24294SOL    HW173460   0.128   6.158   1.578  0.0193 -0.7431 -0.6892
24294SOL    HW273461   0.016   6.131   1.675  0.2608 -0.5864 -0.3652
24295SOL     OW73462   2.913   1.952   8.911  0.8165  0.5471 -0.0989
24295SOL    HW173463   2.869   2.006   8.976 -0.8618 -1.1208  0.2212
24295SOL    HW273464   3.006   1.961   8.933  0.3329  0.0566  2.5673
24296SOL     OW73465   6.889   4.065   3.110  0.0009 -0.7798 -0.3668
24296SOL    HW173466   6.924   4.033   3.193 -0.8150 -0.6735  0.0310
24296SOL    HW273467   6.873   3.986   3.058  1.3826 -0.8045 -0.8037
24297SOL     OW73468   2.042   0.348   3.756 -0.3935  0.2842  0.0508
24297SOL    HW173469   2.047   0.346   3.661 -1.8783  1.1527 -0.0767
24297SOL    HW273470   2.055   0.257   3.783  0.3455  0.0786 -0.9421
24298SOL     OW73471   4.608   4.763   9.074  0.4729 -0.3452  0.3830
24298SOL    HW173472   4.698   4.733   9.062  0.0255 -1.6325  0.0607
24298SOL    HW273473   4.614   4.859   9.078  2.0779 -0.4701  2.3716
24299SOL     OW73474   5.974   4.506   8.463  0.0229 -0.0431  0.0093
24299SOL    HW173475   6.030   4.580   8.439  0.5322 -0.5453 -0.3681
24299SOL    HW273476   5.885   4.540   8.454  0.1967 -0.0016 -2.0253
24300SOL     OW73477   6.482   4.841   5.686 -0.2016  0.4480  0.7313
24300SOL    HW173478   6.480   4.899   5.609 -3.2190 -1.7836 -1.0891
24300SOL    HW273479   6.570   4.803   5.684 -0.2275  0.2972 -1.8101
24301SOL     OW73480   2.960   3.010   2.658  0.2120  0.3027 -0.8178
24301SOL    HW173481   2.935   2.958   2.582 -3.0161  0.8031 -0.2383
24301SOL    HW273482   3.007   2.949   2.714 -0.8657 -1.2034 -1.4768
24302SOL     OW73483   0.796   1.296   5.635 -0.3706  0.4161  0.0631
24302SOL    HW173484   0.876   1.335   5.670  0.0572 -1.0704  0.7946
24302SOL    HW273485   0.783   1.217   5.686 -1.3964 -0.2462 -1.1581
24303SOL     OW73486   1.083   7.170   8.803  0.2586 -0.5629 -0.3029
24303SOL    HW173487   1.060   7.095   8.858  0.5772 -0.1200  0.4506
24303SOL    HW273488   1.115   7.131   8.721 -0.6962 -1.2239 -0.3823
24304SOL     OW73489   1.797   9.858   3.894  0.2979 -0.4303 -0.3953
24304SOL    HW173490   1.826   9.904   3.815 -2.8630  2.4242 -0.1601
24304SOL    HW273491   1.709   9.826   3.872 -1.2070  1.5171  2.1796
24305SOL     OW73492   9.294   3.301   2.965  0.1770 -0.0226 -0.0695
24305SOL    HW173493   9.323   3.284   2.876 -0.9447 -0.6514 -0.3334
24305SOL    HW273494   9.337   3.234   3.018  1.4590  0.8259  0.0057
24306SOL     OW73495   7.402   1.498   5.622  0.0467 -0.3379  0.1760
24306SOL    HW173496   7.316   1.540   5.623 -1.1237 -2.4728  3.0470
24306SOL    HW273497   7.422   1.485   5.529 -2.7065  0.2090 -0.5764
24307SOL     OW73498   4.665   8.709   0.099  0.1456 -0.3645  0.0834
24307SOL    HW173499   4.693   8.682   0.012  1.5843  0.2117  0.3456
24307SOL    HW273500   4.701   8.796   0.110  0.9152 -0.8512  1.6711
24308SOL     OW73501   5.526   7.353   0.370  0.3633  0.0475  0.2249
24308SOL    HW173502   5.447   7.398   0.343  0.6311 -0.3902 -1.3904
24308SOL    HW273503   5.518   7.265   0.333  1.8863  0.1959 -0.5658
24309SOL     OW73504   0.721   8.204   4.308 -0.0430  0.3028 -0.3588
24309SOL    HW173505   0.685   8.186   4.395  0.8800  0.5667  0.0983
24309SOL    HW273506   0.661   8.268   4.270 -0.1315  0.6539  0.3402
24310SOL     OW73507   8.760   5.021   6.257 -0.2277  0.1385 -0.8658
24310SOL    HW173508   8.742   4.934   6.222 -0.9231  0.0308 -0.2718
24310SOL    HW273509   8.682   5.072   6.236  0.3872  0.7669 -1.6592
24311SOL     OW73510   5.828   1.700   0.374  0.1323 -0.1764  0.1713
24311SOL    HW173511   5.776   1.669   0.448 -0.8198  2.4678  0.7177
24311SOL    HW273512   5.801   1.791   0.362  2.5252  0.4208 -1.4507
24312SOL     OW73513   5.688   3.072   2.285  0.1120  0.4063  0.1146
24312SOL    HW173514   5.638   3.047   2.363  0.9803 -1.4381  0.1179
24312SOL    HW273515   5.660   3.162   2.267 -2.4714 -0.2013  0.6706
24313SOL     OW73516   1.611   3.016   7.625  0.2870  0.6537  0.0360
24313SOL    HW173517   1.561   3.057   7.695  0.3356 -1.5366  1.4399
24313SOL    HW273518   1.665   2.950   7.668  1.3336  0.1282 -1.9222
24314SOL     OW73519   1.805   2.862   4.385  0.4306  0.4941  0.2399
24314SOL    HW173520   1.733   2.924   4.373  1.5656  2.0223  0.9516
24314SOL    HW273521   1.862   2.904   4.450  1.9055 -0.7136 -0.2227
24315SOL     OW73522   3.839   2.544   7.890 -0.2641 -0.2832  0.1267
24315SOL    HW173523   3.901   2.482   7.928 -0.9481 -0.6146  0.7027
24315SOL    HW273524   3.868   2.629   7.924  1.2885 -0.1115 -1.4533
24316SOL     OW73525   6.950   6.465   9.811 -0.0053 -0.2865 -0.2290
24316SOL    HW173526   6.953   6.369   9.803  0.3674 -0.3110  0.1763
24316SOL    HW273527   6.969   6.497   9.723 -0.9673 -0.5908 -0.5604
24317SOL     OW73528   9.600   5.155   1.046  0.4899  0.1312 -0.1672
24317SOL    HW173529   9.694   5.166   1.028  0.1671  1.4104 -1.2224
24317SOL    HW273530   9.597   5.124   1.137  1.9249  0.1663 -0.0759
24318SOL     OW73531   4.232   9.073   9.457  0.1852  0.7521 -0.4513
24318SOL    HW173532   4.206   9.160   9.487  0.9237  1.1806 -1.0014
24318SOL    HW273533   4.326   9.082   9.437  0.4334 -0.3515  0.1307
24319SOL     OW73534   1.252   1.593   1.086 -0.0556  0.2282 -0.2769
24319SOL    HW173535   1.189   1.624   1.151  0.4091  0.4538  0.0786
24319SOL    HW273536   1.202   1.583   1.006 -0.2990  1.5662 -0.3085
24320SOL     OW73537   4.435   7.729   4.326 -0.3238 -0.3688  0.1351
24320SOL    HW173538   4.375   7.750   4.398  0.6622 -1.6012  1.3813
24320SOL    HW273539   4.508   7.791   4.336 -0.5166 -0.0767 -0.2470
24321SOL     OW73540   1.785   5.330   8.599  0.5479  0.0790 -0.2977
24321SOL    HW173541   1.710   5.280   8.630  0.3171  0.3143 -0.4717
24321SOL    HW273542   1.765   5.350   8.507  0.9421 -0.0816 -0.4229
24322SOL     OW73543   0.840   0.564   3.942  0.3880  0.8317 -0.2914
24322SOL    HW173544   0.855   0.559   3.847  1.7501  0.5671 -0.0871
24322SOL    HW273545   0.927   0.553   3.980 -0.1420  0.9653  0.9972
24323SOL     OW73546   8.317   3.835   0.694 -0.8980  0.2778 -0.1975
24323SOL    HW173547   8.404   3.837   0.734 -1.2229 -1.4674  0.7142
24323SOL    HW273548   8.331   3.865   0.604  0.8445 -0.9233 -0.3769
24324SOL     OW73549   0.103   8.082   1.347  0.7777 -0.3710  0.0929
24324SOL    HW173550   0.040   8.154   1.350 -1.4517 -2.2391  1.5188
24324SOL    HW273551   0.127   8.075   1.254 -0.6762  0.7790 -0.4087
24325SOL     OW73552   9.679   0.646   3.806 -0.6369 -0.3912  0.0303
24325SOL    HW173553   9.686   0.669   3.898 -0.6446 -1.6893  0.3644
24325SOL    HW273554   9.599   0.691   3.776  0.0308  1.0374  0.3167
24326SOL     OW73555   8.955   7.087   6.677  0.0988 -0.1731  0.2322
24326SOL    HW173556   8.928   7.171   6.640 -0.7819 -0.6932 -0.3414
24326SOL    HW273557   8.873   7.045   6.704  0.4627 -1.1394 -0.1220
24327SOL     OW73558   4.847   7.268   8.587  0.0691 -0.1661 -0.0519
24327SOL    HW173559   4.827   7.344   8.533 -0.4382 -0.7951 -0.7768
24327SOL    HW273560   4.826   7.193   8.531  0.6774 -0.8414  0.6002
24328SOL     OW73561   6.912   2.269   3.818 -0.0213 -0.7068 -0.0776
24328SOL    HW173562   6.942   2.323   3.890 -2.2114  0.8291 -0.2308
24328SOL    HW273563   6.990   2.253   3.765  1.2285 -0.1870  1.5511
24329SOL     OW73564   6.744   0.281   3.122 -0.2575 -0.3797  0.4103
24329SOL    HW173565   6.690   0.297   3.199  1.0133  0.6703  1.1218
24329SOL    HW273566   6.832   0.310   3.148 -0.0484  1.2666 -1.8623
24330SOL     OW73567   6.850   9.144   8.760  0.5467 -0.0152  0.1416
24330SOL    HW173568   6.762   9.151   8.723  1.2107 -0.0242 -1.5246
24330SOL    HW273569   6.889   9.230   8.744  0.6207  0.2200  1.5041
24331SOL     OW73570   1.635   6.711   8.070  0.3384 -0.0890 -0.4297
24331SOL    HW173571   1.654   6.657   7.993 -2.4628  1.1262 -2.1118
24331SOL    HW273572   1.572   6.659   8.120 -0.4406  0.5375 -0.7481
24332SOL     OW73573   9.184   6.956   9.822  0.0194  0.4706 -0.5315
24332SOL    HW173574   9.218   7.039   9.790  0.0356  0.6920  0.0469
24332SOL    HW273575   9.230   6.941   9.904 -1.6559  1.0737  0.5750
24333SOL     OW73576   1.103   5.541   5.363  0.3472  0.1144  0.7400
24333SOL    HW173577   1.055   5.471   5.319 -1.4051  0.8475  1.3672
24333SOL    HW273578   1.186   5.546   5.317 -0.2987 -1.0105 -0.6341
24334SOL     OW73579   4.317   6.583   2.948 -0.8064  0.6617 -0.1459
24334SOL    HW173580   4.341   6.511   3.007 -0.3008  2.1613  1.5746
24334SOL    HW273581   4.315   6.543   2.861  1.4885 -1.0117  0.4633
24335SOL     OW73582   9.893   4.155   2.262  0.1618  0.1642  0.3194
24335SOL    HW173583   9.908   4.247   2.281 -1.7205  0.5095  0.2786
24335SOL    HW273584   9.911   4.110   2.345  0.8028  0.5911  0.4148
24336SOL     OW73585   0.172   7.912   1.963  0.2303  0.3949 -0.0108
24336SOL    HW173586   0.148   7.887   1.873  0.3893 -0.8171  0.2669
24336SOL    HW273587   0.107   7.869   2.018  0.9097  0.0303  0.5241
24337SOL     OW73588   6.690   7.012   3.390  0.0298 -0.3293  0.6469
24337SOL    HW173589   6.740   6.931   3.384 -2.1395 -1.6869 -0.4142
24337SOL    HW273590   6.697   7.038   3.482  3.6599  0.3403  0.3546
24338SOL     OW73591   8.309   2.333   7.536 -0.0890 -0.1356 -0.0338
24338SOL    HW173592   8.305   2.279   7.456 -1.4206  0.2070 -0.2267
24338SOL    HW273593   8.380   2.394   7.520 -0.4802  0.0728 -1.0726
24339SOL     OW73594   0.389   3.163   7.603  0.0244 -0.1721 -0.2530
24339SOL    HW173595   0.317   3.177   7.665 -1.2604 -0.1572 -1.7055
24339SOL    HW273596   0.408   3.070   7.608 -0.2939 -0.2293 -0.0877
24340SOL     OW73597   7.490   8.564   4.097  0.3207  0.9328 -0.5108
24340SOL    HW173598   7.434   8.539   4.171  0.1710  0.8237 -0.6587
24340SOL    HW273599   7.461   8.506   4.025  0.8073  0.6868 -0.5124
24341SOL     OW73600   1.108   7.806   9.234  0.3203 -0.0504 -0.1751
24341SOL    HW173601   1.051   7.860   9.179  0.8613  1.0027  0.2830
24341SOL    HW273602   1.170   7.867   9.273  1.3008 -1.0768 -0.0625
24342SOL     OW73603   9.397   9.789   6.824 -0.4094 -0.3065  0.7786
24342SOL    HW173604   9.400   9.747   6.738  1.3524  0.7414  0.2780
24342SOL    HW273605   9.430   9.723   6.884  0.4979 -0.3182  0.2867
24343SOL     OW73606   4.955   3.813   8.273 -0.3104 -0.3429 -0.3105
24343SOL    HW173607   4.969   3.844   8.184  0.0881  0.7431  0.1095
24343SOL    HW273608   4.929   3.891   8.322 -1.6946 -1.1485  0.2837
24344SOL     OW73609   5.696   8.025   7.704 -0.0376  0.0797  0.4007
24344SOL    HW173610   5.671   8.081   7.631  1.9516  1.0106  0.3637
24344SOL    HW273611   5.672   7.937   7.676 -0.2448  0.5427 -0.9453
24345SOL     OW73612   0.092   9.093   7.465  0.1163  0.0779  0.2553
24345SOL    HW173613   0.001   9.117   7.479  0.0322  0.2925 -0.6007
24345SOL    HW273614   0.094   8.998   7.475 -0.1093  0.1214  0.7383
24346SOL     OW73615   1.924   8.676   6.388  0.3908 -0.3175 -0.7109
24346SOL    HW173616   1.992   8.743   6.381  1.0393 -0.5861  1.9565
24346SOL    HW273617   1.852   8.719   6.435 -0.6886 -0.5068 -2.1176
24347SOL     OW73618   4.035   2.989   8.942 -0.2761  0.0900  0.1987
24347SOL    HW173619   3.996   3.069   8.908 -2.5832 -0.9597  0.1418
24347SOL    HW273620   3.968   2.953   9.001  0.8715 -1.5668  0.5822
24348SOL     OW73621   4.542   0.326   1.495 -0.7291 -0.1433  0.0095
24348SOL    HW173622   4.590   0.248   1.469 -0.6047 -0.0098 -0.1669
24348SOL    HW273623   4.452   0.309   1.467 -0.4582  0.2964 -1.1814
24349SOL     OW73624   7.123   2.572   2.952  0.4976  0.6462  0.4973
24349SOL    HW173625   7.116   2.489   2.905 -0.5476  0.3785  1.0800
24349SOL    HW273626   7.093   2.552   3.040  0.4905  1.5791  0.7181
24350SOL     OW73627   7.710   4.138   5.927  0.0629  0.3314  0.6327
24350SOL    HW173628   7.671   4.090   6.000  1.1025 -1.1904  0.2235
24350SOL    HW273629   7.737   4.221   5.965 -2.2012  0.8724  1.2632
24351SOL     OW73630   6.487   2.614   2.767  0.0635  0.0471  0.0212
24351SOL    HW173631   6.441   2.530   2.764  0.2846 -0.2020  2.0698
24351SOL    HW273632   6.564   2.598   2.822  0.8444  1.2681 -0.6613
24352SOL     OW73633   5.373   6.370   9.071  0.5269  0.0403 -0.6975
24352SOL    HW173634   5.361   6.309   9.144  2.6497  0.3948  0.0212
24352SOL    HW273635   5.317   6.445   9.092  0.5019 -0.2101  0.1611
24353SOL     OW73636   5.533   2.748   2.306  0.2721 -0.1386  0.1609
24353SOL    HW173637   5.493   2.665   2.281 -0.8116  0.4553 -0.1169
24353SOL    HW273638   5.621   2.744   2.268 -0.6169 -0.1312 -2.0061
24354SOL     OW73639   9.844   6.627   5.377 -0.2078 -0.1787  0.2130
24354SOL    HW173640   9.934   6.593   5.378  0.2704  1.0448  1.4172
24354SOL    HW273641   9.809   6.605   5.464  0.2554  2.6547  1.2078
24355SOL     OW73642   6.899   6.784   2.508 -0.2044  0.1535  0.9280
24355SOL    HW173643   6.986   6.761   2.541  0.3244  0.1804 -0.4067
24355SOL    HW273644   6.849   6.702   2.514 -0.3677  0.3218  2.4411
24356SOL     OW73645   5.333   3.303   0.544  0.5278  0.3042  0.3412
24356SOL    HW173646   5.401   3.235   0.541  0.2455  0.0702 -0.9705
24356SOL    HW273647   5.262   3.268   0.491  0.0043  1.2368  0.4222
24357SOL     OW73648   5.821   0.664   0.758 -0.0150  0.3537  0.1106
24357SOL    HW173649   5.830   0.699   0.847  0.1815  0.1329  0.1770
24357SOL    HW273650   5.759   0.723   0.715 -2.2512 -1.0443  1.2125
24358SOL     OW73651   2.016   9.835   6.699 -0.4380 -0.0249  0.0717
24358SOL    HW173652   2.059   9.914   6.733  0.5130 -0.8073  0.7239
24358SOL    HW273653   2.083   9.792   6.646 -0.6743 -0.8295  0.4078
24359SOL     OW73654   7.750   8.235   5.019  0.3908 -0.1886 -0.3136
24359SOL    HW173655   7.821   8.203   5.074  0.2486 -2.1926 -1.1914
24359SOL    HW273656   7.723   8.318   5.059  1.2664 -0.8368  1.7360
24360SOL     OW73657   6.547   5.997   8.400  0.0876 -0.5129 -0.1117
24360SOL    HW173658   6.520   5.922   8.348  0.8752 -1.1410  0.3562
24360SOL    HW273659   6.510   5.981   8.487 -0.5620  0.1394 -0.2527
24361SOL     OW73660   7.745   8.141   9.299 -0.5960  0.1707  0.4158
24361SOL    HW173661   7.814   8.117   9.237 -0.8836  0.3557  0.0239
24361SOL    HW273662   7.780   8.219   9.343  0.1536 -0.6850  1.3917
24362SOL     OW73663   6.084   7.057   0.458 -0.2258 -0.7741  0.3035
24362SOL    HW173664   6.145   7.130   0.447 -2.5008  1.2071  0.0796
24362SOL    HW273665   6.084   7.040   0.552  0.2630 -0.4489  0.3647
24363SOL     OW73666   4.272   9.735   8.684 -0.0468 -0.3571 -0.2431
24363SOL    HW173667   4.229   9.727   8.598  1.1038  0.2506 -0.9026
24363SOL    HW273668   4.322   9.816   8.678  1.2693 -1.0922  0.4570
24364SOL     OW73669   8.509   0.613   7.056  0.1266 -0.3796 -0.2062
24364SOL    HW173670   8.537   0.533   7.100 -1.7232 -1.1959 -0.4169
24364SOL    HW273671   8.526   0.597   6.963  1.4257  0.2148 -0.0834
24365SOL     OW73672   0.632   0.267   4.699  0.0137  0.0536 -0.1862
24365SOL    HW173673   0.540   0.291   4.710 -0.6109 -1.5723 -1.4890
24365SOL    HW273674   0.634   0.217   4.618  2.5617  2.4552 -1.7630
24366SOL     OW73675   6.142   2.870   3.248 -0.3814  0.0145  0.0558
24366SOL    HW173676   6.081   2.845   3.178 -0.0621  0.1851 -0.2832
24366SOL    HW273677   6.228   2.858   3.210 -0.1955  1.9380 -0.2367
24367SOL     OW73678   5.130   7.347   8.153  0.6656 -0.3113 -1.0305
24367SOL    HW173679   5.079   7.419   8.117  1.0718  1.8068  2.2124
24367SOL    HW273680   5.068   7.300   8.209  1.5066  0.5770  0.7194
24368SOL     OW73681   6.430   0.604   4.227  0.3867  0.1539  0.4248
24368SOL    HW173682   6.500   0.595   4.292  0.0199 -2.0248  0.6005
24368SOL    HW273683   6.476   0.619   4.145  0.9201  1.4682  0.9425
24369SOL     OW73684   5.913   1.464   8.759  0.3441 -0.1140  0.0792
24369SOL    HW173685   5.884   1.375   8.740 -0.2722  0.2119 -0.5592
24369SOL    HW273686   5.943   1.461   8.850  0.5004 -1.0106  0.0000
24370SOL     OW73687   8.452   0.160   9.419 -0.3665 -0.4243 -0.1215
24370SOL    HW173688   8.474   0.199   9.334  0.0983 -0.4996 -0.0408
24370SOL    HW273689   8.371   0.204   9.446  0.1846  0.5383 -0.0030
24371SOL     OW73690   6.236   4.231   5.179 -0.1205 -0.1370 -0.0660
24371SOL    HW173691   6.251   4.143   5.146  0.0072 -0.4981  0.9398
24371SOL    HW273692   6.175   4.270   5.116  1.4967 -0.1670 -1.7665
24372SOL     OW73693   1.324   9.971   9.141 -0.3541 -0.0738  0.0381
24372SOL    HW173694   1.290  10.008   9.223 -0.7184  0.2347 -0.2433
24372SOL    HW273695   1.273   9.891   9.128  0.4139 -0.6700  0.6329
24373SOL     OW73696   0.948   0.978   1.665  0.3808 -0.2428  0.2184
24373SOL    HW173697   0.945   1.068   1.632 -0.5749 -0.1549  0.5300
24373SOL    HW273698   1.035   0.970   1.703  0.8140  0.2580 -0.6143
24374SOL     OW73699   2.847   7.574   3.412 -0.5205 -0.6457  0.3571
24374SOL    HW173700   2.770   7.574   3.355  0.5822 -0.4876 -1.2288
24374SOL    HW273701   2.861   7.482   3.434 -1.1868 -0.6674  0.6981
24375SOL     OW73702   9.271   0.313   2.506  0.1843  0.3269  0.1096
24375SOL    HW173703   9.356   0.340   2.538 -0.2315  0.6062  1.0233
24375SOL    HW273704   9.247   0.378   2.440  0.1860  0.9038  0.6687
24376SOL     OW73705   3.308   2.604   5.672 -0.1282  0.5486  0.2727
24376SOL    HW173706   3.403   2.593   5.671 -0.1624  0.3382 -0.9670
24376SOL    HW273707   3.290   2.671   5.606 -0.8316  0.7536  0.6516
24377SOL     OW73708   0.404   1.271   9.944  0.2802  0.0568  0.4586
24377SOL    HW173709   0.376   1.362   9.948 -0.4097 -0.1899  1.5416
24377SOL    HW273710   0.500   1.276   9.946  0.2498  0.7522  0.5071
24378SOL     OW73711   2.954   6.024   7.007 -0.3331 -0.5715  0.7431
24378SOL    HW173712   2.986   6.082   6.938 -1.7111 -0.6979 -0.0317
24378SOL    HW273713   2.994   6.059   7.087  1.9838 -0.9549 -0.1827
24379SOL     OW73714   2.120   2.908   3.094 -0.2381 -0.0244 -0.0763
24379SOL    HW173715   2.043   2.944   3.049  0.2055 -0.1230 -0.9298
24379SOL    HW273716   2.086   2.879   3.178 -1.7561 -2.4899 -1.3955
24380SOL     OW73717   5.146   6.562   7.796  0.4048 -0.3844 -0.1309
24380SOL    HW173718   5.139   6.570   7.891 -0.7861 -0.2289 -0.2107
24380SOL    HW273719   5.068   6.512   7.771  0.4881 -0.0619 -1.0678
24381SOL     OW73720   7.057   5.018   6.269 -0.4514  0.2675 -0.2897
24381SOL    HW173721   7.045   4.971   6.352 -0.4652 -0.2949 -0.6060
24381SOL    HW273722   7.002   5.096   6.278 -0.4444  0.2186  0.2332
24382SOL     OW73723   8.895   7.736   5.408 -0.2561  0.5115 -0.2374
24382SOL    HW173724   8.909   7.666   5.471  1.4737  0.6866 -0.3795
24382SOL    HW273725   8.865   7.691   5.329  0.2175 -0.0182 -0.1244
24383SOL     OW73726   1.189   4.974   2.339  0.6159 -0.1229 -0.0666
24383SOL    HW173727   1.239   5.023   2.403  2.1118 -0.6037 -0.8125
24383SOL    HW273728   1.253   4.916   2.297  0.0182  1.1049 -2.9246
24384SOL     OW73729   9.689   3.903   9.021 -0.4587 -0.1793  0.0470
24384SOL    HW173730   9.710   3.992   9.048 -0.1263 -0.1096 -0.4217
24384SOL    HW273731   9.619   3.914   8.956  0.3688 -0.1682 -0.8627
24385SOL     OW73732   9.065   1.770   1.280  0.6138 -0.1092  0.2696
24385SOL    HW173733   9.076   1.856   1.239 -0.4662 -0.1044 -0.0699
24385SOL    HW273734   8.970   1.755   1.277  0.8734 -1.7902 -0.6933
24386SOL     OW73735   3.786   8.653   1.433  0.5270  0.2220  0.4110
24386SOL    HW173736   3.726   8.726   1.415  0.0002 -0.4222 -0.4883
24386SOL    HW273737   3.847   8.689   1.498 -0.5718  1.0218  1.0447
24387SOL     OW73738   5.841   6.274   7.637 -0.1449 -0.3210  0.0767
24387SOL    HW173739   5.797   6.307   7.714 -1.4854 -1.6202 -0.0868
24387SOL    HW273740   5.787   6.201   7.607  1.7156 -1.5210 -0.5780
24388SOL     OW73741   4.927   1.880   0.999  0.2276  0.0001  0.3461
24388SOL    HW173742   5.019   1.902   0.980 -0.0108  1.0533  0.3425
24388SOL    HW273743   4.877   1.929   0.934 -0.3101 -1.4652 -0.3949
24389SOL     OW73744   4.693   1.726   7.021 -0.0318  0.1369 -0.0844
24389SOL    HW173745   4.641   1.786   7.075 -1.1394 -0.9508  0.0912
24389SOL    HW273746   4.755   1.783   6.976  0.6889  1.1254  2.0195
24390SOL     OW73747   7.982   4.008   8.044  0.5435 -0.2521 -0.1333
24390SOL    HW173748   7.969   3.914   8.052  1.1930 -0.4042 -0.8299
24390SOL    HW273749   7.969   4.027   7.951 -1.1687  0.6065  0.2398
24391SOL     OW73750   2.652   0.735   2.490 -0.0393 -0.0992  0.0512
24391SOL    HW173751   2.699   0.730   2.574 -2.2174 -1.2610  1.2751
24391SOL    HW273752   2.575   0.788   2.509 -1.2286 -1.4542 -0.8699
24392SOL     OW73753   6.474   8.443   4.785 -0.0802 -0.0346 -0.6825
24392SOL    HW173754   6.396   8.499   4.787  0.1887  0.3331  0.2709
24392SOL    HW273755   6.512   8.452   4.873  1.7720  0.8236 -1.5224
24393SOL     OW73756   9.329   1.478   9.086  0.0810 -0.5772  0.0998
24393SOL    HW173757   9.264   1.410   9.104 -0.7019  0.1830  0.1683
24393SOL    HW273758   9.361   1.503   9.172 -1.0113  0.4702  0.2216
24394SOL     OW73759   0.272   2.359   2.466 -0.7073 -0.3278  0.1713
24394SOL    HW173760   0.186   2.336   2.432  0.6154 -0.3366 -3.6286
24394SOL    HW273761   0.298   2.436   2.415  2.4932 -1.8425 -0.7062
24395SOL     OW73762   9.108   5.631   2.439 -0.2547 -0.0015 -0.3750
24395SOL    HW173763   9.163   5.706   2.417 -0.6228 -0.0581 -1.5667
24395SOL    HW273764   9.026   5.647   2.393 -0.5539 -0.8393 -0.1503
24396SOL     OW73765   7.535   4.945   7.220  0.2490  0.3591 -0.6943
24396SOL    HW173766   7.583   4.862   7.217  0.1742  0.3261 -1.0832
24396SOL    HW273767   7.590   5.002   7.273 -0.6010 -0.4921  1.1830
24397SOL     OW73768   3.022   1.507   2.536 -0.1063  0.5297 -0.2288
24397SOL    HW173769   3.025   1.602   2.524 -0.4127  0.7548  1.2657
24397SOL    HW273770   2.940   1.491   2.583 -0.0186 -0.4682 -0.3872
24398SOL     OW73771   1.899   8.940   6.572  0.0228 -0.4268 -0.1352
24398SOL    HW173772   1.938   8.944   6.659 -1.4023 -0.1992  0.5349
24398SOL    HW273773   1.973   8.935   6.512  1.0275 -2.3397  1.1601
24399SOL     OW73774   4.756   8.255   8.393 -0.3431 -0.1968 -0.3215
24399SOL    HW173775   4.742   8.277   8.301  0.2463  0.8336 -0.1805
24399SOL    HW273776   4.808   8.328   8.428 -0.0817 -0.8421  0.6904
24400SOL     OW73777   7.259   4.570   8.845 -0.3297 -0.3552 -0.2090
24400SOL    HW173778   7.316   4.588   8.919  0.1065  0.8201 -0.8094
24400SOL    HW273779   7.170   4.584   8.879 -0.2766 -1.8514  0.6330
24401SOL     OW73780   1.567   9.949   0.719  0.6188  0.4228 -0.7160
24401SOL    HW173781   1.625   9.879   0.687  0.7093 -0.6833  1.6051
24401SOL    HW273782   1.610   9.980   0.799  0.0604  2.4920 -1.1691
24402SOL     OW73783   7.127   2.219   3.454 -0.0766 -0.3399 -0.0851
24402SOL    HW173784   7.032   2.209   3.443 -0.2443 -0.7871  1.6024
24402SOL    HW273785   7.142   2.206   3.547  1.7835 -1.2841 -0.4806
24403SOL     OW73786   4.642   7.880   5.682  0.0505 -0.1990  0.0290
24403SOL    HW173787   4.565   7.830   5.658  0.2215 -0.1120 -0.7253
24403SOL    HW273788   4.686   7.826   5.749 -2.4260  1.2940  3.1502
24404SOL     OW73789   6.875   7.311   0.091  0.5994 -0.1406  0.4067
24404SOL    HW173790   6.934   7.293   0.018  0.1115  3.5577 -1.1155
24404SOL    HW273791   6.799   7.255   0.075  1.2293 -0.6604 -0.9253
24405SOL     OW73792   5.106   2.112   4.836  0.3686 -0.1828  0.5411
24405SOL    HW173793   5.092   2.191   4.784  1.0093 -0.0755  0.5257
24405SOL    HW273794   5.199   2.093   4.826  0.6987  0.3092  2.3117
24406SOL     OW73795   6.936   8.299   2.888 -0.1851  0.2159 -0.5232
24406SOL    HW173796   7.020   8.317   2.845 -0.1201  0.4798 -0.2890
24406SOL    HW273797   6.908   8.384   2.922  0.7121 -0.2994  1.6503
24407SOL     OW73798   7.677   8.193   4.163  0.2780  0.2485  0.0570
24407SOL    HW173799   7.767   8.190   4.131  0.5337 -0.1589  0.7677
24407SOL    HW273800   7.686   8.214   4.256 -0.3581  0.2069  0.1308
24408SOL     OW73801   1.063   6.370   1.635 -0.3384 -0.4695 -0.5523
24408SOL    HW173802   1.036   6.282   1.660  1.6347 -0.7951  0.5999
24408SOL    HW273803   1.077   6.416   1.718 -0.1825  0.5626 -1.1275
24409SOL     OW73804   6.920   5.127   8.660 -0.1531 -0.3816 -0.4503
24409SOL    HW173805   6.961   5.196   8.713  0.1344 -0.4252 -0.6112
24409SOL    HW273806   6.831   5.121   8.694 -0.0287 -0.2812 -0.0932
24410SOL     OW73807   9.797   2.469   4.758  0.0511  0.4058  0.6291
24410SOL    HW173808   9.824   2.388   4.801  1.4739  0.5455  0.0409
24410SOL    HW273809   9.874   2.498   4.709 -0.1662  2.5069  1.4133
24411SOL     OW73810   8.452   0.135   1.806  0.6364 -0.3767 -0.3404
24411SOL    HW173811   8.522   0.176   1.857  1.0081  2.8675 -3.0960
24411SOL    HW273812   8.498   0.076   1.746  0.6922 -0.4481 -0.2284
24412SOL     OW73813   8.409   9.559   3.968  0.2505 -0.2432 -0.0485
24412SOL    HW173814   8.492   9.526   4.002  1.9014  1.9136 -1.6347
24412SOL    HW273815   8.383   9.626   4.031  0.1190 -0.3822  0.0453
24413SOL     OW73816   1.419   6.434   7.177  0.2506  0.0682 -0.0927
24413SOL    HW173817   1.408   6.346   7.141  0.2695  0.3045 -0.6915
24413SOL    HW273818   1.410   6.423   7.272 -0.3092 -0.4936 -0.2058
24414SOL     OW73819   3.927   6.680   0.214  0.2240 -0.3997 -0.1325
24414SOL    HW173820   3.912   6.652   0.304  0.6836  2.2646  0.8663
24414SOL    HW273821   4.017   6.712   0.214 -0.0887  0.5390 -1.2746
24415SOL     OW73822   7.936   9.491   1.913  0.1376 -0.3718  0.2728
24415SOL    HW173823   7.901   9.471   1.826 -1.5390 -0.1358  0.8620
24415SOL    HW273824   7.974   9.578   1.904 -1.0162  0.1322  0.0148
24416SOL     OW73825   2.714   7.811   8.803 -0.5571 -0.5825  0.4696
24416SOL    HW173826   2.692   7.874   8.873  0.5160 -0.4338  0.6851
24416SOL    HW273827   2.750   7.736   8.850 -0.5129 -0.7811  0.1146
24417SOL     OW73828   8.857   9.696   4.453  0.6947  0.0629 -0.2808
24417SOL    HW173829   8.905   9.651   4.383 -2.6019 -0.4108 -2.4728
24417SOL    HW273830   8.871   9.789   4.437  0.7628 -0.0647 -0.9704
24418SOL     OW73831   9.185   8.999   4.172 -0.0334  0.1396  0.0716
24418SOL    HW173832   9.267   8.972   4.214 -0.5987 -0.1739  0.9860
24418SOL    HW273833   9.116   8.965   4.229 -0.8100  0.4011 -0.6891
24419SOL     OW73834   7.258   8.034   4.654 -0.2406  0.2387  0.6334
24419SOL    HW173835   7.242   8.040   4.748 -0.6302 -1.0667  0.6796
24419SOL    HW273836   7.352   8.018   4.647 -0.2283  0.2283  0.8087
24420SOL     OW73837   5.869   7.951   9.687  0.0735  0.1376 -0.2379
24420SOL    HW173838   5.865   7.895   9.765 -1.6574 -0.3336 -0.6370
24420SOL    HW273839   5.818   8.029   9.710  0.0590  0.2664 -0.6914
24421SOL     OW73840   8.785   3.621   7.560 -0.4693  0.0770 -0.0141
24421SOL    HW173841   8.818   3.704   7.527 -1.5952  0.8639  0.7895
24421SOL    HW273842   8.838   3.555   7.515  0.7056  1.2240 -0.3765
24422SOL     OW73843   5.390   2.061   4.799 -0.1983 -0.1345 -0.2109
24422SOL    HW173844   5.402   2.150   4.831  1.1929 -1.1544  2.4661
24422SOL    HW273845   5.461   2.011   4.840 -0.6569 -2.4156 -1.9605
24423SOL     OW73846   0.890   2.887   1.526 -0.1119 -0.1777  0.5628
24423SOL    HW173847   0.935   2.813   1.484 -0.7436 -1.8902  2.7114
24423SOL    HW273848   0.799   2.879   1.496  0.1568  0.8973 -0.6439
24424SOL     OW73849   6.876   9.458   9.015 -0.1228  0.1503 -0.1822
24424SOL    HW173850   6.946   9.393   9.013 -0.5764 -0.3504  0.0931
24424SOL    HW273851   6.803   9.413   9.056 -0.0107  1.2695  1.3105
24425SOL     OW73852   8.897   4.184   1.515 -0.6590 -0.1565 -0.4079
24425SOL    HW173853   8.821   4.233   1.483 -0.5311  0.1908 -0.1950
24425SOL    HW273854   8.972   4.241   1.495 -0.3861 -0.7580 -1.1618
24426SOL     OW73855   4.399   5.643   9.758 -0.3018 -0.9404 -0.0940
24426SOL    HW173856   4.461   5.573   9.779 -0.3252 -0.5646  1.3214
24426SOL    HW273857   4.313   5.607   9.781 -0.2996 -0.4142  0.7869
24427SOL     OW73858   7.645   6.964   6.617  0.5232  0.3237  0.0401
24427SOL    HW173859   7.676   6.997   6.702  0.7021 -0.1842  0.1732
24427SOL    HW273860   7.674   7.030   6.554 -2.2155  2.3099  0.6867
24428SOL     OW73861   3.898   4.191   4.741 -0.1361  0.0481 -0.1261
24428SOL    HW173862   3.907   4.260   4.675 -2.1340  1.9326  1.4412
24428SOL    HW273863   3.875   4.113   4.691 -0.9430  1.2490 -1.7114
24429SOL     OW73864   6.084   9.059   0.655  0.5329  0.1724  0.0252
24429SOL    HW173865   6.153   8.993   0.664 -0.7340 -0.9658  2.7394
24429SOL    HW273866   6.082   9.103   0.740 -0.5267  1.8099 -0.7971
24430SOL     OW73867   7.592   2.244   0.592 -0.3604 -0.8970 -0.0121
24430SOL    HW173868   7.612   2.195   0.512  0.3078 -1.8113  0.7014
24430SOL    HW273869   7.649   2.206   0.659 -0.5255  0.2099  0.7919
24431SOL     OW73870   1.351   9.513   7.118 -0.5369  0.1965  0.1051
24431SOL    HW173871   1.327   9.472   7.201  1.9176 -1.4338  0.1095
24431SOL    HW273872   1.369   9.604   7.141  1.7987 -0.6044  1.8069
24432SOL     OW73873   4.679   4.253   5.049 -0.1513  0.1555 -0.1381
24432SOL    HW173874   4.588   4.281   5.041  0.0257  1.8190  2.3426
24432SOL    HW273875   4.680   4.163   5.017 -2.7245  0.0085 -0.0004
24433SOL     OW73876   3.433   1.971   2.100 -0.0142  0.0485  0.3270
24433SOL    HW173877   3.391   2.044   2.146 -0.2762  0.8726 -1.1767
24433SOL    HW273878   3.523   1.970   2.133 -0.5244 -0.1972  1.7852
24434SOL     OW73879   8.601   2.208   9.928 -0.0356  0.4900  0.1277
24434SOL    HW173880   8.525   2.150   9.933  0.4491 -0.2998 -1.1427
24434SOL    HW273881   8.595   2.262  10.006 -1.4976 -0.0575  0.4273
24435SOL     OW73882   9.273   3.769   7.639 -0.1171 -0.2656 -0.4962
24435SOL    HW173883   9.239   3.735   7.721  1.1624 -0.0377  0.1528
24435SOL    HW273884   9.296   3.691   7.588  1.2243 -0.4147  0.3029
24436SOL     OW73885   7.701   7.996   8.919  0.3270  0.4500  0.1334
24436SOL    HW173886   7.638   7.992   8.847 -0.1379  1.4883  0.4710
24436SOL    HW273887   7.754   8.074   8.901  0.9790  0.0601  0.3005
24437SOL     OW73888   9.557   5.652   1.974  0.1057  0.6334 -0.2349
24437SOL    HW173889   9.567   5.741   1.941  0.1624  1.5429  2.0098
24437SOL    HW273890   9.614   5.648   2.051 -2.5483 -0.0925  1.8837
24438SOL     OW73891   1.300   1.801   5.147 -0.0617 -0.4458 -0.3786
24438SOL    HW173892   1.306   1.861   5.073  0.1258 -1.1752 -0.9575
24438SOL    HW273893   1.211   1.813   5.180 -0.3115 -0.4808 -1.0291
24439SOL     OW73894   3.196   5.145   2.077 -0.0413  0.4762 -0.0274
24439SOL    HW173895   3.234   5.116   1.994  0.8557  1.3472  0.0532
24439SOL    HW273896   3.258   5.211   2.110  0.2156 -0.6386  1.8879
24440SOL     OW73897   7.179   4.412   8.044 -0.0673 -0.3327  0.5111
24440SOL    HW173898   7.171   4.500   8.081  0.6457 -0.0026 -0.1032
24440SOL    HW273899   7.208   4.357   8.117 -1.3450 -0.2423  1.1154
24441SOL     OW73900   8.324   6.277   8.865  0.0647  0.1716 -0.5539
24441SOL    HW173901   8.417   6.257   8.875  0.2405  1.4489  0.7739
24441SOL    HW273902   8.301   6.240   8.780  2.2080  1.2912 -1.7226
24442SOL     OW73903   6.682   1.117   1.846 -0.2964  0.2429  0.5093
24442SOL    HW173904   6.759   1.088   1.895 -1.0401 -0.3010  1.3949
24442SOL    HW273905   6.718   1.164   1.771  0.8921  0.3105  1.0910
24443SOL     OW73906   3.374   7.988   6.583  0.0587  0.1266 -0.2210
24443SOL    HW173907   3.438   7.940   6.531 -0.3814  1.8616 -2.5376
24443SOL    HW273908   3.315   8.027   6.519 -1.2405  1.4545  1.6596
24444SOL     OW73909   3.734   1.005   5.796  0.1733  0.4552 -0.0925
24444SOL    HW173910   3.721   1.099   5.811  1.3456  0.8728 -1.4864
24444SOL    HW273911   3.813   1.000   5.742  1.0280 -1.4411  1.2257
24445SOL     OW73912   2.758   0.369   3.142  0.2902 -0.6568 -0.1150
24445SOL    HW173913   2.775   0.355   3.236  1.1375  0.6097 -0.0615
24445SOL    HW273914   2.712   0.452   3.138 -0.6511 -1.1919 -0.7676
24446SOL     OW73915   0.361   4.120   5.419 -0.3874 -0.3566 -0.7821
24446SOL    HW173916   0.342   4.192   5.359  0.2715 -0.1051 -0.6963
24446SOL    HW273917   0.322   4.043   5.377 -1.4707  0.1165 -0.6650
24447SOL     OW73918   1.545   2.892   5.587  0.5947  0.4819  0.1770
24447SOL    HW173919   1.511   2.904   5.498  0.1615  0.0671  0.2891
24447SOL    HW273920   1.616   2.829   5.577 -0.3996 -0.6780  0.3390
24448SOL     OW73921   6.418   1.206   3.719  0.1491  0.1566  0.1819
24448SOL    HW173922   6.501   1.180   3.678 -0.0162 -1.1579  0.6088
24448SOL    HW273923   6.360   1.226   3.646  0.1718 -1.1465 -0.2238
24449SOL     OW73924   5.670   5.908   1.939 -0.2977 -0.3089 -0.0577
24449SOL    HW173925   5.650   5.831   1.992 -0.1143 -1.0717 -1.0864
24449SOL    HW273926   5.626   5.980   1.985 -3.2296 -1.4898 -0.8098
24450SOL     OW73927   0.071   3.199   1.181  0.1957 -0.8440  0.1139
24450SOL    HW173928  -0.001   3.146   1.148 -1.6065  1.8800 -0.6647
24450SOL    HW273929   0.037   3.238   1.262  0.9283  0.1371 -0.0283
24451SOL     OW73930   2.401   0.632   5.016  0.0726  0.2359  0.5540
24451SOL    HW173931   2.431   0.710   5.062 -0.1040  0.3758  0.4322
24451SOL    HW273932   2.372   0.663   4.931  4.2372 -0.5283 -1.3884
24452SOL     OW73933   2.822   3.782   1.308 -0.4477  0.5273  0.0721
24452SOL    HW173934   2.796   3.713   1.368 -0.8951  0.7659  0.1573
24452SOL    HW273935   2.784   3.757   1.224  0.4059  0.0536 -0.1875
24453SOL     OW73936   5.818   8.574   4.812 -0.0418 -0.2383  0.0207
24453SOL    HW173937   5.756   8.502   4.804  0.9337 -0.9543 -1.2475
24453SOL    HW273938   5.777   8.646   4.763 -0.4744 -0.2696  0.3237
24454SOL     OW73939   7.895   8.337   4.519  0.5073  0.4260  0.3925
24454SOL    HW173940   7.960   8.349   4.449 -0.2289  1.0751 -0.2049
24454SOL    HW273941   7.855   8.424   4.530 -1.5984 -0.3356 -0.6243
24455SOL     OW73942   8.361   5.408   6.134  0.2964 -0.2311 -0.4675
24455SOL    HW173943   8.428   5.473   6.114  1.9271 -2.1487 -1.4880
24455SOL    HW273944   8.409   5.334   6.170 -1.0150 -2.3414 -2.7987
24456SOL     OW73945   8.221   9.112   9.001 -0.5029 -0.2886  0.2237
24456SOL    HW173946   8.234   9.026   8.961  1.9711  0.1819 -0.2122
24456SOL    HW273947   8.189   9.094   9.089  1.1501 -1.7753  0.5844
24457SOL     OW73948   7.372   8.014   3.988 -0.1281 -0.3786  0.9640
24457SOL    HW173949   7.400   7.989   4.076  0.8066 -0.3568  0.6866
24457SOL    HW273950   7.417   8.096   3.971 -0.0391 -0.5461  0.3453
24458SOL     OW73951   2.270   0.809   4.843  0.3998  0.4363  0.4847
24458SOL    HW173952   2.329   0.826   4.770  0.3481  1.0998  0.5989
24458SOL    HW273953   2.259   0.893   4.887 -1.6881  0.6526 -0.3187
24459SOL     OW73954  -0.006   2.877   5.069  0.8643 -0.5978 -0.5326
24459SOL    HW173955   0.005   2.828   5.150  2.0553 -0.5525 -0.6549
24459SOL    HW273956   0.072   2.931   5.062 -0.9628  2.3388  0.2400
24460SOL     OW73957   4.137   1.617   6.676 -0.1110 -0.0941 -0.0034
24460SOL    HW173958   4.171   1.690   6.624  0.5389  0.3110  0.9452
24460SOL    HW273959   4.057   1.651   6.715  0.3989  0.2865  0.7591
24461SOL     OW73960   1.445   1.795   0.178  0.0655  0.1822 -0.1951
24461SOL    HW173961   1.521   1.744   0.206  1.2242  0.5428 -2.4792
24461SOL    HW273962   1.371   1.754   0.225  1.5915 -0.1694  2.0834
24462SOL     OW73963   6.024   3.144   0.427  0.1447  0.2606 -0.6803
24462SOL    HW173964   6.072   3.173   0.350  1.0904  0.7727  0.0767
24462SOL    HW273965   6.092   3.112   0.487 -0.4079  1.3314  0.5643
24463SOL     OW73966   0.255   7.756   8.279  0.0763 -0.1919  0.6610
24463SOL    HW173967   0.342   7.778   8.244 -0.5454  0.1255 -0.7734
24463SOL    HW273968   0.226   7.837   8.322 -0.2660  0.3199 -0.4989
24464SOL     OW73969   9.159   4.015   3.853 -0.2056  0.6628 -0.9360
24464SOL    HW173970   9.129   3.940   3.903  3.5375 -0.1480  0.4133
24464SOL    HW273971   9.202   3.978   3.776  1.7379  1.2978 -0.2301
24465SOL     OW73972   4.475   3.609   2.892  0.2126 -0.3140  0.3898
24465SOL    HW173973   4.389   3.584   2.856 -0.2713 -0.0177  1.2978
24465SOL    HW273974   4.506   3.679   2.833  0.9075 -1.9562 -1.2991
24466SOL     OW73975   3.819   2.738   3.274 -0.0385 -0.8113  0.0056
24466SOL    HW173976   3.825   2.745   3.370  2.1667  0.7843 -0.1765
24466SOL    HW273977   3.862   2.655   3.254 -1.4204 -1.6563  0.4335
24467SOL     OW73978   6.956   7.371   8.502  0.1323 -0.4709 -0.1822
24467SOL    HW173979   6.866   7.404   8.498  0.0909 -0.5768 -0.1385
24467SOL    HW273980   6.981   7.360   8.411  0.4701  0.5455 -0.2308
24468SOL     OW73981   8.885   8.996   7.259 -0.1012 -0.0198 -0.2671
24468SOL    HW173982   8.831   8.938   7.313 -0.8393 -0.5056 -1.4748
24468SOL    HW273983   8.834   9.077   7.254 -0.6172 -0.3804 -1.1709
24469SOL     OW73984   5.354   3.777   4.369 -0.1719 -0.8401 -0.0126
24469SOL    HW173985   5.293   3.771   4.295 -0.7556  0.8703  0.2852
24469SOL    HW273986   5.430   3.822   4.334  0.4612 -1.9369 -0.0860
24470SOL     OW73987   5.303   5.782   3.497  0.0909 -0.1544 -0.7719
24470SOL    HW173988   5.371   5.838   3.459 -3.0398  4.0768 -0.9582
24470SOL    HW273989   5.294   5.812   3.587 -2.1705  0.2669 -1.0664
24471SOL     OW73990   0.282   6.801   3.303  0.4332 -0.1575 -0.1544
24471SOL    HW173991   0.243   6.720   3.334  0.2985  0.5791  1.7097
24471SOL    HW273992   0.210   6.864   3.301  0.6345  0.0694 -1.0984
24472SOL     OW73993   5.911   0.480  -0.025 -0.3071  0.2469 -0.3598
24472SOL    HW173994   5.918   0.439   0.061  1.4780  0.4381 -0.3603
24472SOL    HW273995   5.874   0.567  -0.007  0.5243  0.4848  0.3090
24473SOL     OW73996   8.191   9.577   3.034  0.4533 -0.2357 -0.4149
24473SOL    HW173997   8.096   9.581   3.027  0.4496 -0.9425 -0.9412
24473SOL    HW273998   8.223   9.634   2.964  0.4020 -1.2005 -1.2575
24474SOL     OW73999   9.024   8.882   2.941 -0.1070 -0.8205  0.1797
24474SOL    HW174000   8.970   8.950   2.983  1.5563 -0.0080  1.1289
24474SOL    HW274001   8.975   8.857   2.863 -0.6059  1.8302 -0.4771
24475SOL     OW74002   7.008   6.505   8.503  0.0158 -0.7758 -0.0711
24475SOL    HW174003   7.009   6.425   8.451 -2.2095 -0.3712 -0.8179
24475SOL    HW274004   6.948   6.564   8.457 -1.0772  0.0497  2.2466
24476SOL     OW74005   0.556   7.920   3.524  0.5043  0.0902  0.2449
24476SOL    HW174006   0.494   7.909   3.596  1.3151 -1.9246  0.6983
24476SOL    HW274007   0.502   7.910   3.445  0.1987 -1.6671  0.6324
24477SOL     OW74008   2.292   9.807   3.336 -0.6707 -1.3736  0.6136
24477SOL    HW174009   2.300   9.713   3.322 -1.7219 -1.4964  0.8112
24477SOL    HW274010   2.198   9.824   3.337 -0.5316  0.0519 -1.7801
24478SOL     OW74011   5.278   9.701   4.274 -0.0430 -0.1480 -0.4517
24478SOL    HW174012   5.211   9.751   4.227  0.8486 -0.0240 -1.6239
24478SOL    HW274013   5.295   9.626   4.218  0.0367 -0.7490  0.3667
24479SOL     OW74014   9.329   8.857   3.808  0.4597 -0.4377  0.1499
24479SOL    HW174015   9.330   8.921   3.738  1.4228  3.0030  3.0320
24479SOL    HW274016   9.244   8.869   3.851  0.5300 -1.3127  0.5748
24480SOL     OW74017   1.359   8.386   9.076  0.0522  0.1078 -0.3757
24480SOL    HW174018   1.356   8.455   9.010  2.3254 -1.6617 -2.5234
24480SOL    HW274019   1.416   8.421   9.145 -0.5882  1.1524 -0.3563
24481SOL     OW74020   3.227   5.436   3.370 -0.1679 -0.0165  0.6932
24481SOL    HW174021   3.151   5.475   3.326  0.7125 -0.1780 -1.0615
24481SOL    HW274022   3.215   5.342   3.361  1.2177 -0.0629 -1.5303
24482SOL     OW74023   5.539   1.160   0.796  0.3852  0.0395 -0.3623
24482SOL    HW174024   5.499   1.241   0.764 -1.3624 -0.9951 -0.9539
24482SOL    HW274025   5.531   1.099   0.722  0.5694 -1.0249  0.4812
24483SOL     OW74026   8.117   7.530   9.419  0.5560 -0.0391  0.3102
24483SOL    HW174027   8.199   7.549   9.464 -0.0229  0.0329  1.3904
24483SOL    HW274028   8.052   7.585   9.464 -0.1336 -0.3227 -0.3147
24484SOL     OW74029   5.206   0.037   5.903  0.1621  0.0626 -0.1059
24484SOL    HW174030   5.120   0.028   5.863  0.0658  1.8534 -0.4017
24484SOL    HW274031   5.233  -0.052   5.924 -1.7610 -0.5282  0.0115
24485SOL     OW74032   9.638   4.335   0.154 -0.6133  0.0807 -0.3038
24485SOL    HW174033   9.612   4.284   0.231 -0.1638 -0.1815 -0.3225
24485SOL    HW274034   9.670   4.269   0.092  0.8460  0.4651  0.0209
24486SOL     OW74035   5.852   9.847   8.520 -0.0465 -0.1363  0.1922
24486SOL    HW174036   5.796   9.872   8.593  0.2910 -2.0778  1.2012
24486SOL    HW274037   5.924   9.797   8.560 -0.2180 -1.8687 -1.4750
24487SOL     OW74038   9.318   5.326   4.405  0.3676 -0.2370 -0.2674
24487SOL    HW174039   9.403   5.303   4.444  0.1951 -0.3217  0.0645
24487SOL    HW274040   9.280   5.389   4.466 -1.1569 -2.4546  1.2604
24488SOL     OW74041   0.764   0.666   4.574  0.2920  0.1153 -0.0130
24488SOL    HW174042   0.783   0.582   4.616 -0.4678  0.8340  1.8819
24488SOL    HW274043   0.824   0.728   4.615  0.8457  0.5415 -1.3944
24489SOL     OW74044   3.367   7.995   7.884  0.1204  0.1555  0.0791
24489SOL    HW174045   3.346   8.050   7.808 -2.4090  0.2423  0.7371
24489SOL    HW274046   3.333   7.908   7.860 -0.5745  0.1485  1.0109
24490SOL     OW74047   5.734   2.546   1.753  0.1295 -0.1552  0.5786
24490SOL    HW174048   5.728   2.453   1.730  0.4922 -0.6844  2.4466
24490SOL    HW274049   5.667   2.588   1.699  0.1294 -1.4506 -0.4861
24491SOL     OW74050   4.994   7.560   4.791  0.0372  0.3660 -0.1183
24491SOL    HW174051   5.070   7.515   4.754  0.1829 -0.6366  1.3185
24491SOL    HW274052   4.985   7.524   4.879 -1.7363  0.9205 -0.0259
24492SOL     OW74053   2.599   4.108   3.933 -0.2261 -0.6084  0.4921
24492SOL    HW174054   2.601   4.113   3.837  1.4207  0.2736  0.5382
24492SOL    HW274055   2.517   4.152   3.957  1.0087  2.4519 -0.4132
24493SOL     OW74056   4.452   7.723   8.417 -0.6159  0.1673 -0.0256
24493SOL    HW174057   4.484   7.633   8.426 -1.1747  0.0342  0.7014
24493SOL    HW274058   4.524   7.770   8.374  0.3384 -0.2507  1.0621
24494SOL     OW74059   2.867   2.050   4.397 -0.0288 -0.0920  0.0111
24494SOL    HW174060   2.787   2.002   4.420  0.1144  0.0692  0.9041
24494SOL    HW274061   2.933   2.015   4.457  0.9343 -1.2203 -1.6356
24495SOL     OW74062   9.344   8.675   4.195 -0.1528 -0.1160  0.1007
24495SOL    HW174063   9.400   8.707   4.265 -1.0629 -0.8656  1.2053
24495SOL    HW274064   9.397   8.684   4.116  1.0571  0.3379  0.9299
24496SOL     OW74065   6.238   0.910   9.793  0.2041 -0.0953  0.8573
24496SOL    HW174066   6.218   0.999   9.822 -1.2107 -0.6779  1.7580
24496SOL    HW274067   6.270   0.866   9.871  0.7087 -0.4396  0.4623
24497SOL     OW74068   0.164   9.314   3.814  0.1957  0.7564  0.0494
24497SOL    HW174069   0.147   9.406   3.837 -0.9334  0.6415 -0.2474
24497SOL    HW274070   0.081   9.270   3.831  0.6721 -0.1769 -0.0103
24498SOL     OW74071   9.672   9.853   2.388 -0.2698 -0.1932  0.6200
24498SOL    HW174072   9.602   9.881   2.330  0.2317 -0.0955  0.0480
24498SOL    HW274073   9.752   9.871   2.339  0.1052 -1.8052  0.5722
24499SOL     OW74074   9.209   5.882   7.777 -0.0382  0.0119  0.6619
24499SOL    HW174075   9.115   5.867   7.765 -0.1380  1.0272  0.0464
24499SOL    HW274076   9.243   5.798   7.806 -1.1814 -0.2994  1.1576
24500SOL     OW74077   3.521   0.964   7.477 -0.0327 -0.6290 -0.4819
24500SOL    HW174078   3.579   0.892   7.503 -0.7332 -0.6870  1.0626
24500SOL    HW274079   3.537   0.975   7.383  1.0802 -1.8895 -0.4776
24501SOL     OW74080   3.268   0.637   2.851 -0.3306 -0.1437 -0.7049
24501SOL    HW174081   3.340   0.576   2.866 -0.8574 -0.5648  0.2477
24501SOL    HW274082   3.281   0.669   2.762  1.1747 -0.0032 -0.4490
24502SOL     OW74083   1.386   5.149   5.345 -0.1037  0.2533 -0.4519
24502SOL    HW174084   1.408   5.057   5.361 -1.8607 -0.1302 -0.1068
24502SOL    HW274085   1.362   5.182   5.432 -0.9784  0.6076 -0.8244
24503SOL     OW74086   1.044   9.403   4.116  0.5300  0.0141 -0.4208
24503SOL    HW174087   0.972   9.345   4.138  0.4528  0.4143  0.4420
24503SOL    HW274088   1.121   9.346   4.113  0.4205 -0.1721  0.2010
24504SOL     OW74089   1.110   2.933   8.366 -0.1216 -0.9745  0.5109
24504SOL    HW174090   1.071   2.887   8.292  1.1045 -0.7797 -0.2982
24504SOL    HW274091   1.170   2.870   8.405  1.2243 -0.2701 -0.3226
24505SOL     OW74092   1.717   3.731   3.974 -0.1128  0.2497 -0.2171
24505SOL    HW174093   1.763   3.798   3.923  0.5095 -1.0583 -1.4470
24505SOL    HW274094   1.784   3.696   4.033  1.0770 -2.7164 -3.0511
24506SOL     OW74095   6.662   0.752   6.057 -0.2117  0.0119 -0.1950
24506SOL    HW174096   6.577   0.723   6.089  1.1569 -2.4241  1.5241
24506SOL    HW274097   6.723   0.732   6.128  1.5315  4.0026 -0.3132
24507SOL     OW74098   3.596   0.871   8.958  0.0440  0.4467 -0.1076
24507SOL    HW174099   3.533   0.903   8.893  0.9613 -0.6820 -1.6115
24507SOL    HW274100   3.679   0.865   8.910  0.6796 -0.7190  1.0915
24508SOL     OW74101   8.886   8.472   4.589  0.2953 -0.3725 -0.4371
24508SOL    HW174102   8.958   8.441   4.534  1.6042 -0.6421  1.3306
24508SOL    HW274103   8.912   8.449   4.678 -1.3614  0.7562  0.4024
24509SOL     OW74104   2.879   5.209   6.073 -0.7480  0.3353  0.2198
24509SOL    HW174105   2.872   5.153   5.996 -1.6948 -1.7574  1.7215
24509SOL    HW274106   2.967   5.193   6.107 -0.2033  1.5248 -0.5803
24510SOL     OW74107   6.405   2.038   1.401  0.1841  0.2644 -0.3342
24510SOL    HW174108   6.417   2.133   1.396  0.7539  0.2298  0.1793
24510SOL    HW274109   6.342   2.026   1.472 -0.2972  0.2775 -0.7515
24511SOL     OW74110   6.176   1.792   6.822  0.4948 -0.0860 -0.5122
24511SOL    HW174111   6.131   1.809   6.740  0.2937 -1.2634 -0.6593
24511SOL    HW274112   6.163   1.699   6.839  1.1163 -0.0146  0.5050
24512SOL     OW74113   1.975   6.876   4.797 -0.1392 -0.3425 -0.4083
24512SOL    HW174114   1.914   6.864   4.869 -0.4300 -1.9355 -0.8951
24512SOL    HW274115   2.061   6.862   4.836 -0.3236 -1.7072 -0.4452
24513SOL     OW74116   3.233   4.072   4.741 -0.0912 -0.2814  0.8623
24513SOL    HW174117   3.139   4.078   4.725 -0.1639 -1.0775  0.9455
24513SOL    HW274118   3.267   4.159   4.723 -0.8563  0.0204  0.8852
24514SOL     OW74119   8.309   1.771   3.623  0.6817  0.5668  0.2827
24514SOL    HW174120   8.392   1.726   3.607  0.8270  0.9310  0.0047
24514SOL    HW274121   8.317   1.854   3.578  0.2260  0.6760  0.3921
24515SOL     OW74122   5.852   4.879   8.708  0.4519  0.5061 -0.6085
24515SOL    HW174123   5.926   4.935   8.686  0.2596  0.7193 -0.7100
24515SOL    HW274124   5.807   4.865   8.625 -0.2005  1.2029 -0.3808
24516SOL     OW74125   6.579   8.373   3.121  0.2745 -0.4096 -0.3962
24516SOL    HW174126   6.567   8.399   3.213 -0.6013 -0.1407 -0.5827
24516SOL    HW274127   6.595   8.455   3.075 -0.0986 -0.4587 -0.6110
24517SOL     OW74128   1.422   1.158   5.659 -0.5079  0.1070  0.5844
24517SOL    HW174129   1.406   1.069   5.628  3.1083  0.0861 -1.7827
24517SOL    HW274130   1.419   1.151   5.755 -0.3289 -2.5645  0.4789
24518SOL     OW74131   3.811   1.451   8.280 -0.0104 -0.5493 -0.0632
24518SOL    HW174132   3.777   1.450   8.191  0.0019  0.4155 -0.0875
24518SOL    HW274133   3.763   1.521   8.323 -0.7528 -1.6688  0.9955
24519SOL     OW74134   9.451   5.051   1.556  0.1591  0.4340 -0.0634
24519SOL    HW174135   9.365   5.093   1.562  0.1494  0.3498  0.3845
24519SOL    HW274136   9.432   4.965   1.517  0.2126  0.9312 -1.2258
24520SOL     OW74137   0.696   3.951   1.336 -0.0295  0.0875 -0.3156
24520SOL    HW174138   0.617   3.923   1.291 -1.4647 -0.0666  2.1170
24520SOL    HW274139   0.745   4.000   1.271 -3.1392  2.0416 -1.4018
24521SOL     OW74140   2.011   1.138   0.426 -0.4221 -0.2830 -0.1131
24521SOL    HW174141   1.958   1.124   0.347  1.1580 -1.1410 -1.0782
24521SOL    HW274142   1.949   1.171   0.491 -1.6678  1.0378 -1.8798
24522SOL     OW74143   5.338   6.659   7.652  0.2426 -0.3309  0.2407
24522SOL    HW174144   5.330   6.749   7.618 -0.7634 -0.1397  0.9643
24522SOL    HW274145   5.285   6.658   7.731  1.4793 -1.1522  1.1037
24523SOL     OW74146   4.437   4.199   2.739 -0.1684  0.4857  0.5453
24523SOL    HW174147   4.482   4.218   2.822  1.2853  0.6992 -0.2552
24523SOL    HW274148   4.346   4.224   2.755  0.2731  1.4114  1.7854
24524SOL     OW74149   7.753   9.403   8.774 -0.1268 -0.1381  0.4003
24524SOL    HW174150   7.668   9.424   8.812  0.1432 -1.2207  1.6742
24524SOL    HW274151   7.764   9.309   8.790  2.1736  0.3382  2.0581
24525SOL     OW74152   8.299   8.589   7.406 -0.0847 -0.3391  0.2914
24525SOL    HW174153   8.345   8.511   7.375 -0.1975 -0.3618  0.1767
24525SOL    HW274154   8.266   8.565   7.492  0.8294 -0.0361  0.7333
24526SOL     OW74155   2.442   9.381   5.466  0.0114  0.1578  0.3035
24526SOL    HW174156   2.485   9.359   5.383 -2.2375 -2.6090 -0.2897
24526SOL    HW274157   2.360   9.423   5.440 -0.3275  0.0446  1.1646
24527SOL     OW74158   9.796   2.295   8.436 -0.6440  0.0243  0.3148
24527SOL    HW174159   9.785   2.206   8.470 -1.2417  0.8888  2.5932
24527SOL    HW274160   9.708   2.323   8.412 -0.4877  0.0695 -0.2131
24528SOL     OW74161   8.167   8.299   9.016 -0.3326  0.1144  1.0334
24528SOL    HW174162   8.259   8.274   9.006  0.0045  1.7068 -0.2443
24528SOL    HW274163   8.166   8.394   9.004 -2.0218  0.2750  2.0732
24529SOL     OW74164   9.880   7.042   0.977 -0.4473  0.1317  0.4735
24529SOL    HW174165   9.868   6.963   1.030  0.1211  0.7129  1.4833
24529SOL    HW274166   9.957   7.084   1.013  1.5056 -0.7075 -2.3731
24530SOL     OW74167   1.721   3.867   6.433  0.2780  0.7237 -0.0698
24530SOL    HW174168   1.803   3.820   6.415 -0.0114  0.1426  0.1059
24530SOL    HW274169   1.742   3.926   6.505 -0.0559 -1.1469  1.6246
24531SOL     OW74170   4.217   7.585   6.302 -0.0906 -0.0421 -0.1292
24531SOL    HW174171   4.307   7.567   6.328 -0.3744  0.4016  1.2063
24531SOL    HW274172   4.180   7.498   6.283  0.6666 -0.2077 -0.9353
24532SOL     OW74173   0.377   0.952   3.719  0.0285 -0.0287  0.0899
24532SOL    HW174174   0.285   0.959   3.692 -0.0404 -0.3944  0.2269
24532SOL    HW274175   0.410   1.042   3.713  0.2013 -0.1807 -1.8504
24533SOL     OW74176   4.961   8.602   4.164 -0.2114 -0.7640 -0.2743
24533SOL    HW174177   5.034   8.658   4.189 -0.9382 -0.8743  2.3337
24533SOL    HW274178   4.979   8.580   4.072  1.9179  0.8518 -0.3348
24534SOL     OW74179   4.162   3.696   5.347 -0.9187  0.2116  0.4743
24534SOL    HW174180   4.172   3.636   5.421 -1.7023 -0.5420 -0.0126
24534SOL    HW274181   4.212   3.774   5.372 -0.8694 -0.1782  1.6327
24535SOL     OW74182   6.635   3.348   7.079  0.7144  0.1653 -0.1492
24535SOL    HW174183   6.566   3.405   7.045 -0.3228 -2.2293 -2.3726
24535SOL    HW274184   6.699   3.343   7.008 -0.0406 -2.6426 -0.7565
24536SOL     OW74185   7.412   3.441   2.226  0.8088  0.0294 -0.3737
24536SOL    HW174186   7.440   3.400   2.144  0.1398 -0.7285 -0.2307
24536SOL    HW274187   7.323   3.470   2.209  0.5229 -0.4911  0.2099
24537SOL     OW74188   0.828   3.948   8.115 -0.1070 -0.3969 -0.0367
24537SOL    HW174189   0.814   3.854   8.122 -0.8784 -0.3511 -0.8171
24537SOL    HW274190   0.824   3.966   8.021 -2.0286  0.6995  0.2129
24538SOL     OW74191   4.114   2.244   5.135 -0.0140  0.5860 -0.0987
24538SOL    HW174192   4.060   2.228   5.058 -0.7098 -2.3246  0.8711
24538SOL    HW274193   4.198   2.273   5.100 -0.6409  0.3244 -1.9031
24539SOL     OW74194   9.573   1.040   6.438 -0.7580  0.0224 -0.1994
24539SOL    HW174195   9.634   1.003   6.502 -3.4081 -1.3506  1.7237
24539SOL    HW274196   9.524   1.106   6.486 -1.2906  0.6152 -1.4940
24540SOL     OW74197   0.509   8.228   7.922  0.2934  0.3253  0.2410
24540SOL    HW174198   0.432   8.209   7.975  0.1827  0.4915  0.1419
24540SOL    HW274199   0.554   8.144   7.913 -0.4270  0.0208 -0.5655
24541SOL     OW74200   9.348   9.252   7.536 -0.2564  0.6199 -0.3296
24541SOL    HW174201   9.335   9.336   7.492  2.4531  0.9881 -0.6104
24541SOL    HW274202   9.359   9.189   7.465 -0.6164  0.3303 -0.1303
24542SOL     OW74203   8.068   6.582   6.770  0.0866 -0.3470 -0.5459
24542SOL    HW174204   7.999   6.626   6.719  0.2775  0.5397 -0.0557
24542SOL    HW274205   8.148   6.596   6.720 -0.0245 -1.1558 -0.9816
24543SOL     OW74206   8.950   2.653   4.503  0.9197 -0.3402  0.3280
24543SOL    HW174207   8.908   2.663   4.588 -0.4141 -0.6974 -0.2678
24543SOL    HW274208   9.027   2.597   4.521 -0.3310 -1.9140  1.0295
24544SOL     OW74209   9.529   6.255   6.643 -0.5181  0.0531  0.8143
24544SOL    HW174210   9.515   6.284   6.553  1.2998  1.5219  0.9391
24544SOL    HW274211   9.502   6.163   6.644 -0.7515  0.0658 -1.1742
24545SOL     OW74212   7.097   0.074   1.156  0.9404 -0.0475  0.3457
24545SOL    HW174213   7.020   0.126   1.177  0.1593 -2.1650  3.3381
24545SOL    HW274214   7.071   0.020   1.082 -0.1155 -0.0196  0.6886
24546SOL     OW74215   4.997   5.466   3.651  0.3399  0.0251 -0.2601
24546SOL    HW174216   4.965   5.404   3.717  0.5236  0.9595  0.7309
24546SOL    HW274217   4.979   5.552   3.688  0.2919  0.5748 -1.5196
24547SOL     OW74218   1.973   2.488   2.041 -0.6820 -0.4013  0.1351
24547SOL    HW174219   1.989   2.395   2.025 -2.0673 -0.6939  0.3104
24547SOL    HW274220   1.935   2.491   2.129  0.2325  0.4470  0.5229
24548SOL     OW74221   5.531   4.620   1.596  0.5283 -0.1527  0.1405
24548SOL    HW174222   5.585   4.546   1.623 -0.0664 -1.6426 -2.4587
24548SOL    HW274223   5.594   4.685   1.564  0.9299 -0.4068  0.4009
24549SOL     OW74224   0.835   5.750   4.587  0.0773 -0.8889 -0.3058
24549SOL    HW174225   0.850   5.837   4.623  1.4435 -1.4708  0.6212
24549SOL    HW274226   0.785   5.765   4.506  1.3265  0.8441 -0.8138
24550SOL     OW74227   8.048   7.370   5.206 -0.3294 -0.1732  0.3223
24550SOL    HW174228   7.968   7.381   5.258 -0.6105 -0.0579 -0.1276
24550SOL    HW274229   8.074   7.459   5.183 -0.8277 -0.2572 -0.6524
24551SOL     OW74230   0.126   9.144   4.208  0.5723 -0.0511  0.1839
24551SOL    HW174231   0.183   9.183   4.142 -1.7246  0.8639 -1.4175
24551SOL    HW274232   0.113   9.213   4.273  3.6244 -1.2734  2.2777
24552SOL     OW74233   0.127   3.767   8.875 -0.1070  0.0087 -0.9741
24552SOL    HW174234   0.116   3.791   8.783 -1.6765  0.6247 -0.6614
24552SOL    HW274235   0.038   3.765   8.910  0.4286 -0.6374  0.4385
24553SOL     OW74236   7.162   1.505   2.617  0.0278  0.0464 -0.3280
24553SOL    HW174237   7.223   1.512   2.543  0.3295  0.3138 -0.0576
24553SOL    HW274238   7.190   1.573   2.677 -0.1962 -0.1951  0.0520
24554SOL     OW74239   8.267   3.681   1.633  0.2630  0.1394  0.0028
24554SOL    HW174240   8.255   3.617   1.704 -2.3697  0.5516 -0.0002
24554SOL    HW274241   8.263   3.629   1.553 -0.1952  0.0940  0.0539
24555SOL     OW74242   0.848   0.725   1.364  0.3191  0.2085 -0.2069
24555SOL    HW174243   0.940   0.744   1.385  0.0667  0.2063  0.9342
24555SOL    HW274244   0.814   0.807   1.330  0.5513  0.4026  0.0300
24556SOL     OW74245   6.537   6.185   5.102  0.0037  0.2435  0.4514
24556SOL    HW174246   6.507   6.234   5.178 -0.9256  0.8026 -0.2519
24556SOL    HW274247   6.580   6.250   5.046 -0.8452  0.1958 -0.2839
24557SOL     OW74248   2.079   2.395   7.734  0.0761  0.1416  0.4891
24557SOL    HW174249   2.099   2.435   7.818 -1.3606  0.0105  0.9170
24557SOL    HW274250   1.990   2.362   7.743  0.1562 -0.5278 -0.8438
24558SOL     OW74251   6.419   1.234   6.683  0.5091 -0.4691 -0.3812
24558SOL    HW174252   6.423   1.144   6.714  0.2174 -0.8176 -1.3430
24558SOL    HW274253   6.386   1.228   6.594 -2.1373  0.7484  0.3882
24559SOL     OW74254   4.210   7.878   0.267 -0.3356 -0.3743 -0.6780
24559SOL    HW174255   4.234   7.859   0.357  1.8397 -0.3900 -1.2036
24559SOL    HW274256   4.119   7.907   0.272  0.0330  0.6091  1.6499
24560SOL     OW74257   1.964   5.390   0.417  0.3153  0.2702  0.0251
24560SOL    HW174258   2.026   5.358   0.482 -0.2691 -2.7422 -0.7737
24560SOL    HW274259   1.905   5.447   0.467  0.3279 -1.3558  2.0308
24561SOL     OW74260   5.608   7.979   5.500  0.0100 -0.3229 -0.2688
24561SOL    HW174261   5.686   7.944   5.459  0.0483 -1.8763  1.0455
24561SOL    HW274262   5.537   7.960   5.437  0.0111 -2.9312  0.3919
24562SOL     OW74263   0.874   4.037   0.803 -0.0000  0.1190 -0.1631
24562SOL    HW174264   0.970   4.044   0.809 -0.0954  1.0599  0.4899
24562SOL    HW274265   0.859   3.949   0.770  1.0631 -0.4118  0.6931
24563SOL     OW74266   7.076   3.218   9.842 -0.6113  0.0739 -0.2440
24563SOL    HW174267   7.100   3.259   9.925 -1.7388 -1.6641  1.0069
24563SOL    HW274268   7.160   3.201   9.799  0.1580 -0.8677  1.5087
24564SOL     OW74269   0.558   4.569   6.096  0.4696  0.0800 -0.2530
24564SOL    HW174270   0.617   4.496   6.076 -0.1988 -0.5036 -0.1204
24564SOL    HW274271   0.588   4.601   6.182 -0.5021 -1.3700  0.6733
24565SOL     OW74272   6.911   8.182   9.472 -0.6684  0.1817  0.1511
24565SOL    HW174273   6.990   8.229   9.443  0.4859 -1.5151  0.4077
24565SOL    HW274274   6.924   8.172   9.566  0.1404 -2.3974 -0.1713
24566SOL     OW74275   3.589   7.603   0.584 -0.0142 -0.3070  0.0870
24566SOL    HW174276   3.646   7.583   0.658 -1.6180 -0.2931  1.3766
24566SOL    HW274277   3.500   7.594   0.618 -0.8139  1.0136 -1.4760
24567SOL     OW74278   8.954   7.130   7.485 -0.1673  0.5461  0.1390
24567SOL    HW174279   9.018   7.201   7.486 -0.6509  1.1020 -2.0768
24567SOL    HW274280   8.954   7.099   7.394 -1.3333 -1.0395  0.6274
24568SOL     OW74281   3.894   1.179   0.626  0.4114  0.4968  0.1311
24568SOL    HW174282   3.908   1.274   0.632  1.4090  0.2900  1.8220
24568SOL    HW274283   3.807   1.165   0.664 -0.3485  0.8446 -1.4186
24569SOL     OW74284   5.364   4.577   2.698  0.2144 -0.1316  0.1012
24569SOL    HW174285   5.376   4.493   2.653 -0.0995 -0.1021 -0.0367
24569SOL    HW274286   5.426   4.635   2.654  1.3327 -0.5957  1.0196
24570SOL     OW74287   5.021   0.049   0.975 -0.1251  0.5170 -0.0764
24570SOL    HW174288   4.939   0.095   0.990  0.3108  1.3092 -0.0225
24570SOL    HW274289   5.068   0.056   1.058 -1.4494 -3.1012  1.1458
24571SOL     OW74290   3.282   2.017   6.306 -0.2110 -0.6105 -0.2578
24571SOL    HW174291   3.267   1.946   6.244 -0.7676  1.0048 -2.0414
24571SOL    HW274292   3.195   2.041   6.337 -0.0986 -0.1465 -0.2952
24572SOL     OW74293   2.209   4.846   8.302  0.6270 -0.4345  0.0524
24572SOL    HW174294   2.265   4.831   8.226  1.2101  1.7080  0.0062
24572SOL    HW274295   2.201   4.760   8.343  1.0637 -1.4559 -1.8888
24573SOL     OW74296   5.755   0.090   4.239  0.6738 -0.0019 -0.2214
24573SOL    HW174297   5.737   0.163   4.298 -1.4506 -0.8261  0.2791
24573SOL    HW274298   5.770   0.130   4.154 -0.6385  1.0370  0.0083
24574SOL     OW74299   5.514   9.950   1.647  0.0557 -0.5359  0.2924
24574SOL    HW174300   5.586   9.922   1.703  0.8712 -0.2464 -0.5871
24574SOL    HW274301   5.540  10.037   1.617 -1.1362  0.0069  0.7576
24575SOL     OW74302   5.607   3.699   6.816 -0.2618  0.0750 -0.2670
24575SOL    HW174303   5.592   3.779   6.766 -0.7048 -1.4319 -2.7336
24575SOL    HW274304   5.700   3.702   6.838 -0.2480  1.1960 -0.4224
24576SOL     OW74305   1.503   4.872   0.346  0.4292  0.0143  0.4690
24576SOL    HW174306   1.477   4.785   0.378 -1.4310 -0.5689 -2.3333
24576SOL    HW274307   1.585   4.855   0.298 -0.8694 -0.6490 -1.6493
24577SOL     OW74308   8.598   0.659   1.026 -0.3255 -0.0341 -0.2793
24577SOL    HW174309   8.522   0.717   1.034 -2.0236 -2.0389 -1.0104
24577SOL    HW274310   8.628   0.671   0.936 -1.4915 -1.1974 -0.8441
24578SOL     OW74311   5.586   2.586   7.472 -0.0318  0.5127  0.0790
24578SOL    HW174312   5.519   2.521   7.452  0.1796  0.6251 -1.0610
24578SOL    HW274313   5.607   2.625   7.387 -0.2936  2.2038  0.7468
24579SOL     OW74314   1.223   8.378   7.219 -0.2409 -0.1323 -0.2672
24579SOL    HW174315   1.281   8.372   7.295 -0.7468  1.6404  0.3146
24579SOL    HW274316   1.190   8.468   7.221 -1.7827 -0.6191 -1.4794
24580SOL     OW74317   5.644   4.924   3.255 -0.0202 -0.3999  0.5548
24580SOL    HW174318   5.655   4.979   3.332 -0.8004  1.1704 -0.3871
24580SOL    HW274319   5.556   4.888   3.263 -0.2372  0.0456  0.2583
24581SOL     OW74320   2.904   0.881   2.871  0.1554  0.2805 -0.5721
24581SOL    HW174321   2.952   0.800   2.883  1.8149  1.1386 -1.1197
24581SOL    HW274322   2.928   0.935   2.946 -0.3280  0.5520 -0.6042
24582SOL     OW74323   1.572   1.758   0.558 -0.0059 -0.1352  0.4013
24582SOL    HW174324   1.595   1.790   0.471  1.1682 -0.0108  0.7363
24582SOL    HW274325   1.607   1.825   0.617 -3.0288  1.1547  0.9395
24583SOL     OW74326   2.762   3.653   9.000  0.2891 -0.1002 -0.1004
24583SOL    HW174327   2.711   3.660   8.919  1.4812  0.5251 -0.8386
24583SOL    HW274328   2.826   3.584   8.982  2.0655  1.5831 -0.6099
24584SOL     OW74329   0.643   4.090   3.592  0.3581  0.1273  0.0024
24584SOL    HW174330   0.685   4.080   3.677  0.4461 -0.6024 -0.1245
24584SOL    HW274331   0.707   4.057   3.529  0.1310  0.2832 -0.3138
24585SOL     OW74332   7.554   1.386   7.793  0.3681 -0.6405  0.2438
24585SOL    HW174333   7.637   1.338   7.786  1.0017  0.4204  0.3621
24585SOL    HW274334   7.530   1.406   7.703  0.5921 -0.3531  0.2486
24586SOL     OW74335   0.235   7.610   0.293 -0.4548  0.3964 -0.6274
24586SOL    HW174336   0.158   7.596   0.349  0.3605 -1.4262  0.1178
24586SOL    HW274337   0.245   7.528   0.245  0.5413  0.9103 -1.3305
24587SOL     OW74338   7.001   1.406   4.284  0.0615 -0.1132  0.2216
24587SOL    HW174339   7.083   1.375   4.323  0.8146  2.1576  0.5592
24587SOL    HW274340   7.012   1.390   4.190 -0.9066 -3.6652  0.5673
24588SOL     OW74341   9.828   7.884   8.999 -0.0864  0.0450 -0.1404
24588SOL    HW174342   9.863   7.938   9.069 -1.4943  0.9597 -0.1186
24588SOL    HW274343   9.812   7.944   8.927  2.7749 -1.0903 -1.8995
24589SOL     OW74344   2.064   5.149   2.132  0.1107 -0.3953  0.0926
24589SOL    HW174345   1.994   5.148   2.067 -0.0496  0.3407  0.2436
24589SOL    HW274346   2.021   5.172   2.214  0.7821  2.0541 -0.1706
24590SOL     OW74347   0.484   7.878   6.304 -0.0828  0.3520 -0.7485
24590SOL    HW174348   0.510   7.954   6.357  0.1981 -2.6769  4.0012
24590SOL    HW274349   0.400   7.903   6.267  0.4848  3.3168 -0.3382
24591SOL     OW74350   5.667   2.916   5.578 -0.6892 -0.1174  0.6893
24591SOL    HW174351   5.633   2.984   5.520 -0.0831 -0.0813  0.3654
24591SOL    HW274352   5.731   2.961   5.633 -0.6963 -0.3102  0.8579
24592SOL     OW74353   0.444   8.029   3.146 -0.1249 -0.5679 -0.1241
24592SOL    HW174354   0.404   7.978   3.216 -0.8149 -2.0180 -1.4978
24592SOL    HW274355   0.389   8.107   3.138 -1.2574 -1.3784 -0.3922
24593SOL     OW74356   7.329   9.379   7.703  0.1112 -0.2348 -0.8124
24593SOL    HW174357   7.236   9.384   7.725  0.0950 -0.9528 -0.7015
24593SOL    HW274358   7.341   9.448   7.637 -0.5520 -0.3044 -1.0178
24594SOL     OW74359   1.973   5.089   5.263  0.8755  0.2381 -0.8449
24594SOL    HW174360   2.023   5.135   5.195  0.8127 -1.9683 -2.4926
24594SOL    HW274361   1.939   5.011   5.219 -2.0941  0.4366  0.8419
24595SOL     OW74362  -0.030   4.397   9.055  0.5558  0.4834  0.6312
24595SOL    HW174363   0.041   4.410   8.992  0.0743 -0.3731 -0.1183
24595SOL    HW274364  -0.004   4.448   9.132  1.5408  0.9071  0.0375
24596SOL     OW74365   8.033   1.770   8.829  0.3209 -0.4903 -0.3335
24596SOL    HW174366   8.029   1.742   8.737  0.0211 -2.2110  0.1754
24596SOL    HW274367   8.056   1.691   8.878  1.0597  0.5278  1.0363
24597SOL     OW74368   6.939   7.475   1.213  0.3244  0.1845  0.1285
24597SOL    HW174369   6.965   7.477   1.306  0.1119 -0.0466  0.1944
24597SOL    HW274370   6.906   7.563   1.195  1.2202  0.5123  0.0226
24598SOL     OW74371   1.060   8.044   2.580  0.1707  0.0983 -0.0003
24598SOL    HW174372   1.046   8.134   2.610  0.9709 -0.0034  0.7005
24598SOL    HW274373   1.111   8.003   2.649  0.7885 -0.5694 -0.8241
24599SOL     OW74374   9.532   9.672   9.608  0.0867 -0.0317 -0.0633
24599SOL    HW174375   9.598   9.645   9.543 -0.6119  1.2855 -1.3933
24599SOL    HW274376   9.485   9.591   9.629 -0.9942 -0.2364 -2.7906
24600SOL     OW74377   0.551   5.428   4.117 -0.0257 -0.0106  0.2083
24600SOL    HW174378   0.605   5.375   4.176  0.1782  0.0762  0.0989
24600SOL    HW274379   0.527   5.505   4.169 -0.6772 -0.4079  0.5124
24601SOL     OW74380   8.816   4.360   6.855 -0.1662  0.2707  0.2311
24601SOL    HW174381   8.855   4.400   6.777  1.6548 -0.3443  0.7775
24601SOL    HW274382   8.811   4.267   6.835  0.0332  0.1497  0.7355
24602SOL     OW74383   5.590   5.422   3.655  0.2158 -0.3757 -0.7169
24602SOL    HW174384   5.544   5.356   3.707 -0.8923 -1.0990 -2.5017
24602SOL    HW274385   5.674   5.433   3.698 -0.9775 -0.2188  1.7493
24603SOL     OW74386   4.729   8.240   0.240 -0.3970 -0.5780  0.1363
24603SOL    HW174387   4.769   8.163   0.281  2.6892  0.9874  0.4051
24603SOL    HW274388   4.756   8.235   0.149 -1.1335 -0.3519 -0.1015
24604SOL     OW74389   1.878   5.003   0.215  0.3077 -0.4367 -0.1939
24604SOL    HW174390   1.805   5.053   0.250  0.2508 -0.5049 -0.2142
24604SOL    HW274391   1.878   4.921   0.266  0.0672 -0.6434 -0.5230
24605SOL     OW74392   9.232   6.451   1.360  0.4259  0.4405  0.5916
24605SOL    HW174393   9.261   6.360   1.352 -2.4927 -0.8005  2.4465
24605SOL    HW274394   9.213   6.461   1.453 -1.2058  2.3056  0.1156
24606SOL     OW74395   0.598   6.783   1.524  0.2601 -0.6409  0.4722
24606SOL    HW174396   0.613   6.863   1.473 -2.1028  0.1649  0.9070
24606SOL    HW274397   0.602   6.812   1.615 -1.5075 -0.7631  0.6267
24607SOL     OW74398   6.779   0.539   8.876  0.1055 -0.3544  0.0845
24607SOL    HW174399   6.833   0.617   8.890 -1.5811  0.7272  0.9287
24607SOL    HW274400   6.837   0.478   8.830  1.9727  0.7826  0.7872
24608SOL     OW74401   5.618   2.512   8.943 -0.3653  0.2840 -0.4272
24608SOL    HW174402   5.527   2.540   8.955 -0.2005  1.2948 -1.3588
24608SOL    HW274403   5.634   2.450   9.014 -1.7266  0.2264 -0.1454
24609SOL     OW74404   5.763   8.504   9.543  0.0453 -0.1848 -0.1627
24609SOL    HW174405   5.724   8.589   9.563 -1.2419 -0.3469 -1.7689
24609SOL    HW274406   5.699   8.440   9.576  0.2798 -0.5014 -0.3160
24610SOL     OW74407   0.270   3.770   5.758 -0.3634  0.4686  0.6574
24610SOL    HW174408   0.297   3.860   5.775  1.3327 -0.0871  1.1169
24610SOL    HW274409   0.331   3.739   5.691  0.3850 -0.9363  1.9320
24611SOL     OW74410   5.859   5.212   4.053  0.4115 -0.3874 -0.0148
24611SOL    HW174411   5.939   5.201   4.104  0.1943 -0.3254  0.3405
24611SOL    HW274412   5.789   5.209   4.117  0.2083  1.0732 -0.1314
24612SOL     OW74413   2.724   9.454   4.363 -0.3454 -0.3635  0.1029
24612SOL    HW174414   2.798   9.408   4.323 -2.2149 -3.1852 -0.4341
24612SOL    HW274415   2.651   9.437   4.302 -2.2278 -0.8049  2.3512
24613SOL     OW74416   3.281   8.270   6.868  0.1090 -0.0718  0.4537
24613SOL    HW174417   3.259   8.183   6.835  1.6522  0.2504 -1.5854
24613SOL    HW274418   3.374   8.264   6.890  0.0852  0.9056  0.8575
24614SOL     OW74419   2.931   3.427   7.852  0.1322 -0.0678  0.4270
24614SOL    HW174420   2.859   3.365   7.854  0.5748 -0.6660 -0.8964
24614SOL    HW274421   2.984   3.407   7.929 -0.9951  0.2534  1.2999
24615SOL     OW74422   0.166   6.220   8.293 -0.2126  0.6389  0.2968
24615SOL    HW174423   0.221   6.265   8.229 -1.3753 -0.6923 -1.7298
24615SOL    HW274424   0.206   6.134   8.304  0.2159  0.9958  1.7351
24616SOL     OW74425   3.441   0.955   6.301  0.4274  0.1667  0.8330
24616SOL    HW174426   3.419   0.937   6.210 -1.0410 -3.2955  1.6844
24616SOL    HW274427   3.533   0.933   6.309  0.3324 -0.4180  0.3593
24617SOL     OW74428   0.084   5.231   7.236 -0.2362  0.2409 -0.2053
24617SOL    HW174429   0.094   5.179   7.156  0.9705  0.3004 -0.1106
24617SOL    HW274430   0.003   5.280   7.223  0.3763  0.9181 -1.8001
24618SOL     OW74431   7.698   8.768   6.325  0.5475  0.2687  0.2520
24618SOL    HW174432   7.615   8.816   6.328  0.9068  0.8877  0.3766
24618SOL    HW274433   7.726   8.775   6.234 -0.5136 -1.6570 -0.2919
24619SOL     OW74434   9.958   5.552   2.284  0.3545  0.5907 -0.5563
24619SOL    HW174435  10.007   5.524   2.207  0.0435  1.6457 -1.1520
24619SOL    HW274436   9.911   5.474   2.312  0.0595  0.3184 -1.7533
24620SOL     OW74437   4.297   6.509   5.335 -0.4966 -0.3430 -0.5104
24620SOL    HW174438   4.388   6.531   5.317 -1.1729  2.3355 -1.0611
24620SOL    HW274439   4.295   6.495   5.430 -0.3098  5.2473  0.6981
24621SOL     OW74440   7.040   1.213   8.763  0.0872  0.3736 -0.0885
24621SOL    HW174441   7.107   1.230   8.697 -1.0256 -1.3575 -1.7679
24621SOL    HW274442   6.967   1.270   8.739  0.1481  0.6891  0.4509
24622SOL     OW74443   2.621   1.234   8.111 -0.5947  0.3601  0.6054
24622SOL    HW174444   2.538   1.281   8.104 -1.3951 -0.7836  1.8976
24622SOL    HW274445   2.682   1.298   8.146 -0.9002  1.2263 -0.3927
24623SOL     OW74446   3.587   7.015   4.142  0.1029 -0.3829 -0.1973
24623SOL    HW174447   3.529   7.003   4.218  0.4022 -0.6181 -0.0037
24623SOL    HW274448   3.628   6.930   4.131 -0.7349 -0.6671 -1.2924
24624SOL     OW74449   4.687   5.649   6.440 -0.1004  0.4364  0.7550
24624SOL    HW174450   4.675   5.658   6.535  1.3089 -1.8239  1.2136
24624SOL    HW274451   4.607   5.604   6.411 -0.9548  1.9366  0.6619
24625SOL     OW74452   2.893   6.644   6.425  0.2005  0.0412 -0.2407
24625SOL    HW174453   2.917   6.676   6.338 -1.0556 -0.1771 -0.6867
24625SOL    HW274454   2.800   6.621   6.418  0.4477 -1.3998  0.7412
24626SOL     OW74455   4.252   9.699   7.575 -0.0273 -0.1223 -0.0051
24626SOL    HW174456   4.334   9.674   7.616  0.5922 -0.2468 -1.2639
24626SOL    HW274457   4.217   9.617   7.540 -0.2666  0.0647 -0.2049
24627SOL     OW74458   2.630   3.308   9.783 -0.7138 -0.1049  0.1563
24627SOL    HW174459   2.667   3.279   9.867 -1.0680  0.5460  0.5438
24627SOL    HW274460   2.536   3.301   9.795 -0.8465  1.9777  0.5596
24628SOL     OW74461   0.350   8.665   5.989 -0.2845  0.1543  1.1528
24628SOL    HW174462   0.293   8.590   5.970  0.7986 -0.4654  0.2472
24628SOL    HW274463   0.427   8.626   6.030  0.9935  0.5369 -0.7453
24629SOL     OW74464   7.935   4.500   0.252 -0.0241 -0.1416 -0.1219
24629SOL    HW174465   7.948   4.595   0.246  0.9622 -0.3292 -1.0909
24629SOL    HW274466   8.015   4.462   0.217 -1.0893 -1.3508 -1.3802
24630SOL     OW74467   3.936   3.167   2.986 -0.1977 -0.0637 -0.1143
24630SOL    HW174468   4.019   3.143   2.946 -0.8039 -1.0616 -0.8172
24630SOL    HW274469   3.878   3.187   2.913 -0.4823  0.9901  0.3800
24631SOL     OW74470   8.907   9.780   3.240  0.4709 -0.1559  0.5944
24631SOL    HW174471   8.876   9.864   3.273  0.5125 -0.0086  0.2626
24631SOL    HW274472   8.939   9.734   3.318 -0.7082 -0.3704  0.9742
24632SOL     OW74473   4.913   2.661   3.966  0.7111  0.1210 -0.0720
24632SOL    HW174474   4.880   2.712   4.040 -0.8435 -0.0455 -0.6129
24632SOL    HW274475   5.007   2.652   3.983  0.4503  0.4038  1.6727
24633SOL     OW74476   8.090   1.258   9.138  0.2665  0.4670  0.0254
24633SOL    HW174477   8.114   1.166   9.149 -2.3447 -0.0216  2.7781
24633SOL    HW274478   8.032   1.259   9.062 -0.5196 -0.3813  0.5944
24634SOL     OW74479   8.530   2.046   5.885 -0.2567  0.6308 -0.2840
24634SOL    HW174480   8.523   2.096   5.966  1.1043 -0.9786  0.8897
24634SOL    HW274481   8.623   2.026   5.876 -0.6456 -0.9837 -1.1165
24635SOL     OW74482   0.975   6.750   3.956  0.1987 -0.2549 -0.2579
24635SOL    HW174483   0.928   6.747   3.873  0.8060  1.2327 -0.6823
24635SOL    HW274484   1.057   6.703   3.939  0.5330  0.4547 -0.6587
24636SOL     OW74485   4.573   8.684   0.368  0.3776 -0.2917  0.1670
24636SOL    HW174486   4.577   8.774   0.399 -0.2135  0.1693 -1.0346
24636SOL    HW274487   4.586   8.690   0.274 -3.3387 -1.0372 -0.5214
24637SOL     OW74488   6.776   6.345   0.182 -0.1040 -0.1720  0.2559
24637SOL    HW174489   6.693   6.391   0.165  0.1609  0.2780  0.1477
24637SOL    HW274490   6.782   6.280   0.112 -0.9128 -0.9794  0.9260
24638SOL     OW74491   7.355   1.875   8.862 -0.3024 -0.1942 -0.2286
24638SOL    HW174492   7.410   1.953   8.860 -0.5600  0.0024  0.3135
24638SOL    HW274493   7.386   1.825   8.938  0.3017 -0.9480 -0.9493
24639SOL     OW74494   4.427   6.830   9.174 -0.2245  0.1267  0.3165
24639SOL    HW174495   4.500   6.811   9.114 -1.2050  1.4634 -1.3990
24639SOL    HW274496   4.463   6.894   9.235  0.5046 -0.4905  0.5487
24640SOL     OW74497   3.537   7.062   3.118 -0.1894  0.5421 -0.6901
24640SOL    HW174498   3.615   7.014   3.092 -0.1841 -0.7031  1.4242
24640SOL    HW274499   3.565   7.154   3.118  1.2877  0.1331 -0.0778
24641SOL     OW74500   3.525   4.211   3.516 -0.2161  0.8179  0.2177
24641SOL    HW174501   3.551   4.279   3.578 -0.9568  1.3411 -0.0137
24641SOL    HW274502   3.596   4.148   3.516  1.1479  2.2912 -0.5610
24642SOL     OW74503   3.873   1.887   9.385 -0.3710 -0.1585 -0.2497
24642SOL    HW174504   3.779   1.903   9.383 -0.5534 -0.5470  2.0677
24642SOL    HW274505   3.905   1.939   9.459  1.2942  0.2049 -1.1737
24643SOL     OW74506   9.911   7.966   7.541 -0.1422 -0.1022 -0.0332
24643SOL    HW174507   9.837   7.920   7.580  0.1169 -0.3684  0.1534
24643SOL    HW274508   9.879   7.998   7.457 -0.0260 -1.5586 -0.6639
24644SOL     OW74509   4.990   2.400   9.043 -0.0431 -0.1280 -0.0667
24644SOL    HW174510   5.011   2.351   8.964 -1.3317 -0.5467 -0.1600
24644SOL    HW274511   4.944   2.338   9.099 -2.6520  1.1824 -0.6097
24645SOL     OW74512   9.975   4.813   2.284 -0.0487 -0.0637 -0.1131
24645SOL    HW174513   9.909   4.804   2.215 -0.9849 -1.5362  0.9139
24645SOL    HW274514   9.926   4.803   2.366  1.2848 -0.0084  0.7280
24646SOL     OW74515   5.277   0.176   2.116 -0.1573 -0.0056 -0.6057
24646SOL    HW174516   5.277   0.272   2.118 -0.4045 -0.0150  1.2221
24646SOL    HW274517   5.200   0.151   2.167  1.4795 -1.1785  1.4290
24647SOL     OW74518   4.855   0.441   0.079 -0.4184  0.4789 -0.1631
24647SOL    HW174519   4.809   0.505   0.024 -2.0560  0.2251  0.8515
24647SOL    HW274520   4.795   0.367   0.087  1.1471 -0.9388 -0.7240
24648SOL     OW74521   2.169   7.482   4.234  0.3542 -0.2646  0.0186
24648SOL    HW174522   2.160   7.523   4.148 -1.2390 -0.3877  0.0978
24648SOL    HW274523   2.079   7.465   4.262  0.8967 -1.6686  1.0248
24649SOL     OW74524   7.875   4.339   8.305 -0.2372  0.8397 -0.1167
24649SOL    HW174525   7.913   4.251   8.316 -0.7342  0.5014 -1.0295
24649SOL    HW274526   7.932   4.396   8.356 -0.8453 -0.2337  1.8835
24650SOL     OW74527   1.831   6.517   5.655  0.1243 -0.8040 -0.1914
24650SOL    HW174528   1.898   6.564   5.705 -0.6153  0.9036 -0.7342
24650SOL    HW274529   1.751   6.527   5.707 -0.1854 -0.8570 -0.6577
24651SOL     OW74530   4.075   7.898   3.469  0.4518  0.8577 -0.1818
24651SOL    HW174531   4.074   7.816   3.418  0.2477  0.7824 -0.0566
24651SOL    HW274532   4.159   7.897   3.514  0.8286  1.1375 -0.8622
24652SOL     OW74533   6.981   4.695   6.292 -0.2145 -0.1888 -0.1128
24652SOL    HW174534   7.075   4.680   6.301  0.0743  0.6697 -1.4342
24652SOL    HW274535   6.960   4.664   6.204 -0.9279  0.6695 -0.2658
24653SOL     OW74536   7.226   9.884   2.340 -0.1709 -0.5124 -0.1443
24653SOL    HW174537   7.251   9.965   2.383  0.2319 -1.3652  1.3012
24653SOL    HW274538   7.253   9.896   2.249 -0.7472  1.2169 -0.1253
24654SOL     OW74539   9.946   9.100   8.128  0.9093 -0.0950 -0.4036
24654SOL    HW174540  10.031   9.065   8.102 -0.1452 -1.2948 -2.4687
24654SOL    HW274541   9.884   9.032   8.104 -0.5986  0.3087  1.9975
24655SOL     OW74542   8.451   1.381   5.519  0.5831  0.8221  0.3511
24655SOL    HW174543   8.484   1.345   5.601 -0.6655  0.5464  0.7556
24655SOL    HW274544   8.394   1.453   5.545 -0.5396  0.1614 -0.1934
24656SOL     OW74545   6.562   5.523   1.996  0.1544  0.0619 -0.1855
24656SOL    HW174546   6.646   5.532   2.042 -0.0773  1.2176  0.0512
24656SOL    HW274547   6.528   5.612   1.992 -0.8101 -0.3225 -0.7702
24657SOL     OW74548   0.074   2.702   0.173  0.0684 -0.0497  0.2655
24657SOL    HW174549   0.168   2.684   0.171 -0.1405 -1.0720 -0.6229
24657SOL    HW274550   0.068   2.797   0.185  1.1979 -0.1401  1.7329
24658SOL     OW74551   9.897   1.206   1.151  0.0667 -0.0089 -0.2152
24658SOL    HW174552   9.889   1.233   1.243  0.2671 -0.2669 -0.1203
24658SOL    HW274553   9.904   1.111   1.155 -0.0422 -0.0286 -0.5084
24659SOL     OW74554   8.501   6.595   3.585  0.6482 -0.6744  0.0357
24659SOL    HW174555   8.486   6.580   3.678  0.9328 -0.1891  0.1637
24659SOL    HW274556   8.594   6.614   3.578  0.1559  2.0600  0.0488
24660SOL     OW74557   9.715   6.647   0.043  0.1455 -0.0982 -0.0474
24660SOL    HW174558   9.639   6.596   0.072 -0.3775  1.2051  1.0363
24660SOL    HW274559   9.706   6.652  -0.052 -1.1235 -0.0072  0.0580
24661SOL     OW74560   2.789   6.847   0.291 -0.4255  0.1413  0.0665
24661SOL    HW174561   2.814   6.908   0.221 -2.0391  0.2317 -0.4859
24661SOL    HW274562   2.862   6.851   0.353  0.8169  0.4617 -1.3372
24662SOL     OW74563   9.464   4.501   2.470 -0.3165  0.8210 -0.1357
24662SOL    HW174564   9.442   4.441   2.542 -0.7897  1.3936  0.2151
24662SOL    HW274565   9.411   4.469   2.397  0.3590  0.0798 -0.3123
24663SOL     OW74566   4.872   2.124   7.089  0.0204 -0.0298  0.2848
24663SOL    HW174567   4.963   2.133   7.060 -0.0304 -1.4173 -0.4445
24663SOL    HW274568   4.843   2.041   7.049 -1.2107 -0.1801  1.4171
24664SOL     OW74569   7.534   3.359   2.512  0.3004 -0.2064  0.6827
24664SOL    HW174570   7.525   3.375   2.418  2.5484  1.9690  0.7354
24664SOL    HW274571   7.468   3.415   2.552  0.1907 -0.1649  0.4461
24665SOL     OW74572   1.878   9.036   8.777 -0.4834 -0.3513 -0.3687
24665SOL    HW174573   1.846   8.984   8.703  2.1795 -1.6347 -0.7282
24665SOL    HW274574   1.839   9.122   8.764 -1.5841 -1.0588 -2.1993
24666SOL     OW74575   3.590   2.432   7.941 -0.5259 -0.1572  0.3655
24666SOL    HW174576   3.676   2.429   7.898 -1.1014 -1.4022 -0.7598
24666SOL    HW274577   3.564   2.341   7.950 -1.3440  0.1626  1.5565
24667SOL     OW74578   5.558   1.206   9.787 -0.2604  0.1449  0.1309
24667SOL    HW174579   5.510   1.231   9.707  0.2142  0.0636 -0.1846
24667SOL    HW274580   5.555   1.285   9.842  0.2664  0.5383 -0.3893
24668SOL     OW74581   1.836   7.041   0.426 -0.2644 -0.4710 -0.6339
24668SOL    HW174582   1.771   7.075   0.365  0.1720 -0.2037 -0.9619
24668SOL    HW274583   1.806   6.953   0.448 -1.7443  0.3249  0.6994
24669SOL     OW74584   2.549   4.138   3.664 -0.3932  0.3376  0.1217
24669SOL    HW174585   2.530   4.205   3.599  0.4704  3.8680  3.1136
24669SOL    HW274586   2.464   4.112   3.698 -0.7192  0.6846 -0.4318
24670SOL     OW74587   9.913   9.338   5.323  0.2935 -0.0399 -0.5150
24670SOL    HW174588   9.974   9.316   5.252  1.9482  2.4915  0.0223
24670SOL    HW274589   9.841   9.382   5.279  0.1147 -0.6736 -0.8698
24671SOL     OW74590   2.752   3.775   0.538 -0.1437  0.4900 -0.4077
24671SOL    HW174591   2.831   3.775   0.484 -0.1794  0.6259 -0.4583
24671SOL    HW274592   2.781   3.806   0.623 -0.2028  0.8263 -0.5106
24672SOL     OW74593   4.598   0.675   3.779  0.2848 -0.0359  0.3395
24672SOL    HW174594   4.665   0.625   3.731 -0.0130 -0.3336  0.2316
24672SOL    HW274595   4.648   0.723   3.845  0.4724 -1.2587  1.1215
24673SOL     OW74596   6.590   2.057   8.516 -0.1921  0.3627  0.2951
24673SOL    HW174597   6.607   1.964   8.508 -2.8430 -0.1220 -1.1060
24673SOL    HW274598   6.549   2.067   8.603 -1.7746 -0.2023 -0.3415
24674SOL     OW74599   4.258   5.240   0.289  0.3089 -0.1244 -0.1926
24674SOL    HW174600   4.195   5.167   0.286 -0.9721  0.9485 -0.3350
24674SOL    HW274601   4.291   5.239   0.379 -0.1318 -0.5385 -0.0306
24675SOL     OW74602   7.548   5.716   5.933 -0.2610 -0.2205  0.3114
24675SOL    HW174603   7.473   5.747   5.882  0.1761 -2.0117 -1.5967
24675SOL    HW274604   7.509   5.665   6.004 -0.8673  0.6583  0.6242
24676SOL     OW74605   0.663   6.787   6.934  0.4739  0.3718 -0.1299
24676SOL    HW174606   0.612   6.800   6.855  1.8915  0.1578 -1.1096
24676SOL    HW274607   0.714   6.708   6.918  2.3746  1.4976  0.1127
24677SOL     OW74608   4.020   5.340   3.277 -0.4968  0.1606 -0.0771
24677SOL    HW174609   4.075   5.262   3.278  0.6406  0.9387  0.8360
24677SOL    HW274610   4.002   5.356   3.184  1.4332  0.2780 -0.4745
24678SOL     OW74611   6.111   8.030   4.244  0.2831  0.2229 -0.4590
24678SOL    HW174612   6.065   8.114   4.241 -1.8060 -0.8534 -0.6446
24678SOL    HW274613   6.138   8.020   4.335  0.2353  0.9324 -0.3632
24679SOL     OW74614   9.062   8.421   8.961 -0.1433 -0.3832 -0.1687
24679SOL    HW174615   8.996   8.467   8.909  0.2196  1.5307  0.9686
24679SOL    HW274616   9.017   8.399   9.042  0.0297 -0.9600 -0.2292
24680SOL     OW74617   3.070   9.412   7.963  0.0984 -0.0568 -0.0921
24680SOL    HW174618   3.058   9.468   7.887 -0.5537 -0.2883 -0.1583
24680SOL    HW274619   3.161   9.428   7.989  0.1651  0.4251 -0.5901
24681SOL     OW74620   7.286   4.552   0.640 -0.1828 -0.2119 -0.0868
24681SOL    HW174621   7.349   4.606   0.688  1.5980 -0.2371 -2.2152
24681SOL    HW274622   7.283   4.470   0.689  2.3366 -0.6134 -0.4339
24682SOL     OW74623   4.893   8.308   1.193  0.7989  0.1798  0.1863
24682SOL    HW174624   4.935   8.392   1.179  0.5423  0.5915  1.6877
24682SOL    HW274625   4.837   8.321   1.270  0.5762 -1.2955  0.3200
24683SOL     OW74626   9.746   5.706   2.178 -0.2185  0.4493  0.5978
24683SOL    HW174627   9.832   5.678   2.208 -1.4471 -1.7406  2.4827
24683SOL    HW274628   9.695   5.717   2.259 -2.6845 -1.9819 -0.4635
24684SOL     OW74629   8.133   2.247   7.991 -0.1440  0.1240 -0.2838
24684SOL    HW174630   8.059   2.210   8.039  0.3686  1.0231  1.3042
24684SOL    HW274631   8.107   2.337   7.972  0.5199  0.4724  0.3556
24685SOL     OW74632   4.607   1.831   1.250  0.2755 -0.1229 -0.2371
24685SOL    HW174633   4.628   1.755   1.196 -2.4356 -0.3622 -1.1119
24685SOL    HW274634   4.523   1.810   1.290  0.6916  1.3794  1.6120
24686SOL     OW74635   4.837   3.702   4.049  0.2818  0.2649  0.0022
24686SOL    HW174636   4.872   3.656   3.972  0.9726  3.2225 -1.6106
24686SOL    HW274637   4.811   3.632   4.108  1.6914 -2.1728 -2.0202
24687SOL     OW74638   2.834   8.337   2.065  0.6555 -0.0445  0.6283
24687SOL    HW174639   2.767   8.405   2.070  1.4908  0.7344  1.4948
24687SOL    HW274640   2.903   8.376   2.012  0.0617 -1.2004 -1.1032
24688SOL     OW74641   7.877   1.022   8.249 -0.0365  0.0739  0.3911
24688SOL    HW174642   7.826   0.958   8.299  0.4448  0.5183  1.4768
24688SOL    HW274643   7.818   1.096   8.238 -0.5092 -0.4366 -0.6518
24689SOL     OW74644   4.927   7.991   9.546 -0.6037 -0.2704  0.1220
24689SOL    HW174645   4.890   7.903   9.548  1.1112 -1.0264  0.6303
24689SOL    HW274646   4.949   8.007   9.454  1.3279 -1.4218  0.3261
24690SOL     OW74647   8.896   9.396   3.293  0.1477  0.0746  0.2668
24690SOL    HW174648   8.806   9.414   3.267  0.7170  1.8707 -0.6501
24690SOL    HW274649   8.895   9.399   3.389 -0.6678  0.6944  0.2518
24691SOL     OW74650   3.229   6.419   6.754 -0.1042 -1.1322 -0.4563
24691SOL    HW174651   3.156   6.438   6.696  0.8125  0.2548 -1.2104
24691SOL    HW274652   3.307   6.444   6.704  0.7515 -0.3462  1.1801
24692SOL     OW74653   0.852   0.239   6.332  0.2629  0.8647 -0.3142
24692SOL    HW174654   0.862   0.197   6.417 -0.4934  0.9733 -0.1643
24692SOL    HW274655   0.835   0.166   6.271  0.5963  0.8054 -0.3351
24693SOL     OW74656   8.951   2.116   3.669 -0.6198 -0.1314 -0.6743
24693SOL    HW174657   8.944   2.111   3.574 -0.3740 -0.3992 -0.6819
24693SOL    HW274658   9.045   2.123   3.686 -0.4115 -2.7035 -0.3693
24694SOL     OW74659   8.520   5.256   1.182  0.1659  0.0054 -0.2990
24694SOL    HW174660   8.592   5.213   1.136 -0.4459 -1.6240  0.1964
24694SOL    HW274661   8.564   5.316   1.244  1.0415  0.1603 -1.0465
24695SOL     OW74662   3.165   2.401   2.437  0.4043  0.2085 -0.0944
24695SOL    HW174663   3.183   2.488   2.402 -0.3507  1.1373  1.6575
24695SOL    HW274664   3.070   2.399   2.450  0.5042 -0.5387  0.6601
24696SOL     OW74665   3.693   2.141   4.829 -0.0613 -0.5857 -0.0494
24696SOL    HW174666   3.713   2.130   4.736 -0.8439 -1.7588 -0.0960
24696SOL    HW274667   3.642   2.063   4.852 -0.5800  0.0878  1.1632
24697SOL     OW74668   6.508   2.660   6.309  0.1936 -0.3660  0.1064
24697SOL    HW174669   6.423   2.702   6.302 -0.5192 -1.8796 -0.8788
24697SOL    HW274670   6.514   2.605   6.230  1.8475 -0.7086  0.4268
24698SOL     OW74671   3.177   1.998   2.403  0.1505  0.2738 -0.5957
24698SOL    HW174672   3.193   2.073   2.345  0.2053  0.0102 -0.9289
24698SOL    HW274673   3.261   1.980   2.444  0.3622 -0.1762 -1.2132
24699SOL     OW74674   4.482   5.536   0.678 -0.2250 -0.2842  0.4606
24699SOL    HW174675   4.387   5.543   0.691 -0.5850 -1.6766 -1.0199
24699SOL    HW274676   4.504   5.613   0.625 -0.7109 -0.4735 -0.0261
24700SOL     OW74677   1.829   6.206   8.013  0.3578  0.1422 -0.6978
24700SOL    HW174678   1.805   6.247   7.930 -0.6132 -0.6865 -0.8480
24700SOL    HW274679   1.774   6.250   8.078  0.7812  0.4674 -0.5556
24701SOL     OW74680   4.716   7.491   2.819 -0.0963  0.3236  0.4215
24701SOL    HW174681   4.673   7.565   2.775 -0.0429 -0.6501 -1.3832
24701SOL    HW274682   4.644   7.434   2.845 -0.1492  1.0507  1.9794
24702SOL     OW74683   2.333   8.326   7.096 -0.8007  0.0746  0.0497
24702SOL    HW174684   2.273   8.273   7.044 -1.8063  0.8796  0.3740
24702SOL    HW274685   2.392   8.365   7.031  0.6312 -2.2049 -0.1224
24703SOL     OW74686   6.012   6.581   1.236  0.1142  0.4288 -0.4615
24703SOL    HW174687   6.065   6.628   1.301 -0.1198 -0.0097  0.0616
24703SOL    HW274688   5.929   6.629   1.233 -0.3828 -0.3146  0.5792
24704SOL     OW74689   7.048   7.232   4.123 -0.3277  0.0577 -0.2730
24704SOL    HW174690   6.978   7.296   4.109  0.0037  0.3440 -0.6076
24704SOL    HW274691   7.007   7.164   4.177 -0.2508  1.3243  1.4521
24705SOL     OW74692   1.410   8.171   3.723  0.0325  0.1629  0.0128
24705SOL    HW174693   1.475   8.201   3.787 -1.9125 -0.6040  2.4883
24705SOL    HW274694   1.461   8.119   3.660  1.8298 -0.3850  1.8226
24706SOL     OW74695   8.574   4.989   3.273 -0.0282  0.4683  0.5194
24706SOL    HW174696   8.563   5.001   3.367 -1.0499 -1.0126  0.6274
24706SOL    HW274697   8.485   4.975   3.240  0.3614  0.4806 -0.5966
24707SOL     OW74698   3.601   7.130   7.148  0.3622  0.1165 -0.3557
24707SOL    HW174699   3.521   7.181   7.162 -0.4359 -1.0832 -0.4309
24707SOL    HW274700   3.597   7.061   7.214  0.9483 -0.4301 -0.8857
24708SOL     OW74701   5.970   3.996   9.055  0.2138 -0.2264  0.1106
24708SOL    HW174702   6.056   4.038   9.047 -0.7447  2.1205  1.1020
24708SOL    HW274703   5.976   3.948   9.138  0.7312 -0.4648 -0.0622
24709SOL     OW74704   1.964   5.082   6.560  0.1302  1.1287  0.2646
24709SOL    HW174705   1.986   5.135   6.484  0.1466  0.5512 -0.1420
24709SOL    HW274706   1.878   5.046   6.540 -0.3105  1.7658  0.9630
24710SOL     OW74707   3.075   6.481   5.791 -0.4746 -0.5253  0.3282
24710SOL    HW174708   2.991   6.465   5.748 -0.9330  2.3465 -0.0389
24710SOL    HW274709   3.056   6.477   5.884 -0.7405 -0.9971  0.2601
24711SOL     OW74710   5.700   9.140   8.660  0.2576  0.2269 -0.3313
24711SOL    HW174711   5.735   9.146   8.749  0.0783  2.0357 -0.3419
24711SOL    HW274712   5.615   9.184   8.664  0.4544  0.7511 -1.4988
24712SOL     OW74713   4.886   2.068   6.699 -0.0516  0.1013 -0.0562
24712SOL    HW174714   4.921   1.996   6.647  0.9752  0.4731  0.0856
24712SOL    HW274715   4.861   2.135   6.635  1.8465  0.8404 -0.1040
24713SOL     OW74716   5.568   9.096   9.460  0.2774 -0.4463 -0.4377
24713SOL    HW174717   5.648   9.112   9.509 -0.0169 -0.2064 -0.0257
24713SOL    HW274718   5.538   9.010   9.490 -0.7409  0.3740  0.9981
24714SOL     OW74719   5.865   0.871   9.844 -0.1083 -0.1881 -0.0917
24714SOL    HW174720   5.836   0.849   9.756  0.0236  0.6175 -0.3433
24714SOL    HW274721   5.907   0.790   9.877 -0.0327 -0.4459 -0.8108
24715SOL     OW74722   5.906   8.824   2.634 -0.2695 -0.1041 -0.2974
24715SOL    HW174723   5.974   8.756   2.634  0.6236  0.7530  0.5250
24715SOL    HW274724   5.824   8.775   2.639  0.1844 -1.2119 -2.5748
24716SOL     OW74725   0.782   4.802   3.867 -0.5235  0.0262  0.8220
24716SOL    HW174726   0.719   4.760   3.925 -0.0807 -0.3264  1.0576
24716SOL    HW274727   0.729   4.848   3.802 -1.0334  0.5924  1.6217
24717SOL     OW74728   6.328   8.104   0.701 -0.0574  0.3770 -0.0183
24717SOL    HW174729   6.330   8.137   0.791  1.1538  0.7211 -0.1535
24717SOL    HW274730   6.244   8.135   0.666 -0.9228 -0.4555  1.2258
24718SOL     OW74731   2.426   3.183   7.831  0.4445  0.0357 -0.0799
24718SOL    HW174732   2.434   3.150   7.742 -0.3540  1.4438 -0.7069
24718SOL    HW274733   2.333   3.204   7.841 -0.2877 -3.5262  2.4016
24719SOL     OW74734   7.608   8.646   9.255 -0.0786 -0.1971 -0.3858
24719SOL    HW174735   7.545   8.682   9.317 -1.0027  1.8931 -2.4227
24719SOL    HW274736   7.566   8.566   9.222  0.4043 -1.3148  1.5172
24720SOL     OW74737   3.731   2.598   4.405  0.4535  0.1960  0.8012
24720SOL    HW174738   3.645   2.557   4.410 -0.9140  2.9210  1.2620
24720SOL    HW274739   3.752   2.598   4.311 -0.7794  0.8576  0.5022
24721SOL     OW74740   3.547   5.469   2.071 -0.3185 -0.0006 -0.4297
24721SOL    HW174741   3.523   5.425   1.989 -2.0802 -0.1620  0.1267
24721SOL    HW274742   3.479   5.442   2.133  1.2862 -0.3417  1.2679
24722SOL     OW74743   2.669   9.152   9.729  0.1062 -0.6795  0.1240
24722SOL    HW174744   2.602   9.115   9.672  2.1629 -2.1376 -1.5093
24722SOL    HW274745   2.704   9.226   9.680  1.2456 -1.3776 -0.1838
24723SOL     OW74746   5.785   4.314   6.634  0.4354  0.0602  0.6520
24723SOL    HW174747   5.771   4.408   6.642 -0.4450 -0.0094  0.0226
24723SOL    HW274748   5.813   4.287   6.722  2.0277  1.1120  0.5064
24724SOL     OW74749   9.289   1.489   7.232  0.1220 -0.1250  0.5378
24724SOL    HW174750   9.346   1.531   7.168 -0.7602 -1.5102 -1.2505
24724SOL    HW274751   9.209   1.542   7.232 -0.6583 -1.2226 -1.0796
24725SOL     OW74752   9.338   4.703   3.993 -0.1769  0.2025 -0.4040
24725SOL    HW174753   9.376   4.754   3.922  0.2112  0.0155 -0.3304
24725SOL    HW274754   9.334   4.614   3.960 -0.0025  0.1162 -0.1979
24726SOL     OW74755   1.174   7.870   2.767 -0.2741  0.3732  0.1688
24726SOL    HW174756   1.243   7.806   2.785 -1.3155 -0.8849 -0.1954
24726SOL    HW274757   1.118   7.867   2.844 -1.6278 -0.9086 -0.8263
24727SOL     OW74758   1.728   1.804   2.172 -0.0456 -0.7396 -0.4698
24727SOL    HW174759   1.697   1.723   2.131 -2.8221 -1.0280  1.8642
24727SOL    HW274760   1.694   1.874   2.115  1.7532 -1.0965 -2.0966
24728SOL     OW74761   4.268   5.833   6.427 -0.4063 -0.4731  0.3507
24728SOL    HW174762   4.252   5.751   6.475 -1.0304  0.0092  0.9932
24728SOL    HW274763   4.287   5.805   6.338 -1.2065 -1.2922  0.4174
24729SOL     OW74764   7.966   7.299   0.984 -0.0761 -0.3683 -0.4238
24729SOL    HW174765   7.997   7.235   1.049 -1.1978 -1.7299 -1.1904
24729SOL    HW274766   7.991   7.261   0.900  1.7247  1.5773 -0.8618
24730SOL     OW74767   5.820   6.089   5.181  0.2277  0.0628 -0.3162
24730SOL    HW174768   5.878   6.085   5.105  1.7605  2.6241  0.5803
24730SOL    HW274769   5.855   6.024   5.241  0.8740  0.0922 -0.6449
24731SOL     OW74770   9.491   5.193   6.666 -0.2946 -0.2561 -0.6079
24731SOL    HW174771   9.490   5.109   6.712  1.9904 -0.6477 -1.1350
24731SOL    HW274772   9.523   5.256   6.732 -1.7738  0.2011 -0.2824
24732SOL     OW74773   3.037   0.033   0.396  0.3243  0.1374 -0.4060
24732SOL    HW174774   3.041   0.036   0.492 -0.2287  0.4774 -0.3873
24732SOL    HW274775   2.944   0.025   0.376  0.5014 -0.9565 -0.8982
24733SOL     OW74776   8.243   2.480   9.319 -0.1697  0.1333  0.0286
24733SOL    HW174777   8.323   2.524   9.348 -0.8218  0.7573  0.9731
24733SOL    HW274778   8.173   2.526   9.365 -1.0214 -0.8452 -0.2485
24734SOL     OW74779   5.066   1.987   9.110 -1.0405 -0.3406  0.0441
24734SOL    HW174780   4.977   1.953   9.111 -0.8910 -0.7546  1.5127
24734SOL    HW274781   5.093   1.982   9.018 -1.4416 -3.1060  0.0088
24735SOL     OW74782   8.247   4.142   6.627 -0.4171  0.2832  0.1466
24735SOL    HW174783   8.168   4.088   6.635 -0.0166 -0.1827  1.2223
24735SOL    HW274784   8.249   4.194   6.708  2.2390 -2.3515  2.0063
24736SOL     OW74785   6.558   5.757   7.516 -0.2527  0.3105 -0.3710
24736SOL    HW174786   6.467   5.745   7.543 -0.2605  0.2768 -0.4126
24736SOL    HW274787   6.562   5.847   7.484 -0.0905  0.5730  0.3621
24737SOL     OW74788   8.104   6.050   0.533 -0.4832  0.3404 -0.1473
24737SOL    HW174789   8.143   5.965   0.514  0.5131  0.0888  2.4583
24737SOL    HW274790   8.036   6.032   0.598 -0.4523  1.4736  0.2340
24738SOL     OW74791   8.157   0.912   6.821  0.2567 -0.0387 -0.5156
24738SOL    HW174792   8.187   0.905   6.911  1.7194  0.9360 -0.8791
24738SOL    HW274793   8.064   0.889   6.824  0.3168 -0.1804  1.1995
24739SOL     OW74794   7.111   9.452   5.211 -0.3805  0.0518  0.2257
24739SOL    HW174795   7.115   9.437   5.306  1.1149  1.7298  0.4981
24739SOL    HW274796   7.193   9.414   5.178  0.6062  2.1354  0.1118
24740SOL     OW74797   0.456   8.158   0.863  0.5475 -0.1040 -0.3140
24740SOL    HW174798   0.512   8.103   0.917  0.0230  0.5299  0.9148
24740SOL    HW274799   0.394   8.098   0.822  0.6849 -0.5545  0.1347
24741SOL     OW74800   0.612   8.865   5.038  0.4618  0.0750  0.7888
24741SOL    HW174801   0.545   8.803   5.009  2.1217 -1.5291  0.1786
24741SOL    HW274802   0.587   8.886   5.128 -1.2163  0.0678  0.3658
24742SOL     OW74803   1.111   0.900   4.756  0.5512 -0.4694 -0.1560
24742SOL    HW174804   1.182   0.840   4.734  1.0214  0.9405 -2.9242
24742SOL    HW274805   1.057   0.903   4.677 -0.5476  1.2234  0.6077
24743SOL     OW74806   2.338   4.032   2.831  0.0880  0.4195 -0.2700
24743SOL    HW174807   2.344   4.111   2.883  2.1636 -0.1531  0.4489
24743SOL    HW274808   2.344   3.960   2.894 -3.9825 -0.4810 -0.6204
24744SOL     OW74809   9.916   8.421   2.706 -0.5233  0.0098 -0.0017
24744SOL    HW174810   9.946   8.331   2.717 -1.3681 -0.3063 -0.1656
24744SOL    HW274811   9.995   8.471   2.688  0.0651 -0.5554  0.9369
24745SOL     OW74812   1.265   2.199   8.967  0.0130 -0.5550 -0.4105
24745SOL    HW174813   1.172   2.191   8.947 -0.0300 -1.1089 -0.0091
24745SOL    HW274814   1.271   2.275   9.023 -0.1702 -0.3931 -0.6079
24746SOL     OW74815   8.110   8.628   2.546 -0.2274  0.1328 -0.0353
24746SOL    HW174816   8.077   8.675   2.470  0.7356 -0.9311 -1.1579
24746SOL    HW274817   8.204   8.645   2.546  0.5900 -3.2928 -1.7578
24747SOL     OW74818   9.387   1.089   2.998 -0.4712 -0.4391 -0.2335
24747SOL    HW174819   9.427   1.168   2.960  0.3540 -0.9506 -0.4538
24747SOL    HW274820   9.381   1.107   3.091  0.3104 -0.3690 -0.1963
24748SOL     OW74821   0.545   8.957   5.291 -0.0929  0.4136  0.3614
24748SOL    HW174822   0.504   9.038   5.321 -3.7880 -0.6046 -1.4425
24748SOL    HW274823   0.512   8.890   5.351  0.5568 -0.1997  0.0504
24749SOL     OW74824   2.165   9.456   1.241 -0.0795  0.4659  0.6040
24749SOL    HW174825   2.238   9.422   1.190 -1.1104  0.3345 -0.8575
24749SOL    HW274826   2.106   9.494   1.176 -2.1934 -1.0838  1.4700
24750SOL     OW74827   5.445   6.444   6.368  0.3556 -0.0019  0.1565
24750SOL    HW174828   5.462   6.351   6.351 -0.2326  0.1617 -1.4182
24750SOL    HW274829   5.431   6.448   6.463  0.6433 -1.4732  0.2878
24751SOL     OW74830   3.927   1.310   4.735 -0.4785  0.4922 -0.0685
24751SOL    HW174831   3.874   1.383   4.703 -2.4420 -0.1195  1.5577
24751SOL    HW274832   4.017   1.341   4.729 -1.0151  1.8395 -2.3434
24752SOL     OW74833   4.282   7.462   6.899 -0.2711  0.3266  0.5103
24752SOL    HW174834   4.267   7.383   6.952 -0.7387 -0.0102 -0.1099
24752SOL    HW274835   4.365   7.445   6.855  0.8282  1.1841  2.1359
24753SOL     OW74836   4.944   0.510   6.726 -0.3201 -0.6219 -0.1664
24753SOL    HW174837   4.870   0.495   6.668  0.6781 -1.6424 -1.2328
24753SOL    HW274838   5.002   0.568   6.677  0.1091 -0.7318  0.2031
24754SOL     OW74839   1.200   2.002   7.202  0.1668 -0.4448 -0.2476
24754SOL    HW174840   1.128   2.014   7.264  0.1445 -0.0391 -0.3531
24754SOL    HW274841   1.254   1.933   7.242 -0.8028 -1.4781 -0.6535
24755SOL     OW74842   8.945   3.030   8.030 -0.0233  0.3965 -0.2395
24755SOL    HW174843   9.000   2.953   8.014 -0.2745  0.1059  0.2431
24755SOL    HW274844   8.966   3.055   8.120  1.1839  1.8394 -0.8915
24756SOL     OW74845   3.877   0.902   8.959 -0.5763 -0.0270 -0.6763
24756SOL    HW174846   3.856   0.982   9.008 -0.4414  0.0494 -0.7430
24756SOL    HW274847   3.972   0.904   8.949 -0.6029 -0.0374 -0.9495
24757SOL     OW74848   7.131   7.364   4.653  0.0075  0.3074  0.3447
24757SOL    HW174849   7.068   7.380   4.584  0.2818 -1.7806 -0.4735
24757SOL    HW274850   7.088   7.302   4.712  0.9173 -0.3948  0.2997
24758SOL     OW74851   3.562   6.986   6.348 -0.3051  0.0532 -0.1020
24758SOL    HW174852   3.533   6.905   6.306  0.0337 -0.0079 -0.2217
24758SOL    HW274853   3.481   7.032   6.370 -0.4892 -0.0398 -0.5751
24759SOL     OW74854   2.775   9.265   6.915 -0.5969 -0.5207  0.5487
24759SOL    HW174855   2.839   9.194   6.907 -0.0965  0.0784 -1.4410
24759SOL    HW274856   2.800   9.312   6.995  1.0706 -0.6821  0.1505
24760SOL     OW74857   3.919   2.904   8.405 -0.0166  0.0967 -0.9046
24760SOL    HW174858   4.009   2.938   8.412 -0.3470  0.9235 -0.4669
24760SOL    HW274859   3.884   2.944   8.325 -0.2067  0.2927 -0.7243
24761SOL     OW74860   5.338   2.084   3.794 -0.2126 -0.0198 -0.4043
24761SOL    HW174861   5.257   2.063   3.747 -0.2088 -0.2181 -0.3197
24761SOL    HW274862   5.309   2.125   3.875 -0.2521 -0.9736  0.0710
24762SOL     OW74863   3.331   6.823   2.662 -0.1289  0.5850  0.0903
24762SOL    HW174864   3.374   6.903   2.690 -0.4051  0.8880 -0.3373
24762SOL    HW274865   3.403   6.766   2.633 -0.0746  1.8367 -2.5653
24763SOL     OW74866   1.119   2.267   2.541  0.5079 -0.5414  0.4254
24763SOL    HW174867   1.171   2.257   2.620 -0.8714 -1.5798  1.2412
24763SOL    HW274868   1.123   2.361   2.521  2.8526 -0.6162  0.2845
24764SOL     OW74869   9.511   4.049   0.369  0.4180 -0.4009 -0.1302
24764SOL    HW174870   9.462   4.131   0.374  2.5792  0.9387  1.0023
24764SOL    HW274871   9.526   4.025   0.460 -0.6506 -2.4212 -0.4445
24765SOL     OW74872   7.095   8.533   7.427 -0.5721 -0.0856  1.0623
24765SOL    HW174873   7.136   8.447   7.416 -0.6786 -0.0440  0.3394
24765SOL    HW274874   7.004   8.520   7.404 -0.3274  0.5024 -0.3135
24766SOL     OW74875   7.011   0.723   0.861  0.4813  0.0442  0.4178
24766SOL    HW174876   6.915   0.714   0.867  0.1250  2.4398 -0.4473
24766SOL    HW274877   7.040   0.638   0.828 -1.4372 -0.5178  0.0047
24767SOL     OW74878   5.217   9.688   8.292  0.1152  0.0276 -0.2223
24767SOL    HW174879   5.217   9.665   8.199  0.3671 -0.3514 -0.1273
24767SOL    HW274880   5.309   9.705   8.312 -0.0007  0.6224 -0.1657
24768SOL     OW74881   1.556   8.857   5.979 -0.0403  0.4161 -0.0041
24768SOL    HW174882   1.474   8.876   5.934 -0.0693 -2.6444 -1.5716
24768SOL    HW274883   1.623   8.865   5.910  0.5102 -0.2410  0.4422
24769SOL     OW74884   0.161   8.092   0.401  0.6886  1.0366 -0.1140
24769SOL    HW174885   0.144   8.008   0.444  0.3881  0.7513 -0.7668
24769SOL    HW274886   0.091   8.100   0.336  1.0557  1.5162 -0.4598
24770SOL     OW74887   1.729   8.533   8.036  0.1183 -0.3221  0.2120
24770SOL    HW174888   1.817   8.544   8.072  0.1484 -0.1895  0.0964
24770SOL    HW274889   1.742   8.483   7.955  0.0250 -0.8501  0.5156
24771SOL     OW74890   4.857   4.312   5.690  0.1490  0.0334  0.1758
24771SOL    HW174891   4.789   4.374   5.666 -0.5449 -0.1896  1.4507
24771SOL    HW274892   4.907   4.356   5.759 -0.3538 -0.7856  1.0985
24772SOL     OW74893   3.996   1.031   2.887  0.3655  0.4450 -0.1430
24772SOL    HW174894   4.080   1.031   2.841  0.6226  2.0466  0.2853
24772SOL    HW274895   3.931   1.032   2.817  0.7090  0.0611 -0.4725
24773SOL     OW74896   8.723   4.835   5.522  0.8319  0.1159  0.0825
24773SOL    HW174897   8.803   4.783   5.533  2.0659  1.8446 -0.3152
24773SOL    HW274898   8.741   4.891   5.446 -1.1193 -0.0722 -0.5711
24774SOL     OW74899   3.753   3.575   4.834  0.5750  0.3262  1.0407
24774SOL    HW174900   3.673   3.623   4.853  1.0392  2.0663 -1.0271
24774SOL    HW274901   3.824   3.635   4.860  1.2000 -0.4879  1.2561
24775SOL     OW74902   3.270   4.261   3.962  0.3301  0.1604  0.1111
24775SOL    HW174903   3.264   4.218   4.047 -0.6414  1.1162  0.5423
24775SOL    HW274904   3.321   4.200   3.908 -0.6483 -1.3428  0.8153
24776SOL     OW74905   0.353   7.191   1.164  0.1899 -0.4589 -0.2462
24776SOL    HW174906   0.346   7.102   1.129  1.4851 -1.4205  1.7557
24776SOL    HW274907   0.440   7.195   1.202 -0.2510  1.3158  0.6836
24777SOL     OW74908   9.925   4.691   5.189  0.7245 -0.1869 -0.3437
24777SOL    HW174909   9.933   4.761   5.253 -0.0923  1.9748 -2.4554
24777SOL    HW274910   9.847   4.642   5.216  0.1870  0.8977  0.1257
24778SOL     OW74911   0.677   0.997   9.708 -0.3943 -0.0284  0.3024
24778SOL    HW174912   0.734   0.924   9.685  0.0554  0.1907  0.7045
24778SOL    HW274913   0.701   1.018   9.799  0.2985  1.3675 -0.1739
24779SOL     OW74914   4.905   3.985   9.861 -0.1002  0.5019 -0.3762
24779SOL    HW174915   4.953   3.946   9.787 -0.0322  0.6591 -0.4154
24779SOL    HW274916   4.973   4.019   9.918 -0.1309 -0.2157  0.0942
24780SOL     OW74917   2.427   2.425   9.703  0.1848  0.1479  0.3764
24780SOL    HW174918   2.425   2.521   9.709  1.7011  0.1671  1.2569
24780SOL    HW274919   2.489   2.407   9.632 -0.6998 -0.2025 -0.3319
24781SOL     OW74920   6.844   9.729   8.075 -0.2805  0.4905  0.2350
24781SOL    HW174921   6.834   9.700   7.984  2.4091 -1.3683  0.3894
24781SOL    HW274922   6.892   9.658   8.117  0.2116  2.1290  2.6462
24782SOL     OW74923   1.461   7.794   7.574 -0.4942  0.3482 -0.0294
24782SOL    HW174924   1.554   7.782   7.558 -0.4080  1.3826 -0.3423
24782SOL    HW274925   1.447   7.888   7.570 -1.1184  0.4150  2.5042
24783SOL     OW74926   1.984   5.334   7.583 -0.2694  0.4227  0.4592
24783SOL    HW174927   2.063   5.378   7.551  0.7154 -1.4015  0.2555
24783SOL    HW274928   1.966   5.376   7.667  0.8901  0.9083  0.4893
24784SOL     OW74929   2.943   9.506   7.383  0.0187 -0.0789  0.2239
24784SOL    HW174930   2.884   9.526   7.456 -0.1904 -0.2739  0.1085
24784SOL    HW274931   3.031   9.523   7.418 -0.0659 -0.4022  0.5948
24785SOL     OW74932   9.718   1.207   3.956  0.3650 -0.1011 -0.4695
24785SOL    HW174933   9.653   1.203   4.026  0.1755  0.5720 -0.5985
24785SOL    HW274934   9.795   1.163   3.992 -0.3933 -1.5745 -0.5868
24786SOL     OW74935   4.527   7.266   7.180 -0.3885 -0.6440 -0.7428
24786SOL    HW174936   4.445   7.313   7.188  0.3108  0.7082 -1.2871
24786SOL    HW274937   4.546   7.265   7.086  1.2389  0.9200 -0.4762
24787SOL     OW74938   9.513   7.872   8.899  0.2985  0.8555 -0.9145
24787SOL    HW174939   9.503   7.944   8.960 -1.9617  1.0368 -1.4037
24787SOL    HW274940   9.580   7.816   8.938 -0.1209  1.6463  1.0274
24788SOL     OW74941   1.336   5.932   0.703 -0.2481  1.0163 -0.0691
24788SOL    HW174942   1.280   5.888   0.638  1.0350 -0.1469 -0.4308
24788SOL    HW274943   1.421   5.941   0.660  1.2687 -1.6380  2.0422
24789SOL     OW74944   7.077   5.620   8.564  0.4302 -0.4742  0.3136
24789SOL    HW174945   7.066   5.713   8.543  0.6179 -0.4937  0.1197
24789SOL    HW274946   6.994   5.579   8.540  0.6354 -0.4943 -0.4087
24790SOL     OW74947   0.500   3.544   3.910 -0.2759 -0.2043 -0.0337
24790SOL    HW174948   0.539   3.623   3.948  0.8053 -0.8519  0.2667
24790SOL    HW274949   0.411   3.542   3.945 -0.5466  1.2093 -0.5545
24791SOL     OW74950   2.872   5.439   2.208 -0.1617 -0.0409  0.1627
24791SOL    HW174951   2.798   5.431   2.269 -0.9679 -1.8948 -0.9800
24791SOL    HW274952   2.834   5.419   2.122  1.6343 -0.9516 -0.4603
24792SOL     OW74953   9.293   5.428   7.566 -0.0154 -0.2091 -0.3472
24792SOL    HW174954   9.383   5.459   7.576  0.4359 -1.3147 -0.8126
24792SOL    HW274955   9.294   5.377   7.485 -1.3012  0.5603 -0.8758
24793SOL     OW74956   2.158   2.382   5.990  0.4616 -0.3129  0.1706
24793SOL    HW174957   2.113   2.457   5.950 -2.4361 -1.5807  0.7892
24793SOL    HW274958   2.231   2.364   5.931 -1.2556  0.3862 -2.3403
24794SOL     OW74959   8.867   5.918   6.893 -0.5258 -0.0286 -0.4044
24794SOL    HW174960   8.928   5.876   6.954 -0.8353 -0.4076 -0.3534
24794SOL    HW274961   8.848   6.003   6.933  1.2957  0.8189 -1.2640
24795SOL     OW74962   3.825   8.287   7.115  0.2940  0.1146 -0.0325
24795SOL    HW174963   3.801   8.344   7.041  1.8266 -0.0197 -0.6784
24795SOL    HW274964   3.840   8.201   7.074 -1.2088 -0.5971  0.8180
24796SOL     OW74965   3.272   5.464   8.683  0.1718  0.4734 -0.4086
24796SOL    HW174966   3.292   5.397   8.617 -0.5975 -1.1706  0.9344
24796SOL    HW274967   3.356   5.482   8.724  0.1719 -0.7857  0.1861
24797SOL     OW74968   1.234   7.061   7.299 -0.7516 -0.3181  0.2199
24797SOL    HW174969   1.168   6.998   7.271 -1.4504  0.6874 -0.4793
24797SOL    HW274970   1.202   7.094   7.383 -0.8046 -0.3050  0.1948
24798SOL     OW74971   6.695   8.664   3.160 -0.3321 -0.1690  0.1971
24798SOL    HW174972   6.719   8.757   3.159 -2.2449  0.3723 -1.0125
24798SOL    HW274973   6.605   8.662   3.126 -0.3348 -2.4774  0.1806
24799SOL     OW74974   3.021   0.202   9.619  0.6040 -0.4031  0.0170
24799SOL    HW174975   3.069   0.215   9.537 -0.0744 -1.5629 -0.5879
24799SOL    HW274976   3.086   0.219   9.688  0.9211  1.6554 -0.7028
24800SOL     OW74977   1.561   6.102   7.910  0.2321 -0.2757 -0.1981
24800SOL    HW174978   1.587   6.051   7.987 -0.4371 -1.0385 -0.4613
24800SOL    HW274979   1.472   6.071   7.891  0.2746  0.1445 -1.0837
24801SOL     OW74980   6.084   7.893   1.035  0.2896  0.0241 -0.0495
24801SOL    HW174981   6.009   7.884   0.976  0.2094 -0.8098  0.1796
24801SOL    HW274982   6.051   7.868   1.121  0.2956  1.6393  0.4654
24802SOL     OW74983   9.910   3.872   8.244 -0.2220  0.0143 -0.3857
24802SOL    HW174984   9.963   3.796   8.270 -1.8224 -0.9751  0.1535
24802SOL    HW274985   9.949   3.946   8.290 -0.5194 -1.0208  1.6306
24803SOL     OW74986   3.234   6.229   2.802  0.2269  0.2423  0.3855
24803SOL    HW174987   3.290   6.278   2.862 -1.3860 -0.5890  2.7271
24803SOL    HW274988   3.149   6.226   2.845 -0.9269 -0.8223 -1.7696
24804SOL     OW74989   5.176   1.950   6.390  0.0290  0.3620  0.4517
24804SOL    HW174990   5.090   1.929   6.428 -1.2818  1.4931 -1.6695
24804SOL    HW274991   5.237   1.893   6.436 -1.8393 -0.4329  2.1083
24805SOL     OW74992   3.385   0.210   2.736 -0.5167  0.0564  0.4445
24805SOL    HW174993   3.330   0.245   2.666  0.2847  0.6112  0.0827
24805SOL    HW274994   3.324   0.191   2.807 -1.1362  0.9439  0.1630
24806SOL     OW74995   9.862   6.926   1.401  0.1087 -0.1549  0.0768
24806SOL    HW174996   9.811   6.988   1.350 -0.2065 -1.4918 -1.3298
24806SOL    HW274997   9.918   6.882   1.336  1.7720  0.0258  1.3134
24807SOL     OW74998   4.194   8.118   9.081  0.5943 -0.3831  0.5447
24807SOL    HW174999   4.225   8.030   9.059  0.2501 -0.2689 -0.4656
24807SOL    HW275000   4.242   8.176   9.021 -1.7815 -0.2307 -1.3484
24808SOL     OW75001   7.992   5.968   6.585  0.0563 -0.0687 -0.6846
24808SOL    HW175002   7.940   6.048   6.596  1.0726  0.7621 -1.7412
24808SOL    HW275003   8.043   5.962   6.666  0.0404  0.4061 -0.6366
24809SOL     OW75004   1.154   5.413   7.045 -0.4338 -0.0283 -0.3279
24809SOL    HW175005   1.179   5.476   6.977  1.4042 -0.5025 -0.1542
24809SOL    HW275006   1.187   5.329   7.012 -2.9454 -0.9917 -0.6177
24810SOL     OW75007   4.136   9.602   1.811  0.7933  0.2763 -0.0924
24810SOL    HW175008   4.191   9.564   1.742 -2.2954 -3.3568 -0.8498
24810SOL    HW275009   4.051   9.617   1.769 -0.2875  0.9966  2.1929
24811SOL     OW75010   0.890   4.903   2.309 -0.6780  0.1766 -0.2312
24811SOL    HW175011   0.908   4.983   2.358 -1.1452  1.3002 -1.7936
24811SOL    HW275012   0.953   4.839   2.342 -0.1416  1.2517  0.8981
24812SOL     OW75013   4.332   4.085   0.117 -0.0851 -0.4365 -0.0397
24812SOL    HW175014   4.299   4.172   0.095 -0.1777 -0.3459  0.4505
24812SOL    HW275015   4.379   4.057   0.038  1.4352  0.7873  0.3727
24813SOL     OW75016   8.820   8.782   1.158 -1.0961  0.2636  0.1625
24813SOL    HW175017   8.788   8.869   1.179  0.2411  0.7512  0.2386
24813SOL    HW275018   8.791   8.766   1.068 -1.6930  0.6047  0.2890
24814SOL     OW75019   0.273   1.096   0.102 -0.4618  0.4517 -0.6034
24814SOL    HW175020   0.321   1.166   0.057  0.1430  0.2653 -0.2556
24814SOL    HW275021   0.294   1.108   0.195  0.0018 -0.4470 -0.5783
24815SOL     OW75022   7.376   5.125   7.006  0.4836  0.3422  0.2427
24815SOL    HW175023   7.464   5.159   6.990 -0.1754  1.4207 -1.4565
24815SOL    HW275024   7.387   5.060   7.075  2.3284  1.6818  1.2952
24816SOL     OW75025   2.939   9.665   1.713  0.2439 -0.6924 -1.1048
24816SOL    HW175026   2.944   9.740   1.773 -0.6958 -1.7580  0.3734
24816SOL    HW275027   2.917   9.704   1.629 -1.2433  0.6381 -0.1676
24817SOL     OW75028   5.308   3.647   7.603 -0.6001 -0.0447  0.0594
24817SOL    HW175029   5.323   3.556   7.577  0.3563  0.5524 -1.6265
24817SOL    HW275030   5.276   3.689   7.524 -0.9444  1.1145  0.7998
24818SOL     OW75031   0.047   8.652   9.040  0.0589  0.5894 -0.2737
24818SOL    HW175032  -0.037   8.631   9.081 -0.3073  1.0236 -0.7796
24818SOL    HW275033   0.024   8.714   8.970  0.4897 -1.0415 -1.9400
24819SOL     OW75034   4.646   4.906   2.579  0.0638  0.1541 -0.2321
24819SOL    HW175035   4.567   4.903   2.526  0.5983 -0.8426 -0.9979
24819SOL    HW275036   4.648   4.822   2.624  0.3271  0.4531  0.3317
24820SOL     OW75037   4.895   6.620   3.614  0.3616 -0.0490 -0.1358
24820SOL    HW175038   4.881   6.712   3.633 -2.6969 -0.2769 -0.7150
24820SOL    HW275039   4.853   6.606   3.528 -0.4375 -2.1709  0.5162
24821SOL     OW75040   9.445   1.783   8.011  0.0028  0.3510 -0.2160
24821SOL    HW175041   9.536   1.809   8.021 -0.1158  0.3568  1.0626
24821SOL    HW275042   9.432   1.774   7.917  1.4185 -0.0272 -0.3862
24822SOL     OW75043   0.619   7.846   7.326  0.2066 -0.0273  0.0514
24822SOL    HW175044   0.657   7.932   7.341  0.3066 -0.3349  1.7809
24822SOL    HW275045   0.675   7.786   7.376  2.4126 -1.7264 -3.9419
24823SOL     OW75046   0.963   9.876   5.593  0.5311 -0.0383  0.1868
24823SOL    HW175047   0.929   9.939   5.657  3.6254  1.6886  0.3243
24823SOL    HW275048   0.898   9.876   5.523 -1.0884  0.8824  1.5903
24824SOL     OW75049   7.478   1.420   5.365 -0.7889 -0.5461 -0.2762
24824SOL    HW175050   7.567   1.384   5.365 -0.6368 -0.2014  0.9829
24824SOL    HW275051   7.439   1.386   5.284  0.4010 -0.8934 -0.7306
24825SOL     OW75052   7.353   5.823   2.062  0.1028 -0.1155  0.4311
24825SOL    HW175053   7.409   5.745   2.062 -0.4523 -0.6208 -2.2249
24825SOL    HW275054   7.270   5.792   2.097  0.3369 -0.3150  0.8244
24826SOL     OW75055   9.622   3.239   4.463  0.7465 -0.2564  0.3508
24826SOL    HW175056   9.677   3.162   4.451  0.4726 -0.4197  0.1325
24826SOL    HW275057   9.674   3.312   4.429 -0.1903 -0.7538 -2.4134
24827SOL     OW75058   4.261   1.509   3.307  0.0215  1.1852 -0.2182
24827SOL    HW175059   4.239   1.418   3.285  1.2329  1.2357 -1.8080
24827SOL    HW275060   4.247   1.557   3.225 -0.9805  2.5333  0.7038
24828SOL     OW75061   9.856   6.804   6.583 -0.1170 -0.1223 -0.2408
24828SOL    HW175062   9.931   6.803   6.643  0.6588 -1.6286 -1.1608
24828SOL    HW275063   9.787   6.849   6.631  1.3691  1.3200  0.6376
24829SOL     OW75064   1.280   3.430   6.130 -0.1116 -0.1364  0.1453
24829SOL    HW175065   1.299   3.512   6.085 -2.1842  1.6857  2.2932
24829SOL    HW275066   1.215   3.386   6.075  0.9221 -0.3284 -0.9578
24830SOL     OW75067   9.280   7.166   4.774  0.1425  0.1017 -0.1046
24830SOL    HW175068   9.249   7.217   4.848 -0.1194  0.1500 -0.2440
24830SOL    HW275069   9.317   7.087   4.813  0.6660  0.4501  0.1198
24831SOL     OW75070   5.081   4.372   6.575  0.0304 -0.2122  0.4100
24831SOL    HW175071   5.108   4.384   6.484  0.7733  0.4967  0.7184
24831SOL    HW275072   5.114   4.285   6.599  1.4669  0.3439  0.5571
24832SOL     OW75073   9.174   9.304   5.209 -0.2227 -0.1249 -0.2511
24832SOL    HW175074   9.082   9.313   5.232 -0.9533 -0.9224 -2.5622
24832SOL    HW275075   9.221   9.356   5.275 -2.2455 -0.1966  1.3333
24833SOL     OW75076   5.884   2.572   4.929  0.9362 -0.3338 -0.3893
24833SOL    HW175077   5.838   2.653   4.908  1.8063 -0.0283 -1.1864
24833SOL    HW275078   5.974   2.599   4.947  1.3053 -1.1506 -0.9379
24834SOL     OW75079   7.172   8.465   4.579 -0.3753  0.2701  0.6486
24834SOL    HW175080   7.096   8.503   4.537 -0.8314 -0.7351  0.5279
24834SOL    HW275081   7.208   8.404   4.515  0.1081  0.2088  0.9672
24835SOL     OW75082   2.137   6.289   7.914  0.2365 -0.0558  0.2084
24835SOL    HW175083   2.064   6.294   7.977  1.3994  0.5778  1.5875
24835SOL    HW275084   2.174   6.202   7.927  0.0003 -0.2091 -0.1574
24836SOL     OW75085   1.485   9.832   5.251 -0.1091  0.7643 -0.4955
24836SOL    HW175086   1.576   9.845   5.278  0.0169 -0.5393 -0.2443
24836SOL    HW275087   1.491   9.792   5.164 -0.2750 -2.6806  0.9024
24837SOL     OW75088   4.187   1.742   3.108 -0.5299 -0.1804 -0.3551
24837SOL    HW175089   4.097   1.769   3.129  0.2724  1.3717  1.3388
24837SOL    HW275090   4.235   1.825   3.100  0.6298 -0.9623 -1.9674
24838SOL     OW75091   5.185   1.104   7.825 -0.0001  0.5865  0.0978
24838SOL    HW175092   5.206   1.019   7.863  2.7412  2.4314  3.2594
24838SOL    HW275093   5.092   1.116   7.843 -0.0011 -0.9427  1.3173
24839SOL     OW75094   4.219   2.545   8.570  0.0321 -0.3906  0.4117
24839SOL    HW175095   4.225   2.551   8.474 -1.5101  1.5100  0.3841
24839SOL    HW275096   4.275   2.615   8.602  1.4015 -1.6854  1.0003
24840SOL     OW75097   2.189   0.069   4.404 -0.4901  0.4026 -0.6013
24840SOL    HW175098   2.113   0.126   4.417  0.4742  1.1111  3.1460
24840SOL    HW275099   2.172  -0.007   4.459 -0.0798 -1.2673 -2.6598
24841SOL     OW75100   9.307   5.154   0.691  0.4735 -0.4021  0.7067
24841SOL    HW175101   9.235   5.200   0.648 -0.0296  0.2864  2.2174
24841SOL    HW275102   9.382   5.213   0.682  0.7166 -0.8461 -0.3313
24842SOL     OW75103   8.258   6.336   6.545  0.2507  0.2305 -0.0220
24842SOL    HW175104   8.178   6.383   6.522 -0.5577  0.5502  2.9874
24842SOL    HW275105   8.236   6.243   6.532 -1.2494  0.1989  2.1988
24843SOL     OW75106   1.905   6.059   9.614  0.1825  0.2837  0.1813
24843SOL    HW175107   1.961   6.137   9.618  0.5829 -0.0095  0.2341
24843SOL    HW275108   1.829   6.088   9.562  1.9909 -0.2812 -3.0651
24844SOL     OW75109   5.296   6.384   8.466  0.2350  0.3053 -0.1511
24844SOL    HW175110   5.375   6.437   8.457 -0.4058  1.2645 -0.2356
24844SOL    HW275111   5.235   6.440   8.513 -0.0525 -0.8058  0.8386
24845SOL     OW75112   7.695   4.671   1.227 -0.1470  0.3654  0.3798
24845SOL    HW175113   7.775   4.643   1.183 -0.1301  1.5255 -0.3833
24845SOL    HW275114   7.698   4.629   1.313  1.7780  1.1722  0.7439
24846SOL     OW75115   4.420   3.086   2.170 -0.0764 -0.5043 -0.5725
24846SOL    HW175116   4.492   3.091   2.106  0.5882 -1.4870  0.0794
24846SOL    HW275117   4.445   3.015   2.229 -0.7100  0.3410  0.7519
24847SOL     OW75118   0.772   8.492   7.330  0.1433  0.3119  0.1277
24847SOL    HW175119   0.745   8.550   7.402  1.9963 -0.0996  1.2389
24847SOL    HW275120   0.731   8.529   7.252 -3.6036 -0.3439  1.5720
24848SOL     OW75121   3.408   7.690   4.993 -0.2120 -0.2582 -0.5578
24848SOL    HW175122   3.454   7.639   4.926 -0.9363 -0.5493 -0.8514
24848SOL    HW275123   3.391   7.627   5.063 -0.6251 -0.2903 -0.6837
24849SOL     OW75124   9.362   7.742   8.127  0.0985  0.4216 -0.1751
24849SOL    HW175125   9.384   7.709   8.040  0.1912  2.1063 -0.8350
24849SOL    HW275126   9.367   7.666   8.185 -0.4824 -0.8335 -1.7262
24850SOL     OW75127   5.124   4.338   2.706  0.3460 -0.2969  0.0304
24850SOL    HW175128   5.182   4.362   2.778  1.2028  2.6759 -1.4742
24850SOL    HW275129   5.182   4.321   2.633 -0.5854 -0.4573 -0.6985
24851SOL     OW75130   8.365   0.425   5.961  0.3619 -0.4464  0.2067
24851SOL    HW175131   8.357   0.461   5.873  0.3022  1.5825  0.9641
24851SOL    HW275132   8.390   0.501   6.015 -0.8169 -1.3430  2.1181
24852SOL     OW75133   1.316   0.165   8.910  0.3400  0.3245  0.0084
24852SOL    HW175134   1.331   0.089   8.966  0.2714 -0.1962 -0.6619
24852SOL    HW275135   1.403   0.200   8.892  0.4501 -0.1933 -0.4831
24853SOL     OW75136   5.336   2.164   1.405 -0.3167 -0.3375  0.0711
24853SOL    HW175137   5.297   2.142   1.490  0.7277 -1.0869  0.3746
24853SOL    HW275138   5.301   2.099   1.345 -0.0010 -0.6539  0.2237
24854SOL     OW75139   1.078   2.262   0.362  0.1761  0.1074 -0.3040
24854SOL    HW175140   1.069   2.326   0.433  0.2200 -2.2082  1.9736
24854SOL    HW275141   1.173   2.253   0.350  0.1538  1.1812 -1.3504
24855SOL     OW75142   8.414   4.561   1.320  0.5895  0.4574 -0.1714
24855SOL    HW175143   8.419   4.548   1.415  0.9048 -0.0308 -0.2485
24855SOL    HW275144   8.334   4.612   1.307  0.3526  0.2208  0.3284
24856SOL     OW75145   3.145   3.639   4.252  0.7464  0.8320  0.2598
24856SOL    HW175146   3.176   3.724   4.221 -1.5546  1.5404 -0.3327
24856SOL    HW275147   3.137   3.650   4.347  2.2783  0.6139  0.4268
24857SOL     OW75148   3.058   7.441   8.168 -0.3980 -0.4149  0.2768
24857SOL    HW175149   3.063   7.469   8.260 -0.9766  2.6404 -0.4930
24857SOL    HW275150   3.145   7.405   8.150  0.1071 -0.0317  1.7351
24858SOL     OW75151   7.461   0.674   1.549 -0.1732 -0.4369  0.0258
24858SOL    HW175152   7.472   0.585   1.515 -0.0732 -0.3117 -0.2799
24858SOL    HW275153   7.545   0.716   1.532 -0.0117 -0.4666  0.7379
24859SOL     OW75154   6.032   4.889   1.852 -0.3737 -0.2014  0.0641
24859SOL    HW175155   6.069   4.977   1.865  0.3002 -0.5357  0.4757
24859SOL    HW275156   5.993   4.867   1.937 -0.9869 -0.1063 -0.1849
24860SOL     OW75157   3.741   0.104   6.598  0.2132  0.1181 -0.2536
24860SOL    HW175158   3.829   0.141   6.594  0.7855 -0.9421  1.4322
24860SOL    HW275159   3.689   0.172   6.641  0.4595  0.3107 -0.2563
24861SOL     OW75160   3.242   5.897   1.592 -0.0862  0.3361 -0.1758
24861SOL    HW175161   3.308   5.833   1.567  0.8646  0.9098  0.7806
24861SOL    HW275162   3.175   5.891   1.523  0.4659 -0.9567 -0.6283
24862SOL     OW75163   1.000   7.658   4.058  0.1319 -0.1531 -0.0635
24862SOL    HW175164   0.985   7.750   4.039 -0.1650 -0.5142 -1.8210
24862SOL    HW275165   0.995   7.651   4.153  0.9771  1.7737  0.1654
24863SOL     OW75166   4.212   3.108   0.358 -0.4830  0.2053  0.3905
24863SOL    HW175167   4.284   3.134   0.416  0.2423 -0.9501  0.0477
24863SOL    HW275168   4.221   3.013   0.350 -0.4011  0.3278 -1.7724
24864SOL     OW75169   0.333   8.591   0.448 -0.6307 -0.2581  0.2862
24864SOL    HW175170   0.288   8.521   0.495  1.2088 -0.8563  1.2731
24864SOL    HW275171   0.391   8.545   0.387  0.3346  0.3869  0.6911
24865SOL     OW75172   4.177   8.083   4.078  0.1496  0.1429 -0.1585
24865SOL    HW175173   4.129   8.000   4.072  0.0918  0.2852 -2.1695
24865SOL    HW275174   4.117   8.142   4.123  0.4506 -1.0388  1.9333
24866SOL     OW75175   8.333   1.904   7.726  0.1520 -0.3506 -0.3025
24866SOL    HW175176   8.249   1.945   7.748  0.5207 -0.3301  1.2258
24866SOL    HW275177   8.369   1.876   7.811  2.0568  0.3590 -0.8147
24867SOL     OW75178   7.707   8.781   0.035  0.8518  0.3624 -0.3587
24867SOL    HW175179   7.709   8.722   0.110  2.3265 -1.1927 -1.5440
24867SOL    HW275180   7.623   8.762  -0.008  1.8477 -1.9134 -1.4444
24868SOL     OW75181   5.257   6.161   8.904 -0.2687  0.0472 -0.2470
24868SOL    HW175182   5.307   6.215   8.965 -0.1487  1.0042 -1.1728
24868SOL    HW275183   5.189   6.121   8.958  1.2021 -0.9576  0.9672
24869SOL     OW75184   8.418   8.731   5.459  0.3622  0.5442 -0.2874
24869SOL    HW175185   8.499   8.722   5.408 -0.8909  0.4448 -2.3997
24869SOL    HW275186   8.354   8.764   5.396 -1.2601  0.6331  1.3231
24870SOL     OW75187   3.898   8.444   3.215 -0.3045 -0.1410 -0.0970
24870SOL    HW175188   3.813   8.479   3.190 -0.0636  1.0357  0.6510
24870SOL    HW275189   3.953   8.521   3.230  0.8224 -0.8709 -0.3050
24871SOL     OW75190   3.300   6.696   2.939  0.4672 -0.2614  0.3987
24871SOL    HW175191   3.239   6.768   2.955  0.4294 -0.5381  1.5979
24871SOL    HW275192   3.301   6.686   2.843  0.1950  1.0739  0.2408
24872SOL     OW75193   2.152   1.344   7.903  0.1726 -0.1406  0.4099
24872SOL    HW175194   2.143   1.317   7.995  0.6934 -0.6230  0.3261
24872SOL    HW275195   2.239   1.383   7.898  0.8213 -1.6057 -0.2278
24873SOL     OW75196   4.342   4.417   7.114 -0.1145  0.4322 -0.2394
24873SOL    HW175197   4.378   4.449   7.197 -1.6614  0.9301  0.2851
24873SOL    HW275198   4.250   4.445   7.116 -0.3711 -0.2174 -1.7854
24874SOL     OW75199   5.091   8.377   1.462 -0.3676 -0.4452  0.2384
24874SOL    HW175200   5.176   8.420   1.448 -0.3906 -0.5932 -0.3647
24874SOL    HW275201   5.099   8.293   1.417 -0.1353 -1.3263  1.8772
24875SOL     OW75202   2.554   4.015   8.510 -0.3820  0.4490 -0.0992
24875SOL    HW175203   2.636   3.967   8.495 -0.7137  0.1140 -0.8802
24875SOL    HW275204   2.514   3.970   8.584  0.9796  1.7360  1.5030
24876SOL     OW75205   7.560   2.750   6.282  0.1165 -0.5458  0.5638
24876SOL    HW175206   7.639   2.769   6.332  0.6097 -0.5780 -0.1777
24876SOL    HW275207   7.490   2.747   6.347  0.9084 -1.7188  1.4013
24877SOL     OW75208   7.959   9.368   3.351 -0.3964 -0.3208 -0.0037
24877SOL    HW175209   7.938   9.438   3.413  1.1672  0.0102  0.2096
24877SOL    HW275210   7.890   9.373   3.285 -1.5398 -0.0389  1.1773
24878SOL     OW75211   6.283   3.146   7.318 -0.2462  0.1946  0.1723
24878SOL    HW175212   6.282   3.074   7.255 -1.5768 -0.1460  0.5527
24878SOL    HW275213   6.375   3.173   7.321  0.0157 -0.4257 -1.1638
24879SOL     OW75214   7.736   7.496   4.907 -0.1433 -0.3183  0.1377
24879SOL    HW175215   7.734   7.558   4.980  0.1262  0.4406 -0.4866
24879SOL    HW275216   7.655   7.514   4.860  0.9987  1.1872 -1.3511
24880SOL     OW75217   9.927   7.684   5.044 -0.1088  0.8129  0.3984
24880SOL    HW175218  10.004   7.635   5.071 -0.8921  0.0383  1.2819
24880SOL    HW275219   9.960   7.772   5.025  0.9803  0.5067  0.8144
24881SOL     OW75220   5.282   9.030   7.161  0.2917  0.4303 -0.0589
24881SOL    HW175221   5.318   9.027   7.249 -1.8600  1.7558  0.9625
24881SOL    HW275222   5.187   9.026   7.174 -0.0591 -0.5538 -2.4068
24882SOL     OW75223   2.388   0.313   3.707 -0.6130  0.2902  0.0098
24882SOL    HW175224   2.420   0.257   3.636 -0.2157  1.3903 -0.7126
24882SOL    HW275225   2.356   0.252   3.773  0.3789 -0.8021 -0.4725
24883SOL     OW75226   0.872   6.350   8.272  0.1392  0.4806  0.2361
24883SOL    HW175227   0.783   6.349   8.235  0.2340  0.2448  0.0069
24883SOL    HW275228   0.860   6.382   8.361 -0.2616 -0.1024  0.4039
24884SOL     OW75229   5.267   5.469   0.144 -0.6888  0.9341 -0.4311
24884SOL    HW175230   5.215   5.424   0.078 -0.4357  0.0053 -0.0203
24884SOL    HW275231   5.315   5.536   0.096  1.3095 -1.2296 -1.6555
24885SOL     OW75232   9.258   4.390   3.420  0.4657 -0.2049 -0.3469
24885SOL    HW175233   9.320   4.360   3.353  0.5690  0.6100 -0.6200
24885SOL    HW275234   9.305   4.379   3.502  0.8711  0.1476 -0.5283
24886SOL     OW75235  -0.014   4.620   7.435 -0.0667  0.0052 -0.5754
24886SOL    HW175236   0.079   4.633   7.415 -0.2096  0.7501 -0.7677
24886SOL    HW275237  -0.020   4.628   7.530  0.7733 -4.4511  0.1064
24887SOL     OW75238   9.197   9.847   5.429 -0.7249 -0.1343  0.5847
24887SOL    HW175239   9.278   9.894   5.447 -0.3989 -1.0168  1.4782
24887SOL    HW275240   9.222   9.779   5.368 -0.8465 -0.2568  0.6716
24888SOL     OW75241   6.796   2.944   1.624  0.1898  0.4034  0.2472
24888SOL    HW175242   6.831   2.887   1.555  1.0785  0.4740  0.6320
24888SOL    HW275243   6.811   2.896   1.705  1.6909  1.5033  0.6624
24889SOL     OW75244   3.900   3.862   4.865 -0.2402 -0.2323  0.0460
24889SOL    HW175245   3.845   3.893   4.793 -1.7911 -1.8216  0.4889
24889SOL    HW275246   3.843   3.863   4.942  0.9672  0.0570  0.9697
24890SOL     OW75247   7.221   5.769   9.817 -0.0275  0.7169  0.6333
24890SOL    HW175248   7.216   5.832   9.889 -0.7694  0.2085  1.0378
24890SOL    HW275249   7.246   5.687   9.858  0.2997  0.5948  0.1981
24891SOL     OW75250   4.375   8.277   5.809 -0.1819  1.0231 -0.1844
24891SOL    HW175251   4.282   8.300   5.811 -0.1693  1.0050  0.9032
24891SOL    HW275252   4.396   8.271   5.715 -1.6309 -0.4556 -0.4532
24892SOL     OW75253   4.071   9.974   3.231  0.0840  0.0781 -0.7763
24892SOL    HW175254   4.006   9.949   3.165 -0.0757 -0.5442 -0.3951
24892SOL    HW275255   4.084   9.894   3.283 -0.1711  0.7057  0.2648
24893SOL     OW75256   7.923   1.362   8.911 -0.6956  0.0006 -0.0851
24893SOL    HW175257   7.868   1.421   8.962 -1.9666 -1.0175 -0.2367
24893SOL    HW275258   8.006   1.410   8.900 -0.6728  0.5933  2.1883
24894SOL     OW75259   6.941   0.401   1.136 -0.5003  0.0022  0.3066
24894SOL    HW175260   6.906   0.388   1.224  0.7469  1.0240  0.9999
24894SOL    HW275261   6.968   0.493   1.134  3.5101 -0.9888  0.4521
24895SOL     OW75262   5.514   4.778   7.597  0.2707  0.0193 -0.1080
24895SOL    HW175263   5.462   4.849   7.635 -0.7339 -1.6561  1.8751
24895SOL    HW275264   5.452   4.705   7.589  2.3626 -2.4404  3.3740
24896SOL     OW75265   6.620   6.273   3.936  0.0136 -0.4910 -0.1205
24896SOL    HW175266   6.611   6.309   3.848  0.8298 -0.8412 -0.3543
24896SOL    HW275267   6.709   6.239   3.939  0.2259  0.1263  1.0796
24897SOL     OW75268   0.890   3.717   1.378  0.4517 -0.3290 -0.4709
24897SOL    HW175269   0.832   3.780   1.336 -1.9087  0.0867  2.9588
24897SOL    HW275270   0.952   3.770   1.427  0.6430 -0.7070 -0.2954
24898SOL     OW75271   8.204   5.006   9.416 -0.5480 -0.4454 -0.3021
24898SOL    HW175272   8.169   5.081   9.367 -2.6302 -1.7981 -1.0021
24898SOL    HW275273   8.184   5.025   9.507  0.0625  0.3864 -0.3211
24899SOL     OW75274   7.511   9.731   8.202  0.2512  0.2768 -0.0975
24899SOL    HW175275   7.535   9.738   8.294  0.2900  0.6649 -0.1374
24899SOL    HW275276   7.566   9.795   8.158  2.5527 -2.0231 -0.8476
24900SOL     OW75277   9.420   0.439   0.385  0.0065  0.5651  0.0563
24900SOL    HW175278   9.465   0.410   0.465 -1.6510 -1.1391  0.4462
24900SOL    HW275279   9.398   0.531   0.402 -1.4060 -0.0857  2.1556
24901SOL     OW75280   9.340   4.501   5.792  0.6352 -0.8301 -0.0707
24901SOL    HW175281   9.272   4.439   5.763  0.2160 -0.5383  0.2689
24901SOL    HW275282   9.364   4.548   5.712 -0.0520 -0.4724 -0.0728
24902SOL     OW75283   3.582   0.609   9.248 -0.1934  0.1140 -0.1048
24902SOL    HW175284   3.567   0.702   9.232 -1.7133 -0.4599 -2.3706
24902SOL    HW275285   3.548   0.594   9.336  0.2463  1.7121  0.3710
24903SOL     OW75286   5.661   7.066   9.844 -0.0332  0.8194 -0.9301
24903SOL    HW175287   5.748   7.064   9.803  0.9445 -0.1175  1.0305
24903SOL    HW275288   5.666   7.140   9.905 -0.3834  0.3650 -0.3439
24904SOL     OW75289   2.228   3.902   4.364 -0.2636 -0.5090 -0.0121
24904SOL    HW175290   2.173   3.918   4.287 -1.1811 -1.3061  0.4606
24904SOL    HW275291   2.215   3.979   4.419  0.2576 -0.0161 -0.5595
24905SOL     OW75292   0.110   9.949   6.162 -0.1734 -0.4317 -0.2573
24905SOL    HW175293   0.150   9.953   6.248 -1.9936 -2.4191  0.7623
24905SOL    HW275294   0.173   9.901   6.108  1.0423  0.9633 -0.1435
24906SOL     OW75295   2.905   1.424   4.920 -0.2478  0.4256 -0.3499
24906SOL    HW175296   2.927   1.414   5.012 -1.3549 -0.6221 -0.1696
24906SOL    HW275297   2.824   1.476   4.920 -1.8468 -1.8895 -0.4994
24907SOL     OW75298   2.314   5.641   5.673  0.7363 -0.5354 -0.5596
24907SOL    HW175299   2.221   5.621   5.688  0.4204  1.3636  0.3167
24907SOL    HW275300   2.330   5.613   5.583  0.5369 -4.9752  0.5647
24908SOL     OW75301   3.724   5.102   2.008  0.2567  0.5184  0.8158
24908SOL    HW175302   3.773   5.175   1.970  0.2888 -0.4207 -1.0829
24908SOL    HW275303   3.653   5.144   2.057 -0.1560  1.8522 -0.8320
24909SOL     OW75304   2.219   2.515   4.609  0.1775  0.9257  0.0675
24909SOL    HW175305   2.208   2.538   4.701  2.3835  1.5220  0.2347
24909SOL    HW275306   2.303   2.471   4.605 -0.0719  0.5353 -1.6175
24910SOL     OW75307   6.663   6.312   8.040 -0.3180 -0.1516 -0.1853
24910SOL    HW175308   6.637   6.396   8.003 -0.1733 -0.0122  0.0252
24910SOL    HW275309   6.595   6.251   8.011 -0.8506  0.1948  0.3026
24911SOL     OW75310   0.233   1.891   3.116 -0.1674  0.8460  0.2453
24911SOL    HW175311   0.268   1.974   3.147 -1.1822  0.4479  2.7102
24911SOL    HW275312   0.282   1.824   3.163 -1.0293  0.1482  0.1958
24912SOL     OW75313   0.091   8.272   2.947  0.0305 -0.0892 -0.0740
24912SOL    HW175314   0.030   8.203   2.920  0.3834 -0.2632 -0.4415
24912SOL    HW275315   0.041   8.353   2.936 -0.3797 -0.2816  0.3436
24913SOL     OW75316   8.172   7.559   1.304 -0.1886 -0.2269 -0.0705
24913SOL    HW175317   8.249   7.616   1.309 -0.1186 -0.0718 -2.0111
24913SOL    HW275318   8.104   7.616   1.268 -1.0721 -0.5152  1.1085
24914SOL     OW75319   2.897   1.716   8.460  0.2311  0.3284 -0.0743
24914SOL    HW175320   2.978   1.720   8.511 -0.5349  0.2320  1.1787
24914SOL    HW275321   2.917   1.768   8.382  1.9964 -0.9466 -0.5492
24915SOL     OW75322   1.341   9.692   1.258 -0.3829 -0.5219 -0.0403
24915SOL    HW175323   1.343   9.622   1.323  1.1890  0.4435  1.0134
24915SOL    HW275324   1.391   9.657   1.184  0.8208 -0.3846  0.6733
24916SOL     OW75325   0.768   4.771   0.449  0.2896  0.2203  0.4594
24916SOL    HW175326   0.851   4.805   0.416  1.0223 -1.8121  0.0432
24916SOL    HW275327   0.733   4.841   0.504  3.0701  0.5629  1.9850
24917SOL     OW75328   0.413   4.479   3.539 -0.1395 -0.0397 -0.4991
24917SOL    HW175329   0.486   4.536   3.564  0.8867 -1.6958  0.4547
24917SOL    HW275330   0.336   4.523   3.575  0.6465  0.6303  0.4532
24918SOL     OW75331   5.272   7.878   5.827  0.2008  0.4889  0.3207
24918SOL    HW175332   5.355   7.923   5.811  1.3114 -1.2001  1.0396
24918SOL    HW275333   5.280   7.796   5.779 -0.4545 -0.3089  1.5291
24919SOL     OW75334   6.400   8.730   5.194 -0.3487 -0.0197 -0.1047
24919SOL    HW175335   6.496   8.721   5.191 -0.3764 -0.5278  0.3011
24919SOL    HW275336   6.368   8.641   5.181 -0.6762 -0.4888  3.0929
24920SOL     OW75337   9.235   6.342   5.060 -0.0685 -0.1013  0.2127
24920SOL    HW175338   9.148   6.379   5.073 -0.4204 -0.7901 -0.1678
24920SOL    HW275339   9.220   6.260   5.014  0.7689 -0.3196  0.3155
24921SOL     OW75340   0.246   6.208   3.205 -0.1731 -0.1196 -0.2457
24921SOL    HW175341   0.229   6.214   3.299 -1.0007 -0.2704 -0.3745
24921SOL    HW275342   0.262   6.114   3.190 -1.2446 -0.2839 -0.4352
24922SOL     OW75343   6.815   6.215   9.901  0.2342  0.2707 -0.4908
24922SOL    HW175344   6.804   6.144   9.964  1.4491 -0.0933 -0.6693
24922SOL    HW275345   6.762   6.189   9.826 -1.4894  0.8583  0.4514
24923SOL     OW75346   9.602   1.092   7.123 -0.1412  0.1428 -0.1044
24923SOL    HW175347   9.575   1.059   7.037 -0.9465 -0.3753  0.3336
24923SOL    HW275348   9.667   1.030   7.154 -1.0737 -0.6193  0.3730
24924SOL     OW75349   7.212   5.314   1.769  0.2705  0.3931  0.4327
24924SOL    HW175350   7.172   5.234   1.803 -3.5768  1.9501  0.0683
24924SOL    HW275351   7.202   5.306   1.674  1.2261  0.6910  0.2986
24925SOL     OW75352   8.921   4.610   3.507  0.6185 -0.7887 -0.4295
24925SOL    HW175353   8.869   4.544   3.460  0.9345 -1.5367  0.2472
24925SOL    HW275354   8.942   4.569   3.590  2.2781 -0.4876 -0.6668
24926SOL     OW75355   3.883   6.618   4.324  0.1992 -0.1485 -0.2294
24926SOL    HW175356   3.977   6.626   4.309  0.6591  0.4253  2.4668
24926SOL    HW275357   3.870   6.525   4.345  0.7592  0.3002  2.4175
24927SOL     OW75358   1.862   0.113   9.864 -0.6017 -0.2820 -0.0979
24927SOL    HW175359   1.850   0.039   9.923  0.9182 -1.4387 -1.1646
24927SOL    HW275360   1.952   0.104   9.832 -0.0695  2.5155  0.3789
24928SOL     OW75361   7.349   9.064   5.822  0.5423 -0.8804 -0.5889
24928SOL    HW175362   7.367   9.140   5.877  2.5721 -2.0755  0.5128
24928SOL    HW275363   7.256   9.048   5.834  0.2839  0.8010 -0.0304
24929SOL     OW75364   2.112   2.674   9.621  0.0336 -0.2421 -0.3751
24929SOL    HW175365   2.142   2.621   9.547 -0.2815  1.2021 -1.5676
24929SOL    HW275366   2.039   2.725   9.587  1.1128  1.9038  0.3477
24930SOL     OW75367   9.611   3.579   2.767 -0.4152 -0.6180 -0.1260
24930SOL    HW175368   9.552   3.574   2.692 -1.2436 -1.2774  0.5498
24930SOL    HW275369   9.553   3.579   2.843  0.2858  1.9027  0.5270
24931SOL     OW75370   4.435   6.258   5.097 -0.4758 -0.0981 -0.4224
24931SOL    HW175371   4.405   6.327   5.155 -2.2920 -1.7238  0.7054
24931SOL    HW275372   4.463   6.304   5.017 -2.2251  1.8870  0.0091
24932SOL     OW75373   9.779   1.939   5.653  0.1516 -0.6950 -0.0915
24932SOL    HW175374   9.797   1.990   5.732  1.1551 -2.8925  1.1958
24932SOL    HW275375   9.830   1.859   5.664 -0.4415 -1.4985 -2.5450
24933SOL     OW75376   0.900   2.784   5.052  0.2520 -0.5619  0.0943
24933SOL    HW175377   0.863   2.752   4.970 -0.8464  1.8435 -0.4562
24933SOL    HW275378   0.988   2.814   5.029  0.3198 -0.8174  0.0229
24934SOL     OW75379   7.619   2.966   2.848  0.2791 -0.6375 -0.1233
24934SOL    HW175380   7.642   3.033   2.783  1.4408  0.0984  1.0058
24934SOL    HW275381   7.596   3.016   2.926  1.8912 -1.5516  0.9756
24935SOL     OW75382   2.082   2.851   0.680 -0.1737  0.3243 -0.5402
24935SOL    HW175383   2.150   2.801   0.635 -0.0364 -0.4680  0.5285
24935SOL    HW275384   2.000   2.811   0.650 -0.0980  0.0891 -0.4392
24936SOL     OW75385   3.453   6.681   4.939 -0.3054 -0.1509 -0.3943
24936SOL    HW175386   3.527   6.643   4.893 -0.3056 -0.6789  0.0316
24936SOL    HW275387   3.376   6.648   4.893 -0.2897 -0.1205 -0.4423
24937SOL     OW75388   6.660   3.519   4.233 -0.0020  0.3041  0.6160
24937SOL    HW175389   6.708   3.509   4.151 -0.8753 -0.4579  0.1815
24937SOL    HW275390   6.679   3.608   4.261 -1.2668  1.3149 -1.4605
24938SOL     OW75391   1.456   2.026   8.864 -0.1354 -0.0878 -0.4655
24938SOL    HW175392   1.384   2.063   8.915  1.2804  0.6216  1.1149
24938SOL    HW275393   1.421   1.945   8.828 -1.4093 -0.3001  1.1360
24939SOL     OW75394   1.227   7.633   9.059 -0.4556 -0.0473 -0.0497
24939SOL    HW175395   1.255   7.572   9.126  0.6396  0.3697 -0.1076
24939SOL    HW275396   1.205   7.713   9.107 -1.0823 -0.2103 -0.0562
24940SOL     OW75397   2.134   4.449   0.444 -0.3847 -0.4436  0.2433
24940SOL    HW175398   2.151   4.544   0.441 -0.2670 -0.4622  0.3099
24940SOL    HW275399   2.091   4.436   0.528  0.9159 -0.6571  0.9055
24941SOL     OW75400   9.686   5.994   2.339 -0.2025  0.2191 -0.1947
24941SOL    HW175401   9.655   6.039   2.418  0.4988  1.5436 -0.6506
24941SOL    HW275402   9.781   5.994   2.347 -0.1900 -2.2505  0.3344
24942SOL     OW75403   1.490   1.383   8.252  0.6998 -0.1030 -0.2606
24942SOL    HW175404   1.513   1.361   8.342  0.9473  0.8444 -0.0742
24942SOL    HW275405   1.563   1.436   8.221  0.2450  0.2637 -0.7357
24943SOL     OW75406   8.455   7.374   6.227  0.6219 -0.1060 -0.0668
24943SOL    HW175407   8.510   7.394   6.302 -2.3603  0.3166  2.1588
24943SOL    HW275408   8.412   7.456   6.205  0.2648 -0.5792 -1.2331
24944SOL     OW75409   6.173   7.709   4.578 -0.0852  0.2498 -0.2838
24944SOL    HW175410   6.246   7.771   4.583  0.7189 -0.6774 -0.4147
24944SOL    HW275411   6.212   7.627   4.548 -0.6772 -1.0193  2.1265
24945SOL     OW75412   6.713   4.729   1.853 -0.4708  0.5661  0.0474
24945SOL    HW175413   6.710   4.753   1.760  2.1983 -0.5680 -0.4495
24945SOL    HW275414   6.761   4.801   1.895 -2.2159  1.3877  0.7343
24946SOL     OW75415   1.402   8.984   9.712  0.1142 -0.4520 -0.0649
24946SOL    HW175416   1.381   8.999   9.620 -0.6186 -1.3733 -0.0620
24946SOL    HW275417   1.494   9.007   9.720 -0.0422  0.5195 -0.8245
24947SOL     OW75418   7.620   5.921   3.393 -0.1310 -0.1616 -0.5671
24947SOL    HW175419   7.702   5.872   3.390 -1.7257 -3.0961 -0.0124
24947SOL    HW275420   7.600   5.929   3.487 -0.1622  1.2200 -0.6613
24948SOL     OW75421   3.235   1.106   9.019  0.5754 -0.6773  0.3946
24948SOL    HW175422   3.147   1.138   9.039 -0.1328 -1.4937 -1.2982
24948SOL    HW275423   3.252   1.136   8.930  1.8286 -0.9448  0.5275
24949SOL     OW75424   8.824   5.855   5.087  0.1826 -0.2116  0.0284
24949SOL    HW175425   8.787   5.912   5.020  0.2494  0.1685  0.3089
24949SOL    HW275426   8.749   5.808   5.123 -0.2747  1.5616  1.5549
24950SOL     OW75427   5.716   9.335   0.828 -0.0800 -0.2228  0.0145
24950SOL    HW175428   5.672   9.416   0.803  1.5496  1.3608  1.9540
24950SOL    HW275429   5.766   9.309   0.751 -1.1012  0.2524 -0.8306
24951SOL     OW75430   6.266   0.788   8.090 -0.1211 -0.3077 -0.3204
24951SOL    HW175431   6.206   0.857   8.062  0.4377  0.2063 -0.2654
24951SOL    HW275432   6.224   0.750   8.167  1.3764  2.6192  2.1460
24952SOL     OW75433   7.032   4.776   1.263 -0.8224 -0.1144  0.6158
24952SOL    HW175434   7.081   4.729   1.196 -0.9999  1.9296 -1.0528
24952SOL    HW275435   6.971   4.712   1.298 -0.8967 -1.1994 -1.3695
24953SOL     OW75436   2.078   1.455   2.663  0.4327 -0.4685 -0.1547
24953SOL    HW175437   2.143   1.385   2.656  1.0014  0.1589 -1.5289
24953SOL    HW275438   2.016   1.437   2.592  0.6497  0.4914 -0.5931
24954SOL     OW75439   1.635   5.462   3.362 -1.1255  0.0964  0.1408
24954SOL    HW175440   1.578   5.451   3.438 -0.1476  0.0190  0.8747
24954SOL    HW275441   1.679   5.378   3.351 -0.3174  0.4904  0.2724
24955SOL     OW75442   7.594   9.868   3.376 -0.6428 -0.0639 -0.1128
24955SOL    HW175443   7.521   9.914   3.335 -0.7469  0.3762  0.5595
24955SOL    HW275444   7.571   9.775   3.368 -0.6918  0.0174 -0.9793
24956SOL     OW75445   7.217   0.480   6.472  0.3050 -0.2820  0.3914
24956SOL    HW175446   7.295   0.444   6.429  2.4391  3.3789  0.7854
24956SOL    HW275447   7.237   0.476   6.565  0.9359  2.1942  0.4474
24957SOL     OW75448   2.335   2.174   2.826 -0.0263  0.2086  0.0195
24957SOL    HW175449   2.278   2.250   2.838  0.3023  0.4503  0.0453
24957SOL    HW275450   2.423   2.210   2.819 -0.0776  0.0233 -2.2104
24958SOL     OW75451   4.591   6.792   8.710 -0.1962  0.5188  0.0520
24958SOL    HW175452   4.615   6.859   8.775 -0.3752  1.0480 -0.4223
24958SOL    HW275453   4.673   6.776   8.662  0.4186 -1.1902  1.5467
24959SOL     OW75454   5.021   9.833   9.760  0.5791  0.8137  0.0166
24959SOL    HW175455   5.108   9.840   9.720  0.1456  1.9080 -0.7702
24959SOL    HW275456   4.961   9.829   9.686  0.0402 -1.9558  0.4917
24960SOL     OW75457   0.678   1.534   5.922 -0.2715 -0.2618  0.1804
24960SOL    HW175458   0.752   1.473   5.917  0.6759  0.9834 -1.8699
24960SOL    HW275459   0.648   1.544   5.832 -0.3859  2.2841  0.4245
24961SOL     OW75460   5.532   2.102   8.445  0.5166  0.0410 -0.6675
24961SOL    HW175461   5.626   2.117   8.435  0.7228  0.7082  1.6524
24961SOL    HW275462   5.521   2.009   8.428  2.2630 -0.8970  2.4111
24962SOL     OW75463   3.153   1.157   2.748 -0.1501 -0.8864  0.0080
24962SOL    HW175464   3.131   1.201   2.830  1.3512  1.4226 -0.7260
24962SOL    HW275465   3.078   1.174   2.691  0.4098  0.8610 -0.2688
24963SOL     OW75466   0.548   8.749   8.777  0.2475 -0.6220  0.2113
24963SOL    HW175467   0.505   8.771   8.860  0.0183 -1.2078  0.2494
24963SOL    HW275468   0.642   8.752   8.797  0.2212  0.2103  0.2418
24964SOL     OW75469   0.653   5.838   7.347 -0.2380 -0.2560  0.0499
24964SOL    HW175470   0.580   5.781   7.371  1.1817 -2.6336 -0.8994
24964SOL    HW275471   0.665   5.824   7.253  0.5635  1.1892 -0.1018
24965SOL     OW75472   7.755   3.485   4.625  0.0535  0.6954  0.1589
24965SOL    HW175473   7.774   3.395   4.601 -1.1121  0.2657  0.7597
24965SOL    HW275474   7.823   3.509   4.688  0.4708  0.3053 -0.1391
24966SOL     OW75475   0.955   3.469   2.160  0.4756  0.3232 -0.2522
24966SOL    HW175476   1.031   3.411   2.155  1.1068  1.1334 -0.2955
24966SOL    HW275477   0.992   3.557   2.155 -0.3434  0.7786  1.2503
24967SOL     OW75478   9.341   8.151   3.348 -0.3147  0.2284  0.4317
24967SOL    HW175479   9.392   8.088   3.298 -1.5628  0.0640 -0.6508
24967SOL    HW275480   9.405   8.189   3.409  1.8016  1.8661 -2.5161
24968SOL     OW75481   4.961   0.075   1.830  0.3822  0.4412 -0.1622
24968SOL    HW175482   4.887   0.050   1.775  0.2722  1.0851 -0.3130
24968SOL    HW275483   4.993  -0.008   1.865 -0.2883  0.1361 -0.2464
24969SOL     OW75484   0.086   8.830   2.258  0.1956 -0.4831 -0.0429
24969SOL    HW175485   0.157   8.800   2.314  0.5615  0.1805 -0.1366
24969SOL    HW275486   0.112   8.918   2.231 -0.7245 -0.1752  0.0303
24970SOL     OW75487   7.583   5.826   4.377 -0.2850 -0.9336 -0.1757
24970SOL    HW175488   7.501   5.870   4.402  0.5841  0.0992  1.0025
24970SOL    HW275489   7.601   5.766   4.450  1.0795  0.4053  0.6394
24971SOL     OW75490   2.506   2.807   7.358 -0.0603 -0.0547 -0.5868
24971SOL    HW175491   2.562   2.817   7.436 -1.8586  0.5450  0.6967
24971SOL    HW275492   2.434   2.751   7.387 -1.9172  1.9308 -1.1096
24972SOL     OW75493   3.087   7.323   3.159 -0.2661  0.1509  0.2987
24972SOL    HW175494   3.100   7.392   3.224  0.5468 -0.1597  0.4917
24972SOL    HW275495   3.034   7.257   3.204  0.5880 -0.2255  0.7908
24973SOL     OW75496   3.962   8.803   9.698  0.4041 -0.4865  0.1615
24973SOL    HW175497   4.027   8.801   9.628  0.2566  0.7480 -0.0327
24973SOL    HW275498   3.987   8.732   9.757  1.3905 -0.5941 -0.3758
24974SOL     OW75499   0.304   9.729   1.861  0.4208  0.3938 -0.1512
24974SOL    HW175500   0.231   9.766   1.910  1.6265  0.9997  1.2796
24974SOL    HW275501   0.363   9.803   1.844  1.1630 -0.2318 -0.4014
24975SOL     OW75502   8.760   8.111   7.211 -0.4168 -0.0771  0.1119
24975SOL    HW175503   8.763   8.052   7.136 -0.3309  0.5636 -0.3985
24975SOL    HW275504   8.852   8.123   7.236 -0.4360 -0.1915  0.2366
24976SOL     OW75505   1.763   4.657   2.645 -0.3933 -0.2896  0.2518
24976SOL    HW175506   1.833   4.591   2.640  0.6647  0.8633 -1.4709
24976SOL    HW275507   1.707   4.638   2.570 -0.3057  0.4749 -0.0213
24977SOL     OW75508   1.376   8.844   6.446  1.0326  0.2406  0.3182
24977SOL    HW175509   1.401   8.927   6.487  0.5077  1.3436 -1.4458
24977SOL    HW275510   1.318   8.870   6.374 -0.6733 -1.8229  0.8725
24978SOL     OW75511   8.970   8.461   8.524  0.1590  0.4212 -0.3774
24978SOL    HW175512   8.919   8.467   8.443  0.3338  2.3907 -0.3770
24978SOL    HW275513   8.983   8.551   8.551  1.5066 -0.1456  0.9901
24979SOL     OW75514   3.557   1.732   2.461  0.1665 -0.3866  0.2646
24979SOL    HW175515   3.547   1.668   2.531 -0.7091  0.7040  1.1913
24979SOL    HW275516   3.467   1.753   2.436  0.3481  1.6017  1.0862
24980SOL     OW75517   5.694   6.454   1.513 -0.1246 -0.3038 -0.4275
24980SOL    HW175518   5.777   6.493   1.540 -0.3603 -0.1274  0.0433
24980SOL    HW275519   5.706   6.360   1.527 -0.7192 -0.1141  1.6504
24981SOL     OW75520   0.928   1.268   6.283  0.4385  0.9918  0.3294
24981SOL    HW175521   1.000   1.261   6.347 -0.6239 -1.0199  1.4075
24981SOL    HW275522   0.853   1.297   6.335  0.1995  2.0562 -0.5868
24982SOL     OW75523   3.624   5.104   8.925  0.3563  0.5585  0.0253
24982SOL    HW175524   3.560   5.040   8.893 -1.0192  1.4981  0.7870
24982SOL    HW275525   3.649   5.154   8.847  0.0542  0.2708 -0.2558
24983SOL     OW75526   3.307   6.912   9.835  0.3767 -0.0349 -0.3222
24983SOL    HW175527   3.239   6.979   9.826 -0.1678 -0.7437 -1.8262
24983SOL    HW275528   3.367   6.947   9.901 -0.2171  1.6559 -0.6340
24984SOL     OW75529   4.229   7.409   8.471  0.5613  0.2393  0.0583
24984SOL    HW175530   4.244   7.411   8.376  1.6413 -0.1053  0.2015
24984SOL    HW275531   4.137   7.385   8.481  0.1262  1.4152 -0.9145
24985SOL     OW75532   9.616   5.144   7.136 -0.1984 -0.2775  0.0710
24985SOL    HW175533   9.683   5.105   7.192  0.7364 -3.0348 -2.6804
24985SOL    HW275534   9.534   5.102   7.164 -0.2288  0.4506  1.1230
24986SOL     OW75535   6.365   6.895   2.522  0.2276 -0.4345  0.1973
24986SOL    HW175536   6.310   6.916   2.598  2.2927  1.2850  1.3074
24986SOL    HW275537   6.372   6.799   2.525 -1.3196 -0.5665  0.9767
24987SOL     OW75538   0.469   3.850   9.462 -0.1018 -0.0760 -0.2730
24987SOL    HW175539   0.428   3.842   9.548  0.0767  0.2543 -0.1517
24987SOL    HW275540   0.525   3.773   9.454  0.7577  0.4496  0.3996
24988SOL     OW75541   9.690   5.335   3.156 -0.0607 -0.2216 -0.1412
24988SOL    HW175542   9.745   5.279   3.102 -0.0946  0.0697 -0.4829
24988SOL    HW275543   9.719   5.319   3.246 -0.6357 -1.4146 -0.1555
24989SOL     OW75544   7.594   5.571   5.144 -0.1895  0.2828 -0.0123
24989SOL    HW175545   7.587   5.602   5.234 -0.4288 -2.4301  0.9712
24989SOL    HW275546   7.548   5.487   5.143  0.0762  0.0764 -2.6008
24990SOL     OW75547   3.753   4.269   5.220 -0.8969  0.1140 -0.0385
24990SOL    HW175548   3.691   4.335   5.252  0.1257  2.2356 -2.0895
24990SOL    HW275549   3.704   4.221   5.154 -0.6535  1.2685 -1.0997
24991SOL     OW75550   1.132   8.989   8.550 -0.4512 -0.2508  0.5536
24991SOL    HW175551   1.138   9.027   8.638  1.0595  0.1883  0.2911
24991SOL    HW275552   1.045   8.950   8.546 -0.0179 -1.6163  2.8026
24992SOL     OW75553   6.346   7.394   8.651  0.0158 -0.1040  0.2035
24992SOL    HW175554   6.275   7.453   8.626 -1.5839 -1.2716  1.7294
24992SOL    HW275555   6.413   7.452   8.689 -0.0189  1.0211 -1.3313
24993SOL     OW75556   5.814   9.538   3.488 -0.5176 -0.4668 -0.2461
24993SOL    HW175557   5.767   9.548   3.571  0.3938  0.5178  0.1722
24993SOL    HW275558   5.766   9.594   3.426  1.2224  2.2360  0.6855
24994SOL     OW75559   5.495   4.295   9.566 -0.4836 -1.0814  0.4443
24994SOL    HW175560   5.532   4.207   9.565  0.0319 -0.8668  0.4222
24994SOL    HW275561   5.569   4.352   9.546 -0.2107 -0.4267  3.0256
24995SOL     OW75562   2.577   0.183   6.518  0.0720  0.0571 -0.6082
24995SOL    HW175563   2.536   0.261   6.557  1.2169  0.5439 -0.3463
24995SOL    HW275564   2.504   0.123   6.504 -0.3490 -0.7449  3.6501
24996SOL     OW75565   0.171   8.751   7.970  0.0556  0.0308  0.3546
24996SOL    HW175566   0.157   8.764   7.876  1.2736 -1.0143  0.0006
24996SOL    HW275567   0.092   8.706   8.000 -1.2974  2.2270  0.3060
24997SOL     OW75568   1.777   9.031   7.905  0.1429  0.4210 -0.4554
24997SOL    HW175569   1.872   9.022   7.894  0.4112  2.5860 -0.3247
24997SOL    HW275570   1.756   8.969   7.974  1.6953  0.8288  0.4400
24998SOL     OW75571   5.294   2.237   3.456 -0.0756 -0.3084 -0.0430
24998SOL    HW175572   5.338   2.306   3.507  0.2423 -0.3435 -0.2694
24998SOL    HW275573   5.314   2.258   3.365 -0.4892 -0.3552 -0.1470
24999SOL     OW75574   1.626   2.064   3.029  0.0313 -0.2455 -0.3613
24999SOL    HW175575   1.636   2.075   2.935 -1.2749  0.5109 -0.4325
24999SOL    HW275576   1.537   2.093   3.048  0.1027 -0.8343  1.0423
25000SOL     OW75577   7.796   2.476   2.680 -0.6272  0.4705  0.4097
25000SOL    HW175578   7.734   2.512   2.743 -1.0666  1.8095 -0.7281
25000SOL    HW275579   7.755   2.491   2.595  0.2575 -0.6713 -0.2350
25001SOL     OW75580   8.339   9.270   2.343  0.0987  0.8170  0.1876
25001SOL    HW175581   8.361   9.183   2.309  0.2942  0.2582  1.6495
25001SOL    HW275582   8.275   9.305   2.281  2.0772  0.8251 -1.9875
25002SOL     OW75583   3.110   4.449   3.405  0.1736  0.4302  1.0624
25002SOL    HW175584   3.042   4.429   3.340  1.9243  0.7386 -0.9858
25002SOL    HW275585   3.179   4.385   3.388  1.8804  2.2660  0.6556
25003SOL     OW75586   7.465   1.437   5.886 -0.8670  0.1301 -0.2155
25003SOL    HW175587   7.448   1.446   5.792 -0.5561 -0.5725 -0.3413
25003SOL    HW275588   7.520   1.360   5.894  1.3511  1.6724  0.2909
25004SOL     OW75589   4.788   2.936   2.140 -0.3678  0.2385  0.1384
25004SOL    HW175590   4.734   2.979   2.074  0.3302 -0.1932 -0.7350
25004SOL    HW275591   4.827   3.008   2.190 -1.2696  0.5572  0.3988
25005SOL     OW75592   3.719   3.337   7.713 -0.4214  0.4708 -0.0151
25005SOL    HW175593   3.726   3.400   7.641  1.0525 -1.3161 -1.5799
25005SOL    HW275594   3.762   3.379   7.787  0.4100  1.3669 -0.9759
25006SOL     OW75595   0.488   6.345   6.759  0.6874  0.1162 -0.2544
25006SOL    HW175596   0.431   6.315   6.688  1.0840 -0.8812 -0.1712
25006SOL    HW275597   0.474   6.280   6.829  2.7349 -0.8103 -0.6414
25007SOL     OW75598   3.270   6.288   7.664 -0.4961 -0.5585 -0.7442
25007SOL    HW175599   3.254   6.350   7.735 -1.1647  1.3707 -2.4530
25007SOL    HW275600   3.364   6.294   7.647 -0.6195  0.3375 -1.1624
25008SOL     OW75601   0.445   5.477   6.298 -0.2846  0.2734  0.6751
25008SOL    HW175602   0.408   5.472   6.210 -0.9686 -3.3034  1.0317
25008SOL    HW275603   0.539   5.467   6.285 -0.3856 -0.2834  0.3134
25009SOL     OW75604   9.489   6.455   5.672  0.3956  0.1144 -0.0085
25009SOL    HW175605   9.470   6.548   5.678 -0.9270 -0.2085  1.4819
25009SOL    HW275606   9.411   6.417   5.631  0.4907 -0.4574  0.3337
25010SOL     OW75607   8.174   5.965   2.365 -0.2410 -0.3188  0.4944
25010SOL    HW175608   8.158   5.873   2.341 -0.9315 -0.4896  1.5490
25010SOL    HW275609   8.171   5.966   2.461 -2.8754  1.2321  0.5009
25011SOL     OW75610   2.104   8.157   4.593  0.0121 -0.6672  0.2134
25011SOL    HW175611   2.173   8.205   4.639  0.9443 -2.7325  1.0977
25011SOL    HW275612   2.058   8.110   4.662 -1.6705 -0.1440 -0.4935
25012SOL     OW75613   6.030   2.292   3.341  0.4711  0.3854  0.1240
25012SOL    HW175614   6.056   2.376   3.302  0.3845  0.4592  0.2251
25012SOL    HW275615   6.112   2.253   3.370  0.6593 -0.1392 -1.0671
25013SOL     OW75616   8.183   4.164   6.341  0.0985  0.0594  0.5098
25013SOL    HW175617   8.206   4.195   6.429 -0.3875  0.7935  0.3908
25013SOL    HW275618   8.242   4.213   6.283  0.2691 -0.2614  0.4146
25014SOL     OW75619   4.318   4.372   1.991  0.4385  0.4339 -0.0771
25014SOL    HW175620   4.398   4.360   1.940  1.4915  1.7670  1.1858
25014SOL    HW275621   4.250   4.387   1.925  1.0831 -1.2584 -1.1896
25015SOL     OW75622   4.214   0.853   1.293  0.2137 -0.7571  0.4888
25015SOL    HW175623   4.257   0.774   1.324  1.8541  0.4344  1.4361
25015SOL    HW275624   4.285   0.904   1.253 -1.0287 -0.2654 -1.1957
25016SOL     OW75625   9.842   2.982   9.789 -0.0312 -0.4799  0.1616
25016SOL    HW175626   9.831   2.910   9.851  0.4136 -1.5675 -0.9807
25016SOL    HW275627   9.753   3.012   9.770 -0.1926 -0.4116  0.9851
25017SOL     OW75628   4.264   0.726   7.310 -0.5913 -0.9132 -0.0324
25017SOL    HW175629   4.216   0.785   7.251 -1.1199 -2.0679 -0.7954
25017SOL    HW275630   4.355   0.732   7.282 -0.6061 -0.2861  0.0496
25018SOL     OW75631   5.183   7.384   4.705 -0.3355 -0.1112 -0.5181
25018SOL    HW175632   5.250   7.338   4.756 -1.2154  0.4370  1.2043
25018SOL    HW275633   5.144   7.316   4.650  1.0978 -0.5827 -0.9943
25019SOL     OW75634   5.776   2.223   2.417 -0.5937 -0.0687  0.4895
25019SOL    HW175635   5.710   2.197   2.482 -1.3858 -1.1633 -0.6995
25019SOL    HW275636   5.842   2.269   2.468  0.3833 -3.4972  2.6523
25020SOL     OW75637   8.545   9.276   6.958 -0.2258  0.1953  0.2874
25020SOL    HW175638   8.621   9.217   6.953 -0.6726 -0.3736  0.2005
25020SOL    HW275639   8.583   9.364   6.954  0.5684 -0.0466  1.7308
25021SOL     OW75640   2.042   4.019   3.781  0.0169  0.5168 -0.2870
25021SOL    HW175641   2.094   4.076   3.725  0.2629 -0.0093 -0.6033
25021SOL    HW275642   2.027   4.071   3.860  2.8618 -0.0313  0.7606
25022SOL     OW75643   3.423   5.485   5.448  0.3776  0.4415  0.4267
25022SOL    HW175644   3.475   5.424   5.395 -0.7510 -0.5379  0.4198
25022SOL    HW275645   3.464   5.570   5.433 -0.6504  0.4578 -3.0792
25023SOL     OW75646   4.790   7.977   0.333  0.1655  0.0805 -0.8035
25023SOL    HW175647   4.765   7.939   0.250 -0.4710  1.2230 -1.1587
25023SOL    HW275648   4.740   7.929   0.399  0.7093 -0.8567 -1.0532
25024SOL     OW75649   5.503   0.833   1.696 -0.3558 -0.5176 -0.0344
25024SOL    HW175650   5.427   0.778   1.679  0.2421 -0.3222 -4.1900
25024SOL    HW275651   5.469   0.903   1.752 -2.8896 -1.1763 -0.6174
25025SOL     OW75652   0.714   1.919   5.651 -0.6779 -1.0542 -0.5514
25025SOL    HW175653   0.673   1.870   5.722  1.1689 -0.1340  1.2680
25025SOL    HW275654   0.728   2.006   5.687 -3.5380  0.9318 -3.5354
25026SOL     OW75655   4.693   9.486   6.633 -0.1906  0.0191  0.0748
25026SOL    HW175656   4.786   9.509   6.633 -0.3815  0.9531  1.6471
25026SOL    HW275657   4.649   9.567   6.660 -1.5787 -0.0564 -1.8308
25027SOL     OW75658   7.151   4.074   2.161  0.7443  0.0093  0.1434
25027SOL    HW175659   7.147   4.160   2.204  3.1651 -0.4606  1.4591
25027SOL    HW275660   7.236   4.038   2.186  0.4781 -2.1206 -1.6966
25028SOL     OW75661   0.085   8.760   3.197 -1.0735 -0.0662  0.8296
25028SOL    HW175662  -0.006   8.785   3.212 -0.8561 -0.0128  2.2566
25028SOL    HW275663   0.085   8.664   3.198 -1.2750 -0.0929 -0.3738
25029SOL     OW75664   1.398   1.541   5.203 -0.2466  0.3525 -0.1961
25029SOL    HW175665   1.428   1.561   5.291  1.1668  1.9039 -0.9732
25029SOL    HW275666   1.359   1.622   5.171 -0.2173 -0.0057 -1.1929
25030SOL     OW75667   0.942   2.094   2.717  0.0125 -0.3187 -0.3248
25030SOL    HW175668   0.978   2.156   2.781 -0.6871 -0.5010  0.2720
25030SOL    HW275669   0.991   2.110   2.637  1.1346 -0.3011  0.3486
25031SOL     OW75670   8.563   8.718   5.029 -0.7046  0.4083  0.3923
25031SOL    HW175671   8.599   8.799   5.064 -0.4342  0.7881 -0.7239
25031SOL    HW275672   8.520   8.743   4.948  0.9352 -0.7886 -0.9339
25032SOL     OW75673   1.376   7.123   3.974  0.2817 -0.4562 -0.5072
25032SOL    HW175674   1.463   7.162   3.973 -0.5358  1.4936  0.2908
25032SOL    HW275675   1.391   7.030   3.958  2.4999 -0.1592 -0.3778
25033SOL     OW75676   1.472   2.273   2.272 -0.2020  0.3587  0.1538
25033SOL    HW175677   1.513   2.359   2.281 -1.7851  1.1703  0.0477
25033SOL    HW275678   1.408   2.284   2.202  1.4724 -1.6987 -1.8661
25034SOL     OW75679   3.908   9.275   1.559 -0.6953 -0.2074 -0.0893
25034SOL    HW175680   3.946   9.284   1.646 -1.1234 -0.4084  0.1223
25034SOL    HW275681   3.964   9.212   1.515 -0.5248 -0.1672  0.0667
25035SOL     OW75682   8.271   2.925   4.699 -0.2051 -0.3335  0.2399
25035SOL    HW175683   8.308   2.988   4.638 -1.2566  0.7577  0.6954
25035SOL    HW275684   8.190   2.895   4.656 -1.0502  0.5835  1.1449
25036SOL     OW75685   2.221   7.863   3.121  0.6072  0.0809 -0.0266
25036SOL    HW175686   2.268   7.944   3.100  1.0995  0.1908  1.4138
25036SOL    HW275687   2.175   7.841   3.040  0.1048  2.0431 -0.3410
25037SOL     OW75688   6.108   2.315   4.304 -0.1706 -0.3606 -0.1163
25037SOL    HW175689   6.087   2.408   4.312  0.2678 -0.3137  0.5786
25037SOL    HW275690   6.148   2.307   4.218  1.5969  0.4696  0.5855
25038SOL     OW75691   8.015   6.812   0.630  0.3742  0.3211  0.0751
25038SOL    HW175692   8.019   6.741   0.694  0.5099  0.6798  0.4667
25038SOL    HW275693   8.082   6.790   0.566 -0.8334 -0.8884 -0.8394
25039SOL     OW75694   7.839   9.046   4.792  0.4390  0.1694  0.1000
25039SOL    HW175695   7.747   9.055   4.818 -0.3530 -1.9131 -1.6315
25039SOL    HW275696   7.887   9.042   4.874 -1.0978  0.5769  1.0643
25040SOL     OW75697   6.020   5.630   1.860 -0.2578 -0.6450 -0.2629
25040SOL    HW175698   6.016   5.689   1.784 -1.2899 -1.3888 -0.7975
25040SOL    HW275699   5.935   5.586   1.861  0.0314 -1.2045  0.8821
25041SOL     OW75700   2.435   8.539   0.545  0.1726 -0.1086 -0.3838
25041SOL    HW175701   2.379   8.599   0.497  0.1258  0.2130  0.0673
25041SOL    HW275702   2.520   8.583   0.548 -0.0119  0.2156  0.4541
25042SOL     OW75703   3.338   3.034   2.708 -0.1520 -0.0475 -0.2951
25042SOL    HW175704   3.418   3.052   2.758 -0.7077  0.5961  0.3631
25042SOL    HW275705   3.296   2.963   2.756 -0.1153 -0.2086 -0.4983
25043SOL     OW75706   5.183   3.942   4.512  0.5161  0.1799  0.4807
25043SOL    HW175707   5.181   3.916   4.604  0.6077 -1.2433  0.1029
25043SOL    HW275708   5.250   3.886   4.473  0.5095  0.8055 -0.4476
25044SOL     OW75709   6.964   2.501   2.419  0.3338  0.2080 -0.1151
25044SOL    HW175710   6.952   2.411   2.449 -1.2264 -0.5707 -2.7925
25044SOL    HW275711   6.894   2.550   2.463 -0.5356 -0.4628 -0.7091
25045SOL     OW75712   3.884   9.498   3.697 -0.8266  0.1453  0.2793
25045SOL    HW175713   3.857   9.409   3.673 -0.6207  0.0876  0.2644
25045SOL    HW275714   3.804   9.539   3.731 -1.2322  0.3616 -0.8804
25046SOL     OW75715   4.098   2.362   7.273  0.3130 -0.0217  0.3001
25046SOL    HW175716   4.054   2.405   7.347  0.3799  0.7284 -0.0777
25046SOL    HW275717   4.046   2.386   7.197 -0.0811 -1.2598  0.1624
25047SOL     OW75718   2.871   2.140   9.382  0.3496  0.5113 -0.5233
25047SOL    HW175719   2.794   2.166   9.433 -0.0007  0.6856 -1.1242
25047SOL    HW275720   2.933   2.212   9.393  0.7976 -0.0454  0.7017
25048SOL     OW75721   1.493   6.720   3.673  0.1873  0.0970 -0.1799
25048SOL    HW175722   1.572   6.739   3.622  0.2687  1.5103  0.4176
25048SOL    HW275723   1.451   6.647   3.627 -0.3535  2.0013 -2.9617
25049SOL     OW75724   0.057   3.791   2.342  0.5634  0.3461  0.3050
25049SOL    HW175725   0.085   3.715   2.393 -0.5586  0.6726  1.4881
25049SOL    HW275726  -0.018   3.826   2.391  0.3456  1.5460 -0.8188
25050SOL     OW75727   3.324   2.309   6.611 -0.1226  0.1133  0.0266
25050SOL    HW175728   3.257   2.246   6.586  0.6460 -1.1341  1.0000
25050SOL    HW275729   3.407   2.266   6.591  0.4168  0.9192  0.4543
25051SOL     OW75730   0.888   7.198   8.519  0.2375 -0.4844  0.0124
25051SOL    HW175731   0.876   7.177   8.427 -0.7298  0.7514 -0.1655
25051SOL    HW275732   0.979   7.228   8.525 -0.1959  1.1655 -0.9286
25052SOL     OW75733   1.144   4.296   6.915 -0.7599 -0.0526 -0.2478
25052SOL    HW175734   1.098   4.364   6.963 -0.4150  0.3144 -0.4316
25052SOL    HW275735   1.182   4.240   6.984 -1.1015 -0.1000 -0.0985
25053SOL     OW75736   2.564   2.453   1.619  0.0785  0.1668 -0.1369
25053SOL    HW175737   2.627   2.483   1.685  0.2202 -1.4952  0.5275
25053SOL    HW275738   2.618   2.416   1.549 -0.0957  1.3446 -0.9210
25054SOL     OW75739   0.642   8.156   7.660 -0.8026  0.7413  0.8646
25054SOL    HW175740   0.658   8.084   7.722  0.1613 -0.3421 -0.5699
25054SOL    HW275741   0.686   8.231   7.699  1.2791 -0.3411  0.7333
25055SOL     OW75742   4.600   7.693   5.175  0.1792 -0.0483 -0.3463
25055SOL    HW175743   4.526   7.683   5.234  1.0832 -0.4579  0.7442
25055SOL    HW275744   4.652   7.764   5.213 -1.1534  2.4387 -2.7471
25056SOL     OW75745   1.330   8.110   5.652  0.0389 -0.1329  0.5823
25056SOL    HW175746   1.423   8.110   5.676 -0.0215 -0.7122  0.8367
25056SOL    HW275747   1.285   8.080   5.731 -0.2405 -1.2664  0.0013
25057SOL     OW75748   8.385   6.462   7.656 -0.2149 -0.0006  0.0923
25057SOL    HW175749   8.363   6.425   7.741  0.6159 -0.8156 -0.0415
25057SOL    HW275750   8.366   6.392   7.593  0.7320  0.0132 -0.2261
25058SOL     OW75751   2.473   7.505   7.728 -0.0089  0.0601  0.2700
25058SOL    HW175752   2.400   7.507   7.666 -0.0827 -1.2877  0.2728
25058SOL    HW275753   2.530   7.577   7.701 -0.6567  0.2700 -0.5853
25059SOL     OW75754   6.056   8.923   4.663 -0.6703 -0.5134 -0.1411
25059SOL    HW175755   6.025   9.010   4.688 -0.0213 -0.6072  1.0658
25059SOL    HW275756   6.098   8.935   4.578 -0.5236  0.3578  0.0510
25060SOL     OW75757   4.826   9.700   5.721 -0.7300  0.2348 -0.3181
25060SOL    HW175758   4.918   9.675   5.731 -0.7588  0.2794  0.0918
25060SOL    HW275759   4.777   9.627   5.758 -0.8059  1.0242  1.2114
25061SOL     OW75760   2.775   8.973   8.188 -0.9179  0.1874 -0.0429
25061SOL    HW175761   2.761   8.882   8.213 -0.1980  0.2104  0.5016
25061SOL    HW275762   2.712   9.022   8.240 -2.5887 -0.1155 -1.6781
25062SOL     OW75763   8.552   4.909   0.152  0.3843  0.2409  0.0011
25062SOL    HW175764   8.645   4.905   0.176  0.2118  0.4328  0.7305
25062SOL    HW275765   8.522   4.993   0.188 -0.2605 -0.1885  0.4929
25063SOL     OW75766   7.586   1.111   7.940 -0.0730 -0.0016 -0.9549
25063SOL    HW175767   7.546   1.162   7.870  0.7912  0.4776 -1.1239
25063SOL    HW275768   7.680   1.113   7.920  0.1169 -0.4265 -0.1527
25064SOL     OW75769   5.041   5.633   2.476 -0.0375  0.1200  0.0709
25064SOL    HW175770   4.973   5.628   2.409 -1.1313  3.0420  0.8132
25064SOL    HW275771   5.046   5.545   2.512 -2.0428 -0.6439 -1.3564
25065SOL     OW75772   3.476   9.477   2.999 -0.3743 -0.2951  0.1526
25065SOL    HW175773   3.493   9.562   3.040  0.9937  0.7438 -2.3729
25065SOL    HW275774   3.553   9.461   2.945 -1.8877 -1.7248 -1.7086
25066SOL     OW75775   3.656   9.284   9.583  0.6046 -0.1867 -0.4374
25066SOL    HW175776   3.650   9.195   9.548  0.3591 -0.2682 -0.1899
25066SOL    HW275777   3.748   9.309   9.570  0.5433 -0.2531 -1.0397
25067SOL     OW75778   8.626   3.102   8.949 -0.2269  0.8322  0.2372
25067SOL    HW175779   8.568   3.136   9.017 -0.2229  0.6856  0.3136
25067SOL    HW275780   8.577   3.029   8.911 -0.3983  1.1604 -0.1837
25068SOL     OW75781   8.749   8.783   6.983  0.3513  0.1682 -0.0918
25068SOL    HW175782   8.822   8.740   7.028 -0.8534 -0.1492  1.6165
25068SOL    HW275783   8.758   8.875   7.005  0.2343  0.1253  0.1409
25069SOL     OW75784   3.590   7.556   5.209 -0.4394 -0.0617 -0.2706
25069SOL    HW175785   3.614   7.572   5.118 -0.2567  0.4337 -0.1414
25069SOL    HW275786   3.578   7.644   5.246  0.3269 -0.2234  0.4017
25070SOL     OW75787   2.200   2.045   9.187 -0.1184  0.2774  0.1213
25070SOL    HW175788   2.115   2.001   9.186 -0.7089  1.3951 -0.0167
25070SOL    HW275789   2.237   2.026   9.100 -0.2085 -0.2102  0.1823
25071SOL     OW75790   8.412   8.216   1.206  0.1758 -0.3247  0.3457
25071SOL    HW175791   8.435   8.164   1.283  0.9322  0.7765  0.8995
25071SOL    HW275792   8.496   8.243   1.169 -0.1762 -0.8422 -0.8938
25072SOL     OW75793   2.029   6.226   0.487  0.2302  0.6859 -0.2688
25072SOL    HW175794   2.022   6.257   0.397 -1.9431  0.9816 -0.0495
25072SOL    HW275795   2.070   6.298   0.535  0.4410  0.9394 -0.8266
25073SOL     OW75796   6.012   5.278   0.553  0.3812 -0.0828 -0.3803
25073SOL    HW175797   5.918   5.291   0.549  0.4292  0.6310  0.3758
25073SOL    HW275798   6.039   5.265   0.462 -0.2398  1.3993 -0.8144
25074SOL     OW75799   6.738   2.349   6.313 -0.1854  0.4234 -0.2990
25074SOL    HW175800   6.734   2.397   6.396  1.5476 -0.4695  0.3632
25074SOL    HW275801   6.706   2.261   6.335  0.7519  0.0393 -0.4313
25075SOL     OW75802   2.707   0.714   8.303  0.2306 -0.2990  0.1113
25075SOL    HW175803   2.722   0.621   8.289 -0.7597 -0.3992 -0.3219
25075SOL    HW275804   2.613   0.726   8.289  0.2214  0.6360  0.8729
25076SOL     OW75805   1.231   7.288   7.861  0.1735  0.0995 -0.5149
25076SOL    HW175806   1.286   7.232   7.915 -0.8228 -1.2981 -0.8623
25076SOL    HW275807   1.178   7.338   7.923  1.8626  1.5399 -0.1818
25077SOL     OW75808   2.910   6.899   2.526  0.1483  0.0363 -0.3330
25077SOL    HW175809   2.942   6.972   2.474  0.6838 -0.1973 -0.3357
25077SOL    HW275810   2.955   6.822   2.491 -0.5459 -0.3244 -0.4476
25078SOL     OW75811   9.097   2.018   0.802  0.0293  0.5827  0.1369
25078SOL    HW175812   9.015   2.050   0.765  0.6308  0.8829 -0.9605
25078SOL    HW275813   9.161   2.027   0.732  0.4430 -2.2036  0.0352
25079SOL     OW75814   1.165   9.790   0.167 -0.1671  0.3472  0.0670
25079SOL    HW175815   1.105   9.822   0.099 -2.4038 -0.2977  1.6264
25079SOL    HW275816   1.217   9.866   0.191  1.1149  0.4736 -2.6895
25080SOL     OW75817   8.554   8.177   2.812  0.1813 -0.5337 -0.4134
25080SOL    HW175818   8.524   8.196   2.723  3.3730  1.8391 -1.1905
25080SOL    HW275819   8.641   8.139   2.799  0.7814  0.0240  1.6764
25081SOL     OW75820   3.861   9.181   5.699 -0.2394 -0.2738 -0.1097
25081SOL    HW175821   3.790   9.117   5.706  0.0195 -0.4497  1.2383
25081SOL    HW275822   3.930   9.135   5.650 -0.7388 -0.3758 -0.7297
25082SOL     OW75823   0.284   1.015   9.780 -0.1849  0.2552 -0.3485
25082SOL    HW175824   0.316   1.065   9.855 -1.2909  1.7744 -0.8485
25082SOL    HW275825   0.338   1.046   9.707  2.2768 -2.6427  0.0363
25083SOL     OW75826   7.254   9.953   9.915 -0.2280  0.4626 -0.1269
25083SOL    HW175827   7.291   9.866   9.897  1.2993  1.0115  0.2343
25083SOL    HW275828   7.162   9.946   9.888 -0.5621 -1.7403  1.3213
25084SOL     OW75829   5.475   0.513   9.201  0.5773 -0.2208  0.1672
25084SOL    HW175830   5.421   0.566   9.260 -0.3581  0.0195 -0.8704
25084SOL    HW275831   5.471   0.559   9.117 -0.2191 -1.8780 -0.7483
25085SOL     OW75832   3.202   5.408   7.795 -0.4923  0.3543  0.0915
25085SOL    HW175833   3.236   5.496   7.780  0.9394 -0.0798  0.6720
25085SOL    HW275834   3.269   5.349   7.760 -1.9062 -0.5375 -1.2971
25086SOL     OW75835   6.343   1.756   4.893  0.2839 -0.2098 -0.1375
25086SOL    HW175836   6.258   1.726   4.926  0.6932 -2.6053 -1.0602
25086SOL    HW275837   6.360   1.838   4.940 -1.7619 -0.5348  1.2720
25087SOL     OW75838   5.980   8.846   9.701 -0.3243 -0.1128 -0.2039
25087SOL    HW175839   6.023   8.795   9.632  0.4861  0.7005 -0.3132
25087SOL    HW275840   5.982   8.788   9.777 -0.8903 -0.8726 -0.7535
25088SOL     OW75841   8.390   3.884   2.961 -0.2846  0.0281 -0.2749
25088SOL    HW175842   8.425   3.825   3.027 -1.0791 -0.3555 -0.1834
25088SOL    HW275843   8.303   3.907   2.992 -0.0423  1.1522 -0.3805
25089SOL     OW75844   4.698   4.612   8.350 -0.1911 -0.1679 -1.2178
25089SOL    HW175845   4.741   4.558   8.417 -2.2330 -0.3070  0.0937
25089SOL    HW275846   4.749   4.598   8.271  0.9764 -1.8481 -0.2304
25090SOL     OW75847   8.071   0.608   5.366 -0.5401 -0.6323 -0.1854
25090SOL    HW175848   8.137   0.539   5.373 -1.8571 -1.9257 -0.0856
25090SOL    HW275849   7.990   0.567   5.395 -1.5457  0.7023 -0.9867
25091SOL     OW75850   3.989   2.663   5.844 -0.5168  0.0922  0.3094
25091SOL    HW175851   4.015   2.702   5.927  0.5724 -0.3049  0.1750
25091SOL    HW275852   3.938   2.731   5.800  0.9085  1.1907  0.2903
25092SOL     OW75853   9.534   0.837   6.228  0.1149  0.9693 -0.0433
25092SOL    HW175854   9.570   0.870   6.310  0.5274  0.3876  0.0181
25092SOL    HW275855   9.516   0.915   6.176  0.9391  1.2896  0.1483
25093SOL     OW75856   3.762   4.067   0.811 -0.2383  0.0615 -0.4883
25093SOL    HW175857   3.760   4.045   0.718  0.2592 -2.3761  0.0035
25093SOL    HW275858   3.730   3.988   0.854  0.0816  0.9454  1.4446
25094SOL     OW75859   2.706   1.376   7.411  0.2873  0.3401 -0.3307
25094SOL    HW175860   2.771   1.375   7.481 -0.4281 -2.9121  0.4676
25094SOL    HW275861   2.648   1.449   7.433 -0.2250 -0.8529  2.9308
25095SOL     OW75862   1.703   5.710   7.312 -0.3454 -0.1262  0.1490
25095SOL    HW175863   1.642   5.766   7.361  0.9745  0.4122  1.2538
25095SOL    HW275864   1.755   5.772   7.259 -1.2151 -0.6370 -1.3549
25096SOL     OW75865   8.417   6.200   6.770  0.1038 -0.6314 -0.6814
25096SOL    HW175866   8.345   6.141   6.749 -0.4538  0.3698 -1.6880
25096SOL    HW275867   8.416   6.265   6.700  1.7195 -0.3495 -0.4731
25097SOL     OW75868   3.163   9.733   3.129 -0.2775 -0.3675  0.3976
25097SOL    HW175869   3.208   9.713   3.212  0.1066 -0.7386  0.1024
25097SOL    HW275870   3.086   9.785   3.156 -0.1652 -0.4927  0.9866
25098SOL     OW75871   3.976   4.507   0.051  0.0485 -0.3465  0.0056
25098SOL    HW175872   3.947   4.537   0.137 -0.7306 -1.8394  0.2875
25098SOL    HW275873   4.045   4.444   0.069  1.2964  0.7966 -0.5637
25099SOL     OW75874   0.802   7.335   5.948 -0.0318 -0.3211  0.3735
25099SOL    HW175875   0.847   7.404   5.996 -2.6784  0.6551  1.6215
25099SOL    HW275876   0.861   7.259   5.955  2.5282  1.4654 -0.2866
25100SOL     OW75877   9.001   0.690   0.133  0.1124 -0.2542  0.2352
25100SOL    HW175878   8.954   0.660   0.055  0.4276 -2.5933  0.8847
25100SOL    HW275879   9.074   0.629   0.143  2.4641  2.3518  0.1642
25101SOL     OW75880   9.842   1.850   9.782 -0.4370 -0.4751  0.2259
25101SOL    HW175881   9.919   1.864   9.726 -0.1880  1.0516  0.8897
25101SOL    HW275882   9.768   1.878   9.727 -0.2844  0.1432  0.3238
25102SOL     OW75883   3.649   0.771   5.405  0.2387  0.3242 -0.5347
25102SOL    HW175884   3.706   0.846   5.422  0.3174  0.2861 -0.6298
25102SOL    HW275885   3.679   0.736   5.321 -0.0221  0.3933 -0.6583
25103SOL     OW75886   0.613   2.609   2.483 -0.0022 -0.2473 -0.7069
25103SOL    HW175887   0.706   2.619   2.505  0.1813 -1.1402 -1.0544
25103SOL    HW275888   0.612   2.542   2.415 -0.7323  1.0343 -2.0225
25104SOL     OW75889   8.173   6.746   3.721 -0.0674 -0.5286  0.1735
25104SOL    HW175890   8.214   6.777   3.640 -0.0699 -2.0419 -0.4438
25104SOL    HW275891   8.159   6.826   3.773 -0.5887  0.5617 -1.5458
25105SOL     OW75892   6.561   8.819   4.907  0.6825  0.1061  0.2071
25105SOL    HW175893   6.615   8.897   4.917 -0.2392  0.5865  2.0155
25105SOL    HW275894   6.493   8.845   4.845  1.7907 -0.1038 -1.1239
25106SOL     OW75895   1.275   6.730   1.336 -0.5947  0.0640  0.3727
25106SOL    HW175896   1.229   6.650   1.363  0.2309 -0.7732 -0.6265
25106SOL    HW275897   1.210   6.780   1.288 -0.2669 -1.6185 -2.0110
25107SOL     OW75898   1.894   3.660   3.701 -0.1332  0.3040  0.2399
25107SOL    HW175899   1.921   3.721   3.632  1.5412  0.0720  0.6345
25107SOL    HW275900   1.807   3.691   3.728 -0.1040  1.3929 -0.8296
25108SOL     OW75901   9.818   6.538   1.967 -0.1340  0.2104 -0.0386
25108SOL    HW175902   9.757   6.612   1.961 -1.1021 -0.4931  0.7613
25108SOL    HW275903   9.865   6.552   2.049 -0.4234 -0.1437  0.1866
25109SOL     OW75904   6.310   4.130   2.780  0.0425 -0.4359  0.1689
25109SOL    HW175905   6.331   4.081   2.859  1.1077 -0.7615 -0.2980
25109SOL    HW275906   6.291   4.063   2.715 -1.3305 -0.1635  0.2607
25110SOL     OW75907   8.275   5.873   3.523  0.5120  0.1355  0.2697
25110SOL    HW175908   8.205   5.854   3.460  1.0127  1.1193 -0.6206
25110SOL    HW275909   8.235   5.933   3.586  0.2112 -0.2855  0.4854
25111SOL     OW75910   5.391   9.488   0.226 -0.0333  0.2119 -0.2881
25111SOL    HW175911   5.358   9.444   0.148 -2.5855  0.1169  0.7461
25111SOL    HW275912   5.449   9.557   0.193 -0.2121 -0.4989 -2.1815
25112SOL     OW75913   9.912   4.852   4.312  0.3178 -0.6839 -0.3651
25112SOL    HW175914   9.994   4.901   4.308  1.2153 -2.1278 -0.3525
25112SOL    HW275915   9.921   4.783   4.246 -0.4100 -1.5550  0.3988
25113SOL     OW75916   9.588   7.211   6.234 -0.5582 -0.5532  0.0939
25113SOL    HW175917   9.614   7.297   6.199 -2.0839 -0.6749 -1.4343
25113SOL    HW275918   9.632   7.207   6.319  3.1029 -0.0981 -1.5573
25114SOL     OW75919   5.366   1.394   1.729 -0.0516 -0.6564  0.0862
25114SOL    HW175920   5.274   1.377   1.709  0.3062 -1.5874 -0.8571
25114SOL    HW275921   5.393   1.320   1.783 -0.3934  0.6891  2.2201
25115SOL     OW75922   1.279   9.516   5.313 -0.1021 -0.4856  0.1832
25115SOL    HW175923   1.314   9.592   5.266 -0.3539  0.3990  1.3637
25115SOL    HW275924   1.193   9.501   5.275 -0.2026  0.0560  0.1936
25116SOL     OW75925   0.406   1.056   1.262  0.7906  0.3432  0.2700
25116SOL    HW175926   0.367   1.094   1.341 -0.0782  0.4961 -0.2111
25116SOL    HW275927   0.360   1.099   1.190  1.5726  0.2047 -0.3204
25117SOL     OW75928   6.465   2.891   3.499  0.3181  0.2948  0.1755
25117SOL    HW175929   6.502   2.824   3.556  0.7289  1.6225  1.5208
25117SOL    HW275930   6.371   2.890   3.519 -0.1335 -1.5468 -1.6406
25118SOL     OW75931   0.145   7.424   9.364 -0.2173  0.4849 -0.3333
25118SOL    HW175932   0.223   7.441   9.312 -0.0320  0.2353 -0.1440
25118SOL    HW275933   0.161   7.470   9.447  0.1172 -0.2631  0.0337
25119SOL     OW75934   3.346   3.385   6.601 -0.2467 -0.5130  0.1099
25119SOL    HW175935   3.296   3.435   6.536 -0.2118  0.1290  0.5732
25119SOL    HW275936   3.299   3.399   6.683 -0.2495 -1.2628  0.2476
25120SOL     OW75937   5.767   5.616   2.568  0.3995  0.4380 -0.1323
25120SOL    HW175938   5.733   5.602   2.479 -1.3146  0.8033  0.4237
25120SOL    HW275939   5.862   5.616   2.558  0.2343  1.0117 -2.0432
25121SOL     OW75940   6.250   2.582   7.208 -0.2270 -0.1637  0.1286
25121SOL    HW175941   6.187   2.523   7.168  0.1537 -1.7716  1.7513
25121SOL    HW275942   6.319   2.591   7.143 -0.6575 -0.8945 -0.4505
25122SOL     OW75943   2.092   6.970   1.800  0.5923  0.1997 -0.4005
25122SOL    HW175944   2.026   6.923   1.749 -0.0794  0.3549  0.3175
25122SOL    HW275945   2.071   7.062   1.787 -0.2814  0.2278  1.0419
25123SOL     OW75946   9.039   7.215   3.818 -0.2599  0.1275 -0.3696
25123SOL    HW175947   8.961   7.263   3.848 -0.3646  0.6832 -1.4669
25123SOL    HW275948   9.112   7.268   3.850 -0.3600  0.4355 -0.6437
25124SOL     OW75949   1.020   4.262   8.345  0.0346 -0.0126  0.2652
25124SOL    HW175950   0.938   4.234   8.385 -1.0193  0.5297 -1.4204
25124SOL    HW275951   1.018   4.357   8.351  0.4339  0.0114  0.0345
25125SOL     OW75952   3.173   3.031   0.850  0.2229  0.9442 -0.2799
25125SOL    HW175953   3.215   3.083   0.782 -1.6786  3.0313  0.0160
25125SOL    HW275954   3.110   2.976   0.802 -0.5647  1.8422 -0.2906
25126SOL     OW75955   5.947   0.435   9.371  0.5597 -0.4956  0.4814
25126SOL    HW175956   5.984   0.425   9.459  1.3423 -0.1027  0.2090
25126SOL    HW275957   6.021   0.419   9.312  0.3889  0.6234 -0.0755
25127SOL     OW75958   4.660   3.098   1.599 -0.0572  0.1428 -0.4115
25127SOL    HW175959   4.730   3.162   1.599  0.0953  0.0612  1.7702
25127SOL    HW275960   4.654   3.068   1.508  1.5900  1.3470 -0.9604
25128SOL     OW75961   3.285   8.515   1.249  0.1913  0.2201 -0.7813
25128SOL    HW175962   3.193   8.532   1.271  0.6730  1.8317  0.0987
25128SOL    HW275963   3.315   8.594   1.205  1.7208  0.5691  0.7904
25129SOL     OW75964   8.325   0.190   0.079  0.4536  0.2939 -0.3900
25129SOL    HW175965   8.268   0.122   0.114  0.9072 -0.4533 -1.0599
25129SOL    HW275966   8.334   0.253   0.150  1.0863 -1.0124  0.7326
25130SOL     OW75967   7.907   8.923   1.742  0.2402  0.0608  0.0835
25130SOL    HW175968   7.870   9.009   1.721 -0.8204  0.2028  2.2321
25130SOL    HW275969   7.937   8.931   1.832  0.8287 -1.6072  0.0746
25131SOL     OW75970   3.457   5.086   4.490 -0.0629  0.2518  0.2101
25131SOL    HW175971   3.470   5.174   4.455  0.0727  0.6399  1.2173
25131SOL    HW275972   3.495   5.028   4.424  0.9841  1.0211  0.1137
25132SOL     OW75973   6.302   6.408   8.388 -0.6594 -0.3494  0.2410
25132SOL    HW175974   6.297   6.448   8.301 -2.5848 -0.3056  0.3361
25132SOL    HW275975   6.396   6.392   8.401 -0.1893  0.8630 -1.2726
25133SOL     OW75976   6.652   6.444   0.933  0.3919  0.2304 -0.0201
25133SOL    HW175977   6.723   6.492   0.889  1.5707 -0.2114  1.3366
25133SOL    HW275978   6.688   6.357   0.950 -1.2994 -0.7904 -1.3293
25134SOL     OW75979   1.883   3.477   6.920 -0.1997 -0.3178  0.5493
25134SOL    HW175980   1.906   3.565   6.949 -0.1715  0.4285 -1.6020
25134SOL    HW275981   1.961   3.446   6.873 -1.3835 -0.0616 -1.7320
25135SOL     OW75982   7.943   7.206   2.464  0.5009  0.2315 -0.2275
25135SOL    HW175983   7.857   7.214   2.505  0.3684 -2.0270  0.0192
25135SOL    HW275984   7.924   7.181   2.374  0.8901 -1.0037  0.0192
25136SOL     OW75985   6.583   1.271   7.378  0.0064 -0.0306 -0.0198
25136SOL    HW175986   6.589   1.203   7.445 -0.3184 -0.8269 -0.7772
25136SOL    HW275987   6.549   1.347   7.425 -4.0015 -1.6204  0.0770
25137SOL     OW75988   8.112   0.284   3.043 -0.8558 -0.2700  0.3482
25137SOL    HW175989   8.077   0.295   2.955  1.6905 -0.3437 -0.7597
25137SOL    HW275990   8.035   0.269   3.098 -2.6280  1.0281 -1.6262
25138SOL     OW75991   7.523   2.255   5.480  0.1828 -0.3462  0.0421
25138SOL    HW175992   7.542   2.185   5.417  2.9095 -0.8640  1.3143
25138SOL    HW275993   7.588   2.322   5.461 -0.1052  0.2613  1.1652
25139SOL     OW75994   0.329   5.951   8.296  0.1999  0.0976 -0.6064
25139SOL    HW175995   0.420   5.930   8.315 -0.1403 -0.8292  0.0374
25139SOL    HW275996   0.322   5.942   8.201  0.5088 -0.9765 -0.5410
25140SOL     OW75997   7.904   2.171   8.145 -0.1937  0.4201  0.0423
25140SOL    HW175998   7.893   2.091   8.197  2.7356  0.8021  1.4809
25140SOL    HW275999   7.825   2.222   8.163 -1.4036 -1.4607  0.3387
25141SOL     OW76000   3.183   2.718   2.532 -0.1363 -0.1451  0.1534
25141SOL    HW176001   3.199   2.653   2.600  1.4789  0.7251  0.6366
25141SOL    HW276002   3.267   2.760   2.518 -1.4310  3.0850  1.1299
25142SOL     OW76003   5.783   3.692   6.372 -0.7126  1.0626  0.0324
25142SOL    HW176004   5.811   3.752   6.440 -0.6358 -1.7428  2.7195
25142SOL    HW276005   5.705   3.649   6.408 -1.1365 -0.0289 -1.9899
25143SOL     OW76006   4.189   9.390   7.665  0.0506  0.0847  0.0313
25143SOL    HW176007   4.192   9.302   7.629 -0.4509  0.3017 -0.5532
25143SOL    HW276008   4.279   9.422   7.660  0.7437 -1.2452  2.4365
25144SOL     OW76009   1.618   1.514   5.830  0.3870 -0.1823  0.3422
25144SOL    HW176010   1.689   1.539   5.771 -0.6619 -1.0166 -1.3568
25144SOL    HW276011   1.538   1.541   5.784 -0.5104 -1.7382  0.8984
25145SOL     OW76012   2.801   2.406   9.009  0.3441 -0.1895  0.4561
25145SOL    HW176013   2.773   2.495   8.989  0.1723 -0.6436 -1.5228
25145SOL    HW276014   2.875   2.390   8.950  1.2015 -0.9559  1.6713
25146SOL     OW76015   3.523   8.778   1.075  0.1804 -0.3276 -0.2202
25146SOL    HW176016   3.557   8.709   1.018 -0.6674 -1.0666  0.1412
25146SOL    HW276017   3.429   8.762   1.078  0.0831  0.3528  0.5274
25147SOL     OW76018   2.971   0.415   9.948  0.2863 -0.2258  0.2883
25147SOL    HW176019   2.957   0.349  10.016  0.5942 -0.1366  0.4376
25147SOL    HW276020   2.932   0.376   9.869  0.2852 -0.4984  0.4216
25148SOL     OW76021   8.028   7.881   9.226 -0.1136 -0.4285  0.1284
25148SOL    HW176022   8.021   7.909   9.317 -1.2132 -0.2251 -0.0013
25148SOL    HW276023   8.120   7.898   9.202  0.2643 -0.7998  1.2843
25149SOL     OW76024   9.549   0.253   3.025 -0.5241 -0.0649 -0.2054
25149SOL    HW176025   9.532   0.159   3.032 -2.0138  0.2048  0.2992
25149SOL    HW276026   9.472   0.294   3.065  0.0467  1.3735 -0.5112
25150SOL     OW76027   4.062   1.105   5.417 -0.7369 -0.7735 -0.7108
25150SOL    HW176028   4.036   1.192   5.448 -2.6728 -1.9091  1.1645
25150SOL    HW276029   4.023   1.099   5.329  0.2640  0.5481 -1.2958
25151SOL     OW76030   4.621   3.781   5.401 -0.2140 -0.2785  0.3244
25151SOL    HW176031   4.673   3.858   5.428 -0.2853 -0.3535  0.6807
25151SOL    HW276032   4.687   3.717   5.374 -0.1971  0.5704 -1.8384
25152SOL     OW76033   0.489   0.829   6.796 -0.2132 -0.2441 -0.1579
25152SOL    HW176034   0.486   0.800   6.888 -1.3018 -0.3178 -0.2007
25152SOL    HW276035   0.477   0.924   6.801 -0.0970 -0.2259 -0.2185
25153SOL     OW76036   2.930   5.613   8.646  0.1963  0.1011  0.1093
25153SOL    HW176037   2.864   5.672   8.684 -1.0936 -1.0432 -0.2670
25153SOL    HW276038   2.994   5.601   8.717 -0.1383  1.0044  0.5871
25154SOL     OW76039   8.474   3.554   1.400  0.8243  0.4546 -0.2865
25154SOL    HW176040   8.380   3.557   1.384  0.8143  0.6488 -0.1851
25154SOL    HW276041   8.489   3.466   1.436  0.5523  0.7438  0.5469
25155SOL     OW76042   7.962   4.064   7.781 -0.0362 -0.4696  0.1658
25155SOL    HW176043   8.028   4.128   7.755 -1.9358  1.1800 -0.8658
25155SOL    HW276044   7.954   4.005   7.706 -0.3089 -0.1589 -0.0533
25156SOL     OW76045   9.603   6.077   5.504 -0.4161 -0.1678  0.2645
25156SOL    HW176046   9.680   6.103   5.554  0.0170  1.3493 -1.1074
25156SOL    HW276047   9.614   5.983   5.491 -0.3219 -0.5381  2.5549
25157SOL     OW76048   1.981   4.038   1.475 -0.0859 -0.2205 -0.4292
25157SOL    HW176049   2.068   4.003   1.494 -0.2318  0.2470  1.3029
25157SOL    HW276050   1.995   4.100   1.403  1.2708  0.8523  0.7015
25158SOL     OW76051   5.913   2.489   7.811 -0.7198 -0.0323  0.6593
25158SOL    HW176052   5.927   2.578   7.841  0.0691  0.1106 -0.0929
25158SOL    HW276053   5.886   2.440   7.889 -0.4863  0.7086  1.2064
25159SOL     OW76054   6.533   7.895   2.128 -0.0462  0.0042  0.1258
25159SOL    HW176055   6.476   7.829   2.088  3.0482 -2.5390 -0.4905
25159SOL    HW276056   6.507   7.896   2.220 -1.8808 -0.1123 -0.3486
25160SOL     OW76057   6.353   9.197   7.401  0.0558  0.1546  0.4134
25160SOL    HW176058   6.389   9.120   7.357  0.5695  0.3106  0.5488
25160SOL    HW276059   6.262   9.202   7.372  0.4339  0.3687 -0.7864
25161SOL     OW76060   4.570   4.694   2.723 -0.0138  0.5458  0.0847
25161SOL    HW176061   4.616   4.615   2.754 -1.6740 -0.4589  0.0967
25161SOL    HW276062   4.492   4.698   2.778 -1.5115  0.4341 -1.9528
25162SOL     OW76063   0.422   6.096   6.878  0.1319 -0.0737  0.4444
25162SOL    HW176064   0.341   6.094   6.825  0.8386 -4.0085 -0.8694
25162SOL    HW276065   0.394   6.070   6.965 -0.0918 -1.9910 -0.1367
25163SOL     OW76066   3.165   0.238   1.316  0.2571  0.8416  0.0584
25163SOL    HW176067   3.219   0.300   1.366  0.2890 -0.3745  1.6240
25163SOL    HW276068   3.228   0.179   1.275  0.2049 -0.5642  1.8673
25164SOL     OW76069   2.310   7.836   4.042 -0.0652  0.3355 -0.2386
25164SOL    HW176070   2.387   7.878   4.003  0.6706 -0.4261  0.3486
25164SOL    HW276071   2.309   7.868   4.132 -0.5178  0.4437 -0.2806
25165SOL     OW76072   2.286   6.936   2.190  0.3514 -0.3461 -0.6175
25165SOL    HW176073   2.316   7.008   2.246 -0.1854 -0.5935  0.0002
25165SOL    HW276074   2.274   6.975   2.104 -1.2313  0.6233  0.0140
25166SOL     OW76075   5.688   3.798   2.307  0.4360  0.1692 -0.7488
25166SOL    HW176076   5.782   3.816   2.315  1.1748 -3.0483 -1.0072
25166SOL    HW276077   5.682   3.728   2.243 -1.8346 -1.7546  1.3484
25167SOL     OW76078   7.150   6.231   0.501  0.7653  0.3238 -0.0614
25167SOL    HW176079   7.214   6.187   0.444  1.7954 -0.0250  1.2894
25167SOL    HW276080   7.130   6.166   0.568 -0.5168  0.6784 -0.0891
25168SOL     OW76081   4.393   4.230   0.601 -0.5246  0.1585  0.5287
25168SOL    HW176082   4.357   4.260   0.518 -0.2881 -0.2413  0.2796
25168SOL    HW276083   4.467   4.174   0.577 -0.6140 -0.1677  0.9961
25169SOL     OW76084   2.496   5.989   8.382 -0.5704  0.1266 -0.2357
25169SOL    HW176085   2.540   5.909   8.412 -0.2654  0.1083 -0.7232
25169SOL    HW276086   2.425   6.002   8.445  0.3562  0.3593  0.7909
25170SOL     OW76087   2.033   6.797   5.919 -0.0079 -0.0229 -0.2403
25170SOL    HW176088   2.070   6.737   5.854 -0.2051  0.6363 -0.9794
25170SOL    HW276089   2.098   6.867   5.926  0.0414 -0.1281  0.3236
25171SOL     OW76090   9.093   7.390   0.158  0.1786 -0.3137 -0.3314
25171SOL    HW176091   9.095   7.484   0.177 -0.3607 -0.4998  0.7305
25171SOL    HW276092   9.173   7.355   0.197  0.7758 -0.1924 -1.4099
25172SOL     OW76093   3.505   4.727   6.170 -0.2400 -0.2433 -0.1485
25172SOL    HW176094   3.492   4.790   6.240  0.0875  0.4590 -0.7063
25172SOL    HW276095   3.599   4.722   6.158 -0.1876 -1.7873  0.7188
25173SOL     OW76096   8.052   2.925   8.580 -0.1766 -0.0737 -0.2980
25173SOL    HW176097   8.038   3.017   8.604 -1.1750 -0.1773 -0.4504
25173SOL    HW276098   8.063   2.927   8.485  0.0868 -0.0889 -0.2706
25174SOL     OW76099   1.749   9.089   9.230 -0.2912  0.2036 -0.3181
25174SOL    HW176100   1.756   9.152   9.302  2.3556  0.9121 -1.0753
25174SOL    HW276101   1.726   9.142   9.154  0.5665  0.0587 -0.6896
25175SOL     OW76102   9.782   3.666   2.028 -0.4147  0.0271  0.2869
25175SOL    HW176103   9.851   3.722   1.993 -1.1644  1.3808  0.8971
25175SOL    HW276104   9.828   3.600   2.079  0.4236  1.1327  1.0079
25176SOL     OW76105   8.060   3.493   8.103 -0.0521 -0.1511  0.5285
25176SOL    HW176106   8.110   3.498   8.184 -0.4916 -1.2379  0.8909
25176SOL    HW276107   8.103   3.556   8.045  2.6763 -2.0108  0.3173
25177SOL     OW76108   8.638   1.601   7.681 -0.1010 -0.2852 -0.1162
25177SOL    HW176109   8.568   1.658   7.649  1.8923  1.4448 -1.6540
25177SOL    HW276110   8.613   1.514   7.650 -1.5781  0.2784 -0.5944
25178SOL     OW76111   0.912   5.750   6.697 -0.2170 -0.5653 -0.5255
25178SOL    HW176112   0.944   5.711   6.615  0.9667 -0.9895  0.1202
25178SOL    HW276113   0.918   5.679   6.761 -0.6695 -0.0982  0.0410
25179SOL     OW76114   0.393   5.705   5.647  0.0908  0.3117  0.0686
25179SOL    HW176115   0.448   5.695   5.724 -0.3559  1.3724  0.5507
25179SOL    HW276116   0.312   5.743   5.680 -0.6997 -0.6506 -0.7165
25180SOL     OW76117   7.306   7.254   7.245 -0.1550  0.0581 -0.0685
25180SOL    HW176118   7.332   7.261   7.337 -0.6443  1.9880 -0.0168
25180SOL    HW276119   7.266   7.168   7.237  1.3170 -0.7861  1.1305
25181SOL     OW76120   7.979   5.638   4.366 -0.5183  0.1462  0.2816
25181SOL    HW176121   8.059   5.623   4.416  0.6598  0.6847 -1.3923
25181SOL    HW276122   7.997   5.602   4.279 -1.5221  1.6316 -0.5915
25182SOL     OW76123   3.920   8.474   5.255  0.4838  0.2635  0.0795
25182SOL    HW176124   3.828   8.491   5.274  0.5018  2.1809 -1.3107
25182SOL    HW276125   3.961   8.460   5.340 -0.8278  0.8077  0.8146
25183SOL     OW76126   2.849   8.660   8.549 -0.6605 -0.8995  0.3299
25183SOL    HW176127   2.820   8.682   8.637 -3.5494  0.7187 -0.9071
25183SOL    HW276128   2.789   8.590   8.521 -0.8199 -0.3075 -0.8728
25184SOL     OW76129   3.507   8.188   3.677  0.1299  0.5794  0.0566
25184SOL    HW176130   3.453   8.130   3.730 -0.8146  0.6580 -0.7982
25184SOL    HW276131   3.452   8.211   3.603  1.5048  0.2714 -1.0960
25185SOL     OW76132   5.045   5.035  -0.000  0.5726 -0.6113 -0.4706
25185SOL    HW176133   5.140   5.049   0.001  0.6331 -0.7342 -2.1135
25185SOL    HW276134   5.033   4.946   0.031  1.0493 -0.8326 -0.9170
25186SOL     OW76135   6.902   4.829   9.721 -0.4713  0.2391  0.4796
25186SOL    HW176136   6.816   4.818   9.681  0.0908  2.2462 -1.4794
25186SOL    HW276137   6.886   4.820   9.815 -2.2916 -2.1643  0.0437
25187SOL     OW76138   2.254   1.116   0.992 -0.4510  0.0058 -1.0923
25187SOL    HW176139   2.236   1.109   0.898 -0.5586  0.5745 -1.1166
25187SOL    HW276140   2.349   1.123   0.998 -0.2487 -2.1339 -1.0183
25188SOL     OW76141   5.778   1.452   9.815  0.2424 -0.0963 -0.7612
25188SOL    HW176142   5.728   1.498   9.748  0.6574  1.5632  0.0148
25188SOL    HW276143   5.715   1.433   9.884 -0.0303 -1.1522 -1.2870
25189SOL     OW76144   8.676   6.499   7.555 -0.0485 -0.0201 -0.7745
25189SOL    HW176145   8.598   6.550   7.577 -2.3017 -3.1093 -0.9611
25189SOL    HW276146   8.666   6.477   7.462  0.8646 -0.7510 -0.7183
25190SOL     OW76147   5.622   1.811   6.271  0.3159  0.1793  0.6027
25190SOL    HW176148   5.581   1.896   6.254 -1.6430 -1.0514 -1.4050
25190SOL    HW276149   5.562   1.748   6.230  1.9759 -2.1266  1.5704
25191SOL     OW76150   6.982   7.766   4.889 -0.3802  0.6655  0.4200
25191SOL    HW176151   6.964   7.772   4.795 -1.5849 -1.7419  0.4042
25191SOL    HW276152   6.998   7.856   4.917  3.0365  1.2223 -2.5929
25192SOL     OW76153   6.528   0.620   9.545 -0.0420  0.0223 -0.1192
25192SOL    HW176154   6.617   0.591   9.522  0.6061  1.7353  0.1174
25192SOL    HW276155   6.535   0.651   9.635 -1.4142 -1.8410  0.7009
25193SOL     OW76156   6.929   7.115   0.590 -0.2913  0.4883 -0.2725
25193SOL    HW176157   6.907   7.052   0.522  0.2857  1.2658 -1.2014
25193SOL    HW276158   6.997   7.072   0.643  0.7895  0.6623 -1.4708
25194SOL     OW76159   9.319   0.636   5.869 -0.2671  0.3144  0.4409
25194SOL    HW176160   9.323   0.575   5.942 -0.0989  0.0200  0.1852
25194SOL    HW276161   9.394   0.615   5.814 -0.2632  0.6823  0.2969
25195SOL     OW76162   7.323   8.468   4.293  0.0391  0.1203 -0.1280
25195SOL    HW176163   7.315   8.380   4.330  0.7929 -0.0966 -0.4506
25195SOL    HW276164   7.249   8.476   4.233 -0.6010  0.0876  0.6316
25196SOL     OW76165   4.181   6.557   1.290 -0.5953  0.1698  0.1631
25196SOL    HW176166   4.251   6.492   1.286 -0.1604  0.5895  0.8192
25196SOL    HW276167   4.137   6.541   1.373 -1.8766 -0.6806 -0.6474
25197SOL     OW76168   9.854   1.865   8.007 -0.8765  0.4787 -0.1811
25197SOL    HW176169   9.945   1.842   7.991 -0.5140  0.4980  1.7007
25197SOL    HW276170   9.843   1.950   7.964  0.0239  0.5333 -0.3154
25198SOL     OW76171   9.779   8.877   8.055 -0.2419 -0.2635 -0.5890
25198SOL    HW176172   9.725   8.900   8.131 -0.0773 -1.8470  0.0296
25198SOL    HW276173   9.719   8.883   7.981 -1.1272 -1.3431  0.0097
25199SOL     OW76174   5.930   0.325   8.033  0.4562  0.4252 -0.0332
25199SOL    HW176175   5.902   0.254   7.974  0.6919 -0.6626  1.1206
25199SOL    HW276176   5.995   0.284   8.090 -0.1756  1.3030  1.3508
25200SOL     OW76177   9.890   5.209   4.962  0.2410  0.1801  0.4018
25200SOL    HW176178   9.881   5.241   4.872  2.6061 -0.7023 -0.2353
25200SOL    HW276179   9.830   5.262   5.013  0.8148  2.6068 -1.2814
25201SOL     OW76180   5.367   7.581   9.394  0.4221  0.5012  0.3034
25201SOL    HW176181   5.285   7.532   9.394  1.0484 -0.5766  0.4665
25201SOL    HW276182   5.419   7.540   9.464  1.7118  0.1014 -0.8536
25202SOL     OW76183   6.088   0.173   4.016  0.5796  0.3487  0.1404
25202SOL    HW176184   6.164   0.231   4.014  0.3932  0.5929 -0.0014
25202SOL    HW276185   6.125   0.085   4.022  0.8725  0.4656  0.0904
25203SOL     OW76186   8.850   3.777   6.462 -0.3563  0.1131 -0.9098
25203SOL    HW176187   8.920   3.833   6.493  0.2595 -1.7988  1.4246
25203SOL    HW276188   8.805   3.747   6.541 -2.0611 -0.9283 -2.1848
25204SOL     OW76189   8.711   1.692   9.001  0.2886  0.2511 -0.1618
25204SOL    HW176190   8.716   1.656   8.913 -2.0917 -1.7732  0.3884
25204SOL    HW276191   8.699   1.786   8.989 -1.9728 -0.2062 -2.1491
25205SOL     OW76192   2.485   1.675   5.053 -0.2252 -0.0157  0.5124
25205SOL    HW176193   2.424   1.693   4.981 -2.1863 -1.3092  1.7316
25205SOL    HW276194   2.491   1.757   5.101 -0.0863  0.4421 -0.2808
25206SOL     OW76195   1.368   2.231   7.417 -0.3347 -0.0418  0.3221
25206SOL    HW176196   1.385   2.292   7.345  3.5101  1.3911  2.1648
25206SOL    HW276197   1.316   2.282   7.479  1.0750  0.7282  0.9189
25207SOL     OW76198   5.560   3.849   9.275  0.4931  0.1296 -0.2006
25207SOL    HW176199   5.555   3.757   9.251 -2.4681  0.1245  0.0543
25207SOL    HW276200   5.618   3.888   9.210  0.5362 -1.6176 -1.2732
25208SOL     OW76201   1.211   1.192   7.422  0.3028  0.3195  0.4012
25208SOL    HW176202   1.280   1.209   7.358 -1.4412 -0.8902 -1.9348
25208SOL    HW276203   1.242   1.113   7.469  1.3633  0.9327  0.7825
25209SOL     OW76204   7.729   0.692   2.685  0.4571  0.1849  0.5284
25209SOL    HW176205   7.697   0.602   2.695  0.2098  0.1064 -0.7555
25209SOL    HW276206   7.776   0.710   2.766 -0.2355 -0.7906  1.1689
25210SOL     OW76207   2.544   3.406   9.017  0.1236 -0.0874 -0.9962
25210SOL    HW176208   2.565   3.474   8.953 -0.5992  1.0342 -0.0805
25210SOL    HW276209   2.449   3.411   9.027  0.2930  0.3133  0.7197
25211SOL     OW76210   7.981   3.515   7.246 -0.3127  0.1637 -0.5294
25211SOL    HW176211   8.035   3.438   7.236  0.3729  0.4021  1.0664
25211SOL    HW276212   7.937   3.525   7.161  2.0378 -0.0909 -1.8396
25212SOL     OW76213   7.941   4.966   7.154  0.1666 -0.0895  0.0742
25212SOL    HW176214   7.917   4.970   7.246 -0.3283 -1.9254  0.0647
25212SOL    HW276215   7.975   4.878   7.142  3.0210  1.0190 -0.8744
25213SOL     OW76216   7.748   5.596   5.524 -0.4882  0.1067  0.0317
25213SOL    HW176217   7.764   5.536   5.598 -0.6012  1.0590  0.8475
25213SOL    HW276218   7.687   5.549   5.468  0.9483 -1.3772 -0.3778
25214SOL     OW76219   5.523   6.837   0.242 -0.3544 -0.0484 -0.2285
25214SOL    HW176220   5.582   6.815   0.314  0.7691 -0.3317 -1.1884
25214SOL    HW276221   5.436   6.810   0.272  0.1221 -0.3536  0.9277
25215SOL     OW76222   0.303   5.463   1.235 -0.4099  0.3121  0.2565
25215SOL    HW176223   0.303   5.555   1.261  0.2512 -0.2270  2.3366
25215SOL    HW276224   0.293   5.415   1.317 -0.8825 -1.4868 -0.7982
25216SOL     OW76225   7.892   5.892   6.991 -0.1472  0.0123  0.0113
25216SOL    HW176226   7.912   5.985   6.996 -0.3571  0.2100 -2.1337
25216SOL    HW276227   7.974   5.849   7.014 -0.1443  0.6835  1.3926
25217SOL     OW76228   1.786   3.329   7.879  0.0242 -0.0698 -0.4758
25217SOL    HW176229   1.821   3.378   7.805 -0.7383 -0.3695 -1.0520
25217SOL    HW276230   1.859   3.323   7.941  0.9905 -0.6813 -1.6298
25218SOL     OW76231   6.645   3.486   0.359  0.3101  0.3940  0.2939
25218SOL    HW176232   6.632   3.397   0.324  0.0058  1.1895 -1.7277
25218SOL    HW276233   6.609   3.481   0.448  1.0093 -1.6972  0.5358
25219SOL     OW76234  -0.018   1.959   2.906 -0.0837 -0.4995  0.2690
25219SOL    HW176235   0.017   1.931   2.991  1.1385  1.9948  0.6846
25219SOL    HW276236   0.056   1.999   2.862 -1.8861  3.5746  0.5067
25220SOL     OW76237   4.046   4.428   1.472 -0.2481  0.1131  0.1873
25220SOL    HW176238   3.963   4.475   1.477  0.3841  1.2789  0.2485
25220SOL    HW276239   4.023   4.340   1.443 -1.4716  0.4831 -0.0184
25221SOL     OW76240   4.077   1.849   0.705 -0.2407  0.3051 -0.4619
25221SOL    HW176241   4.035   1.820   0.786 -0.6594  0.1226 -0.7423
25221SOL    HW276242   4.027   1.925   0.677 -1.1709 -0.6353 -1.4479
25222SOL     OW76243   5.205   1.059   1.507 -0.2931  0.2409  0.1074
25222SOL    HW176244   5.256   1.011   1.442  0.1163  0.4223  0.2881
25222SOL    HW276245   5.168   1.133   1.458 -1.8882 -0.8820 -0.4371
25223SOL     OW76246   8.433   6.337   5.839 -0.0212 -0.6734 -0.0914
25223SOL    HW176247   8.395   6.422   5.818 -0.8249 -0.5786  1.5922
25223SOL    HW276248   8.448   6.295   5.754  1.1208  1.4396 -0.9874
25224SOL     OW76249   5.699   9.721   2.272  0.5927 -0.1574  0.4219
25224SOL    HW176250   5.791   9.713   2.249  0.9252 -0.0063  1.6485
25224SOL    HW276251   5.699   9.764   2.358 -0.5571 -1.4983  1.1357
25225SOL     OW76252   8.937   2.482   3.381  0.2977  0.4653  0.3645
25225SOL    HW176253   8.933   2.577   3.388 -0.7928  0.2929  2.6083
25225SOL    HW276254   9.031   2.463   3.372  0.4538  1.7551 -1.3028
25226SOL     OW76255   3.480   9.092   0.230  0.2957  0.2429 -0.5480
25226SOL    HW176256   3.489   9.075   0.324 -1.8209 -0.2164 -0.3884
25226SOL    HW276257   3.395   9.056   0.207  0.2748  1.3593 -2.4188
25227SOL     OW76258   4.877   7.886   5.544 -0.4758 -0.3419 -0.0799
25227SOL    HW176259   4.921   7.971   5.550  2.8094 -1.9572  1.3946
25227SOL    HW276260   4.808   7.890   5.610  1.0366  0.5402  1.5644
25228SOL     OW76261   7.543   2.094   5.265 -0.0642  0.1768 -0.4068
25228SOL    HW176262   7.594   2.039   5.207  0.0309 -0.4799  0.2814
25228SOL    HW276263   7.488   2.147   5.206  1.1112  0.6219 -1.1322
25229SOL     OW76264   7.639   7.883   9.594  0.0762  0.4070  0.6712
25229SOL    HW176265   7.611   7.950   9.533 -0.0629  0.9244  1.2893
25229SOL    HW276266   7.563   7.870   9.652  0.3374  0.2107  0.9736
25230SOL     OW76267   4.142   6.168   7.130  0.4628 -0.5680  0.4080
25230SOL    HW176268   4.195   6.168   7.050 -0.1606  0.0320 -0.0094
25230SOL    HW276269   4.132   6.075   7.152  1.9574 -0.6995  0.6903
25231SOL     OW76270   3.438   5.779   5.533 -0.7321  0.2488  0.2153
25231SOL    HW176271   3.352   5.765   5.570 -0.6270 -0.4660  0.2077
25231SOL    HW276272   3.482   5.838   5.593 -0.8614 -0.2221  0.7771
25232SOL     OW76273   0.743   4.011   6.274 -0.1010  0.2747  0.4791
25232SOL    HW176274   0.655   4.022   6.311 -0.1875  3.5193 -0.4285
25232SOL    HW276275   0.743   4.064   6.195  2.1538 -1.1668 -0.6037
25233SOL     OW76276   6.106   0.815   3.622  0.0299  0.4664 -0.0602
25233SOL    HW176277   6.114   0.909   3.611  1.0284  0.4717  0.6348
25233SOL    HW276278   6.196   0.783   3.623 -0.2317 -0.2869  1.4206
25234SOL     OW76279   6.396   1.229   1.739  0.5865  0.2111  0.5620
25234SOL    HW176280   6.367   1.172   1.810 -1.8977  1.9349  1.0294
25234SOL    HW276281   6.455   1.292   1.780  0.0449  0.5138  0.8755
25235SOL     OW76282   1.979   1.701   4.104 -0.4198  0.0017 -0.1469
25235SOL    HW176283   2.018   1.727   4.187 -0.7185  0.5253 -0.1649
25235SOL    HW276284   1.993   1.776   4.046  0.2663 -0.5717 -0.7369
25236SOL     OW76285   8.331   9.454   9.297 -0.5888 -0.7259 -0.3960
25236SOL    HW176286   8.373   9.374   9.265  0.2634 -0.3465 -0.2512
25236SOL    HW276287   8.398   9.495   9.351 -1.0160  0.0954 -0.4872
25237SOL     OW76288   7.751   2.374   1.841 -0.4598 -0.1789  0.1541
25237SOL    HW176289   7.672   2.427   1.848  0.6259  1.4586  0.5760
25237SOL    HW276290   7.724   2.296   1.794 -2.4790  0.0223  0.9022
25238SOL     OW76291   8.255   9.688   6.771  0.1422 -0.4466  0.3785
25238SOL    HW176292   8.324   9.653   6.828  0.1889  0.4140  0.8711
25238SOL    HW276293   8.225   9.766   6.817  0.6534  0.6690 -1.1114
25239SOL     OW76294   6.281   5.637   6.186  0.4819  0.0019 -0.0664
25239SOL    HW176295   6.190   5.657   6.164  0.0363 -2.1873 -0.3933
25239SOL    HW276296   6.281   5.622   6.280  0.3059 -0.8369 -0.1898
25240SOL     OW76297   1.592   9.929   9.441 -0.1132 -0.0737  0.0754
25240SOL    HW176298   1.618   9.913   9.350 -0.4557 -1.7243  0.2411
25240SOL    HW276299   1.503   9.964   9.434 -0.1427 -0.2023 -0.2249
25241SOL     OW76300   0.727   0.301   0.260 -0.6576  0.0623  0.4247
25241SOL    HW176301   0.670   0.375   0.239 -1.4993 -0.5718  0.4311
25241SOL    HW276302   0.670   0.225   0.256  0.3303 -0.6661 -0.1736
25242SOL     OW76303   7.972   7.768   3.439  0.0762  0.8662  0.0287
25242SOL    HW176304   7.992   7.712   3.363 -0.8156 -0.3325  0.6444
25242SOL    HW276305   7.970   7.857   3.403  1.3520  0.5199 -1.0127
25243SOL     OW76306   5.229   0.629   5.426 -0.1927 -0.7289 -0.5426
25243SOL    HW176307   5.159   0.653   5.487 -0.0525 -2.0339  0.1684
25243SOL    HW276308   5.307   0.673   5.461 -0.1320 -1.3919  0.2001
25244SOL     OW76309   8.577   5.254   2.766 -0.0270  0.1088 -0.0515
25244SOL    HW176310   8.585   5.162   2.741 -0.7186  0.4073 -1.4846
25244SOL    HW276311   8.510   5.254   2.835 -0.0031 -0.4682 -0.0232
25245SOL     OW76312   0.361   8.048   8.375 -0.6675  0.4138 -0.9989
25245SOL    HW176313   0.267   8.057   8.389 -0.6136  0.3455 -0.5751
25245SOL    HW276314   0.384   7.966   8.419 -0.4458  0.3315 -1.2704
25246SOL     OW76315   7.294   2.183   8.697  0.9623  0.4728  0.2610
25246SOL    HW176316   7.208   2.148   8.722  1.3192  0.0505  0.9391
25246SOL    HW276317   7.354   2.146   8.762  1.9123 -0.5216 -1.1174
25247SOL     OW76318   5.317   8.056   3.832  0.2041 -0.3152 -0.3269
25247SOL    HW176319   5.322   8.008   3.914  2.3087 -1.1015 -0.8716
25247SOL    HW276320   5.391   8.116   3.834  0.1745 -0.2027 -1.5733
25248SOL     OW76321   2.223   8.312   8.279 -0.3997 -0.1585  0.2731
25248SOL    HW176322   2.139   8.298   8.322 -0.2746  0.0176  0.5766
25248SOL    HW276323   2.277   8.237   8.305 -0.3947 -0.1628  0.2519
25249SOL     OW76324   9.351   7.561   2.639 -0.0826 -0.2505 -0.5618
25249SOL    HW176325   9.317   7.648   2.620  0.8745  0.9282  2.5890
25249SOL    HW276326   9.285   7.501   2.604 -2.4994  1.8004  0.2181
25250SOL     OW76327   9.215   3.178   8.331 -0.2417  0.7393  0.3228
25250SOL    HW176328   9.134   3.208   8.372 -2.5000 -1.6989 -1.9544
25250SOL    HW276329   9.225   3.088   8.361  2.1456  1.1934  1.1337
25251SOL     OW76330   9.692   2.219   4.106  0.1726 -0.0685 -0.2942
25251SOL    HW176331   9.764   2.282   4.103 -0.3506  0.5049 -1.8886
25251SOL    HW276332   9.613   2.272   4.093 -0.2762 -1.0245 -1.6590
25252SOL     OW76333   5.621   1.350   5.442 -0.1864 -0.8094  0.5437
25252SOL    HW176334   5.592   1.432   5.402  2.9295 -0.2238 -0.8190
25252SOL    HW276335   5.585   1.352   5.531 -0.7045  1.7612  0.3359
25253SOL     OW76336   8.388   8.782   0.228  0.0584  0.0624  0.1444
25253SOL    HW176337   8.334   8.820   0.159 -0.6804 -3.9453 -1.8296
25253SOL    HW276338   8.329   8.724   0.276  1.1554  0.8530  2.6088
25254SOL     OW76339   9.026   6.592   1.086 -0.4651 -0.6288 -0.0087
25254SOL    HW176340   9.001   6.520   1.144 -1.4661  0.0745  0.4654
25254SOL    HW276341   9.099   6.634   1.130 -0.7045 -0.5833  0.3463
25255SOL     OW76342   0.635   0.781   2.926 -0.0466  0.1041 -0.7391
25255SOL    HW176343   0.576   0.749   2.857 -1.4238 -2.1396  1.3282
25255SOL    HW276344   0.694   0.707   2.943  1.0300  1.0407 -0.2557
25256SOL     OW76345   1.329   5.468   3.169  0.7268 -0.4214 -0.5377
25256SOL    HW176346   1.296   5.455   3.258  1.4718 -0.1426 -0.2112
25256SOL    HW276347   1.251   5.481   3.116  0.2155 -1.6448 -0.1062
25257SOL     OW76348   8.915   4.905   2.290 -0.3877  0.7321 -0.2091
25257SOL    HW176349   8.967   4.867   2.360  1.4813  0.9494 -1.4090
25257SOL    HW276350   8.900   4.832   2.229  0.7579  1.2321 -1.1223
25258SOL     OW76351   6.737   4.131   2.136  0.0050  0.1983  0.0725
25258SOL    HW176352   6.786   4.050   2.147 -0.0219  0.2730  0.7696
25258SOL    HW276353   6.805   4.199   2.127  0.0395  0.3331  1.2710
25259SOL     OW76354   2.173   5.942   7.166 -0.0173 -0.3751 -0.0645
25259SOL    HW176355   2.175   6.032   7.133  0.3890 -0.9709 -1.7403
25259SOL    HW276356   2.262   5.925   7.195 -0.1797 -0.1336  0.6026
25260SOL     OW76357   2.782   1.428   2.652 -0.0108  0.2629  0.3543
25260SOL    HW176358   2.693   1.460   2.664 -0.7518 -1.5478  0.0792
25260SOL    HW276359   2.780   1.339   2.688  1.0274 -0.6755 -1.7188
25261SOL     OW76360   9.112   2.199   1.575  0.2646 -0.0879  0.5122
25261SOL    HW176361   9.151   2.275   1.619  1.1402 -0.1313 -0.1464
25261SOL    HW276362   9.025   2.229   1.548  0.8043  0.8659 -0.2133
25262SOL     OW76363   7.598   1.702   2.079  0.0759 -0.7698 -0.2979
25262SOL    HW176364   7.549   1.675   2.001 -1.1064  0.6005 -0.0887
25262SOL    HW276365   7.531   1.728   2.142  1.0055  2.2700 -0.3869
25263SOL     OW76366   7.224   4.645   6.350  0.4841 -0.1037  0.7995
25263SOL    HW176367   7.307   4.598   6.362  0.1225 -0.9652  0.0834
25263SOL    HW276368   7.249   4.732   6.321  1.1674 -1.5689 -3.7091
25264SOL     OW76369   4.766   8.139   4.765 -0.8008 -0.0286 -0.5823
25264SOL    HW176370   4.725   8.053   4.761 -0.6795 -0.0903 -0.5248
25264SOL    HW276371   4.825   8.141   4.689  0.3361 -0.5889  0.2610
25265SOL     OW76372   0.792   2.174   5.801 -0.1230 -0.1561  0.2367
25265SOL    HW176373   0.735   2.167   5.877  0.3138  1.0443  0.7125
25265SOL    HW276374   0.756   2.247   5.750  0.3181 -0.1336 -0.0500
25266SOL     OW76375   7.111   9.758   0.247  0.5543  0.7841  0.0155
25266SOL    HW176376   7.069   9.703   0.181  0.2377  1.1456 -0.0863
25266SOL    HW276377   7.040   9.808   0.286  0.9274  1.7496 -0.4876
25267SOL     OW76378   2.441   6.484   5.128 -0.4465  0.1364 -0.8735
25267SOL    HW176379   2.478   6.488   5.216  0.7220 -0.3120 -1.3299
25267SOL    HW276380   2.349   6.459   5.143 -0.3151  0.2382  0.2231
25268SOL     OW76381   2.378   3.233   8.198  0.1091 -0.0428  0.1754
25268SOL    HW176382   2.321   3.286   8.254 -0.0371  1.6983 -1.5428
25268SOL    HW276383   2.463   3.276   8.204  1.1377 -2.1190  2.0278
25269SOL     OW76384   1.412   0.794   1.998 -0.0438 -0.0648  0.0278
25269SOL    HW176385   1.471   0.860   1.961  0.3021  0.2071  1.0208
25269SOL    HW276386   1.392   0.827   2.086 -0.2299 -1.0658  0.3706
25270SOL     OW76387   0.803   5.385   0.443 -0.1472 -0.5456 -0.4170
25270SOL    HW176388   0.710   5.405   0.435 -0.0953  0.1537  0.5627
25270SOL    HW276389   0.808   5.320   0.513  0.2346  0.8219  0.8888
25271SOL     OW76390   9.094   1.440   0.176 -0.4148 -0.0499  0.2554
25271SOL    HW176391   9.078   1.504   0.245 -0.5877 -0.9489  1.0621
25271SOL    HW276392   9.175   1.397   0.201 -0.7500 -0.7432  0.1867
25272SOL     OW76393   2.287   5.525   3.137  0.0677  0.0583  0.1215
25272SOL    HW176394   2.205   5.561   3.103 -2.5004 -2.8288  2.6538
25272SOL    HW276395   2.326   5.597   3.185 -0.9428  1.5090 -1.1249
25273SOL     OW76396   6.771   6.358   9.185  1.0944  0.4444 -0.0202
25273SOL    HW176397   6.743   6.293   9.249 -1.1403 -0.1825 -1.5016
25273SOL    HW276398   6.833   6.312   9.128 -1.0640 -0.7720 -1.5421
25274SOL     OW76399   6.292   7.005   1.564  0.2024 -0.2875 -0.2813
25274SOL    HW176400   6.306   6.969   1.652 -0.1931 -1.8935 -0.8521
25274SOL    HW276401   6.379   7.006   1.524  0.4696  0.9316  0.2756
25275SOL     OW76402   3.285   1.902   7.472 -0.0354  0.1592  0.1341
25275SOL    HW176403   3.288   1.849   7.393  1.2701 -0.0391  0.2859
25275SOL    HW276404   3.296   1.839   7.544 -2.7628  0.1288  0.6230
25276SOL     OW76405   7.378   0.754   1.278  0.0697 -0.0771  0.0786
25276SOL    HW176406   7.409   0.841   1.301  0.5950 -0.5406  1.2163
25276SOL    HW276407   7.457   0.700   1.276 -0.2598 -0.5456 -0.5173
25277SOL     OW76408   6.683   6.052   9.101  0.2133 -0.5974  0.6410
25277SOL    HW176409   6.663   6.050   9.007  0.8328 -0.1503  0.4907
25277SOL    HW276410   6.638   6.130   9.133  0.9589 -0.0825  0.4729
25278SOL     OW76411   6.448   6.477   5.602  0.1580  0.5910  0.0122
25278SOL    HW176412   6.377   6.538   5.582  0.1438  0.2566 -1.0328
25278SOL    HW276413   6.415   6.425   5.675 -1.5700 -0.9332 -1.7242
25279SOL     OW76414   9.742   1.066   6.717 -0.4386  0.5287  0.4962
25279SOL    HW176415   9.794   1.031   6.645 -1.0188 -1.6570  1.0725
25279SOL    HW276416   9.752   1.161   6.710 -0.8563  0.4458 -2.7487
25280SOL     OW76417   8.970   7.515   8.961 -0.4330 -0.5017  0.0775
25280SOL    HW176418   8.894   7.548   8.914 -0.5045  1.3913  1.4513
25280SOL    HW276419   9.044   7.564   8.925 -0.2805 -0.1341  0.8866
25281SOL     OW76420   6.820   3.575   5.702  0.4231 -0.3849  0.0043
25281SOL    HW176421   6.821   3.616   5.616  1.5198  1.3196  0.7668
25281SOL    HW276422   6.784   3.642   5.760  0.8610 -1.0517  1.0757
25282SOL     OW76423   9.038   9.681   0.791  0.1422  0.5417 -0.4773
25282SOL    HW176424   8.979   9.626   0.738 -1.1781  0.8079  0.6568
25282SOL    HW276425   9.086   9.620   0.846 -0.0002  0.4095 -0.5019
25283SOL     OW76426   3.728   4.530   9.500  0.2259 -0.1561  0.4386
25283SOL    HW176427   3.756   4.505   9.412  2.5381 -3.1284  1.7802
25283SOL    HW276428   3.634   4.516   9.501  0.2167 -0.4435 -1.4569
25284SOL     OW76429   3.352   2.173   5.158 -0.3776 -0.0151 -0.2148
25284SOL    HW176430   3.373   2.091   5.115  0.7052  0.0451  0.1595
25284SOL    HW276431   3.422   2.185   5.223 -0.4035  1.2822 -0.3885
25285SOL     OW76432   7.066   0.996   4.815  0.1857  0.7655 -0.7930
25285SOL    HW176433   7.148   0.958   4.784  1.1771  2.2093 -0.0732
25285SOL    HW276434   7.040   1.058   4.747 -0.8810 -0.4096 -1.4923
25286SOL     OW76435   1.259   3.908   6.515 -0.6976  0.4115 -0.1097
25286SOL    HW176436   1.332   3.846   6.511 -0.5775  0.5958 -0.8824
25286SOL    HW276437   1.240   3.929   6.424 -2.2111 -0.2018  0.0322
25287SOL     OW76438   1.081   7.158   0.719  0.3618  0.3957  0.0988
25287SOL    HW176439   1.053   7.082   0.669  1.3204  0.5459 -0.6925
25287SOL    HW276440   1.078   7.231   0.657  3.7372  0.2034 -0.5272
25288SOL     OW76441   3.004   7.944   3.432  0.0431  1.0693 -0.4971
25288SOL    HW176442   3.073   7.929   3.497 -0.0986 -2.8955 -1.0166
25288SOL    HW276443   2.933   7.885   3.458 -0.6189  0.4741 -3.3600
25289SOL     OW76444   1.361   8.761   3.421 -0.6017 -0.1812 -0.3654
25289SOL    HW176445   1.321   8.696   3.363 -1.2765  0.0356 -0.1564
25289SOL    HW276446   1.395   8.710   3.494 -0.8956 -0.3296 -0.3289
25290SOL     OW76447   8.227   6.526   7.420 -0.0249 -0.6305 -0.5787
25290SOL    HW176448   8.184   6.537   7.505  0.0617 -0.6226 -0.5350
25290SOL    HW276449   8.209   6.435   7.396  0.9801 -1.0169  0.0309
25291SOL     OW76450   0.068   9.814   2.480 -0.3628  0.2088 -0.4904
25291SOL    HW176451   0.094   9.815   2.571 -1.8150  0.4239 -0.0458
25291SOL    HW276452   0.085   9.903   2.448  1.3813 -0.2185 -0.8311
25292SOL     OW76453   0.112   2.419   4.829 -0.0241  0.3415 -0.1478
25292SOL    HW176454   0.173   2.417   4.903 -0.5912  3.8760  0.5990
25292SOL    HW276455   0.119   2.508   4.795 -2.7636  0.0421 -1.7959
25293SOL     OW76456   3.529   8.047   5.140 -0.1379 -0.2243 -0.9144
25293SOL    HW176457   3.537   8.138   5.109 -1.7603  0.6958  1.1285
25293SOL    HW276458   3.464   8.008   5.083 -0.9675  0.5577 -0.5300
25294SOL     OW76459   5.011   1.323   6.571  0.5469  0.1025  0.4514
25294SOL    HW176460   4.971   1.397   6.617 -1.1267 -0.7600  0.4561
25294SOL    HW276461   4.946   1.298   6.505  0.8235 -1.7189  0.8254
25295SOL     OW76462   4.697   2.452   7.437 -0.0886  0.0133  0.2186
25295SOL    HW176463   4.610   2.431   7.404 -1.1690  1.7275  1.8176
25295SOL    HW276464   4.754   2.444   7.360 -1.9448  0.6545 -1.2962
25296SOL     OW76465   6.582   9.298   5.907  0.0011  0.2529 -0.0844
25296SOL    HW176466   6.631   9.306   5.989 -0.5466  0.6911  0.1991
25296SOL    HW276467   6.579   9.204   5.891  3.1688  0.2512 -1.4617
25297SOL     OW76468   3.724   0.975   3.177  0.4906 -0.4597 -0.2910
25297SOL    HW176469   3.688   1.000   3.263  1.3942 -1.8702  0.5350
25297SOL    HW276470   3.659   0.916   3.140  0.3857 -0.3351 -0.3059
25298SOL     OW76471   1.004   3.112   7.646  0.2900  0.1976  0.6578
25298SOL    HW176472   0.941   3.057   7.599  1.6618 -1.7992  1.0563
25298SOL    HW276473   0.987   3.200   7.612  1.0295 -1.0208 -3.5196
25299SOL     OW76474   9.820   7.084   5.217 -0.5957  0.7762 -0.2930
25299SOL    HW176475   9.799   7.167   5.175  0.3404  0.5650 -1.2392
25299SOL    HW276476   9.750   7.024   5.189 -0.6698  0.9636 -0.5077
25300SOL     OW76477   0.451   7.588   7.026  0.3877 -0.3168 -0.0174
25300SOL    HW176478   0.384   7.610   6.961  0.2979 -1.4320 -0.3332
25300SOL    HW276479   0.501   7.669   7.038  0.3035 -0.0351 -1.3665
25301SOL     OW76480   1.137   1.855   6.531  0.0192  0.0498  0.1616
25301SOL    HW176481   1.181   1.888   6.610 -1.8011 -0.3909  1.4224
25301SOL    HW276482   1.204   1.861   6.463  1.5426  0.8340  1.6306
25302SOL     OW76483   4.716   0.136   0.095 -0.7105 -0.0434 -0.1481
25302SOL    HW176484   4.792   0.121   0.039 -0.6197 -1.3686  0.3085
25302SOL    HW276485   4.641   0.109   0.041 -0.7518  0.0726 -0.1492
25303SOL     OW76486   7.712   8.134   8.297  0.0146  0.1248 -0.3047
25303SOL    HW176487   7.797   8.105   8.331 -0.4720 -0.5103  0.4221
25303SOL    HW276488   7.678   8.057   8.251 -0.0364  0.4751 -0.8569
25304SOL     OW76489   7.913   9.228   3.996  0.4080  0.8623  0.1342
25304SOL    HW176490   7.881   9.317   4.006 -1.4222  0.2686 -0.2080
25304SOL    HW276491   7.848   9.184   3.942  0.5057 -1.0954  1.5155
25305SOL     OW76492   4.878   2.976   0.735  0.5672 -0.2007 -0.1411
25305SOL    HW176493   4.921   2.961   0.819  0.3835  0.3355  0.0516
25305SOL    HW276494   4.931   2.927   0.672  1.9454  1.0995 -0.0489
25306SOL     OW76495   3.041   7.619   0.547  0.9300 -0.5526  0.5187
25306SOL    HW176496   2.961   7.585   0.589  0.5646 -1.5411 -0.8990
25306SOL    HW276497   3.112   7.571   0.590  0.4138 -3.4792 -1.5932
25307SOL     OW76498   2.470   6.473   8.488 -0.1000  0.5564  0.0716
25307SOL    HW176499   2.534   6.529   8.445  0.7233  0.0351  0.6064
25307SOL    HW276500   2.522   6.412   8.541 -1.0559  0.9597  1.5460
25308SOL     OW76501   5.526   3.006   2.819 -0.3217  0.0610  0.1655
25308SOL    HW176502   5.463   2.952   2.771  0.0290  0.5732 -0.8991
25308SOL    HW276503   5.607   2.956   2.817 -0.3756 -0.0396  0.4656
25309SOL     OW76504   0.579   8.006   4.068  0.5150 -0.5570  1.2998
25309SOL    HW176505   0.613   8.025   4.155 -0.5420 -2.5367  2.2144
25309SOL    HW276506   0.567   7.911   4.067  2.0644 -0.8406 -1.6277
25310SOL     OW76507   7.601   0.124   0.899 -0.2805  0.1880  0.1505
25310SOL    HW176508   7.609   0.191   0.831  0.3597  0.3777  0.4116
25310SOL    HW276509   7.506   0.117   0.913 -0.3127  2.0298  1.0872
25311SOL     OW76510   2.418   9.029   6.058  0.0767 -0.0090  0.0985
25311SOL    HW176511   2.354   9.031   6.130 -0.3716  1.5230 -0.3052
25311SOL    HW276512   2.447   8.938   6.054 -0.1411 -0.1982  2.0002
25312SOL     OW76513   0.923   7.084   3.875  0.1793  0.5448 -0.1943
25312SOL    HW176514   0.984   7.065   3.803 -0.7987  1.6412 -1.3840
25312SOL    HW276515   0.873   7.159   3.843 -2.1534 -0.6279  0.5045
25313SOL     OW76516   5.458   8.052   2.888 -0.3719 -0.0188 -0.3932
25313SOL    HW176517   5.442   8.142   2.862 -0.3503  0.2349  0.4384
25313SOL    HW276518   5.441   8.050   2.982  1.7030 -0.3700  0.0342
25314SOL     OW76519   9.633   8.539   5.075  0.4982  0.2798  0.0161
25314SOL    HW176520   9.705   8.550   5.013  0.2258  2.3601 -0.0018
25314SOL    HW276521   9.566   8.491   5.025  0.9949  0.3204 -0.7038
25315SOL     OW76522   8.314   6.852   7.501 -0.5597  0.8072 -0.1331
25315SOL    HW176523   8.259   6.926   7.474 -0.7922 -0.1839 -2.6870
25315SOL    HW276524   8.342   6.812   7.419  3.3966  0.7376  1.0291
25316SOL     OW76525   7.298   2.908   0.392 -0.3259 -1.2882  0.5663
25316SOL    HW176526   7.245   2.987   0.399  0.2110 -0.9344  0.7336
25316SOL    HW276527   7.372   2.924   0.451 -0.7728 -2.3730  1.4259
25317SOL     OW76528   1.451   0.692   6.992  0.0768  0.0482  0.2562
25317SOL    HW176529   1.517   0.721   7.055  0.8188 -1.2532  0.1128
25317SOL    HW276530   1.487   0.715   6.907  0.1901 -0.3284  0.1981
25318SOL     OW76531   5.966   0.118   0.430  0.6781 -0.2287  0.2932
25318SOL    HW176532   5.896   0.151   0.487  1.8115 -0.3839  1.8203
25318SOL    HW276533   5.988   0.033   0.467  1.3054 -0.4128 -0.4958
25319SOL     OW76534   4.939   5.143   9.354 -0.2408 -0.6345 -0.2875
25319SOL    HW176535   5.012   5.205   9.365  0.6088 -1.8003  0.9472
25319SOL    HW276536   4.894   5.174   9.275 -0.5919  2.2735  0.9201
25320SOL     OW76537   6.145   2.246   8.007  0.0280  0.1765  0.3079
25320SOL    HW176538   6.219   2.270   8.062  0.2331 -0.3242  0.2575
25320SOL    HW276539   6.170   2.276   7.919  0.3859 -0.4147  0.2008
25321SOL     OW76540   5.847   0.071   7.127  0.4760  0.0046 -0.1523
25321SOL    HW176541   5.847   0.145   7.187  0.5634  0.5345 -0.7921
25321SOL    HW276542   5.911   0.095   7.060 -1.6596  0.7483 -2.0388
25322SOL     OW76543   1.620   9.883   1.029  0.4945 -0.2486  0.2594
25322SOL    HW176544   1.547   9.942   1.044 -0.9264 -1.7241 -0.5683
25322SOL    HW276545   1.691   9.940   0.997  0.1501  1.3681  2.2210
25323SOL     OW76546   6.757   1.429   0.773 -0.3569 -0.0836  0.0377
25323SOL    HW176547   6.818   1.391   0.709 -1.0746  1.4550 -1.6410
25323SOL    HW276548   6.706   1.492   0.723 -1.2389  0.9137  2.0803
25324SOL     OW76549   6.266   4.613   3.405  0.0842  0.0908 -0.4656
25324SOL    HW176550   6.201   4.568   3.459  2.0273 -1.1727  0.9401
25324SOL    HW276551   6.283   4.553   3.332  0.1507  0.1369 -0.4883
25325SOL     OW76552   8.547   8.255   1.514  0.2357 -0.1543 -1.0403
25325SOL    HW176553   8.629   8.271   1.469 -0.2213  2.7342 -1.0364
25325SOL    HW276554   8.539   8.327   1.577 -3.0820  0.7618 -2.2548
25326SOL     OW76555   8.802   7.995   3.632 -0.0694  0.1028 -0.3836
25326SOL    HW176556   8.816   7.923   3.694 -1.3123  0.9069  0.8820
25326SOL    HW276557   8.717   7.976   3.592 -1.1271  1.5640  1.0407
25327SOL     OW76558   7.545   2.077   1.833  0.0228 -0.1777  0.2684
25327SOL    HW176559   7.507   1.995   1.803  0.9151  0.2301 -2.1999
25327SOL    HW276560   7.593   2.111   1.757  0.7466  1.9986  1.5957
25328SOL     OW76561   6.283   1.620   2.104  0.2622  0.1699 -0.2974
25328SOL    HW176562   6.198   1.607   2.064 -0.0278  0.2092  0.2933
25328SOL    HW276563   6.346   1.612   2.032 -0.0782 -1.7866 -0.4405
25329SOL     OW76564   0.716   0.242   4.201  0.3822  0.0131 -0.3323
25329SOL    HW176565   0.751   0.324   4.235 -1.1297  0.0543  1.3171
25329SOL    HW276566   0.727   0.248   4.106  2.3653  1.0923 -0.0858
25330SOL     OW76567   2.847   4.548   6.153  0.3096  0.0246  0.4865
25330SOL    HW176568   2.935   4.511   6.153 -0.1697 -1.1387  0.0683
25330SOL    HW276569   2.821   4.547   6.245  1.2836  1.8117  0.8473
25331SOL     OW76570   1.375   5.732   8.000  0.0708  0.0096  0.2951
25331SOL    HW176571   1.387   5.804   8.061  0.7441 -1.4073  1.9114
25331SOL    HW276572   1.289   5.748   7.961 -0.0332  1.3664  1.0194
25332SOL     OW76573   7.010   7.788   6.227  0.4197 -0.2415  0.4261
25332SOL    HW176574   6.988   7.806   6.135  1.0227  0.7998  0.4676
25332SOL    HW276575   7.090   7.736   6.223  0.6991  0.1864  0.3604
25333SOL     OW76576   4.722   8.216   3.610 -0.2177  0.0632 -0.4362
25333SOL    HW176577   4.786   8.174   3.553 -0.0804 -0.2190 -0.0785
25333SOL    HW276578   4.639   8.209   3.563 -0.0309  0.1991 -0.7835
25334SOL     OW76579   4.405   8.548   7.553  0.6388 -0.2784  0.3250
25334SOL    HW176580   4.492   8.512   7.571  0.7955  0.2218  0.5792
25334SOL    HW276581   4.384   8.517   7.465  0.7549 -1.0288  0.5560
25335SOL     OW76582   7.422   9.828   2.810 -0.3776 -0.2509  0.4453
25335SOL    HW176583   7.419   9.785   2.724 -0.5129 -1.2039  0.9082
25335SOL    HW276584   7.365   9.774   2.865  0.9799 -0.6273  1.5488
25336SOL     OW76585   4.734   7.330   3.180 -0.2013 -0.2233  0.0595
25336SOL    HW176586   4.781   7.388   3.120 -2.0920 -0.1395 -1.4359
25336SOL    HW276587   4.691   7.389   3.242 -0.2657 -0.1745 -0.0327
25337SOL     OW76588   6.363   5.353   8.215 -0.4219  0.3847  0.4330
25337SOL    HW176589   6.327   5.271   8.181 -0.2849 -0.0075  1.2030
25337SOL    HW276590   6.293   5.417   8.202 -0.6911  0.0497  0.2130
25338SOL     OW76591   8.358   8.141   5.842  0.0491 -0.4880 -0.2385
25338SOL    HW176592   8.441   8.133   5.889  0.4331 -1.1028 -0.9896
25338SOL    HW276593   8.294   8.096   5.897 -0.0019  0.7958  0.8066
25339SOL     OW76594   7.430   1.826   1.121 -0.1454  0.2084 -0.1828
25339SOL    HW176595   7.441   1.818   1.215 -0.6540  1.5891  0.0129
25339SOL    HW276596   7.402   1.739   1.092  0.0136 -0.2199  0.9309
25340SOL     OW76597   6.465   7.586   2.251 -0.0134  0.0427  0.5707
25340SOL    HW176598   6.432   7.608   2.164 -0.8931 -1.3045  0.5475
25340SOL    HW276599   6.448   7.493   2.261  0.7650  0.0182  1.8977
25341SOL     OW76600   5.207   8.363   7.788  0.6237  0.0930 -1.0690
25341SOL    HW176601   5.268   8.384   7.859  1.4416  0.9071 -1.9906
25341SOL    HW276602   5.144   8.435   7.789  0.4471 -0.0611 -0.9726
25342SOL     OW76603   9.359   2.864   9.807 -0.1268  0.5190  0.0662
25342SOL    HW176604   9.422   2.839   9.739  1.9431  0.1308  1.9917
25342SOL    HW276605   9.403   2.933   9.857 -2.2065  1.8811  0.1568
25343SOL     OW76606   6.555   8.134   7.444 -0.0949 -0.2463 -0.4496
25343SOL    HW176607   6.618   8.144   7.515 -0.7199  2.2906 -0.1679
25343SOL    HW276608   6.475   8.105   7.488 -0.7915  2.3355  0.1392
25344SOL     OW76609   2.390   6.256   1.390  0.1570  0.9095 -0.0721
25344SOL    HW176610   2.366   6.248   1.482  0.1570  1.3937 -0.0253
25344SOL    HW276611   2.445   6.335   1.387  0.7765  0.4716 -0.3654
25345SOL     OW76612   4.526   2.780   6.432  0.2486 -0.2212 -0.4990
25345SOL    HW176613   4.558   2.864   6.399 -0.1569 -0.5828 -1.8929
25345SOL    HW276614   4.574   2.714   6.382  0.4144 -0.8294  0.4321
25346SOL     OW76615   3.399   5.255   1.363  0.5029  0.1709 -0.2824
25346SOL    HW176616   3.450   5.307   1.425  0.0599  0.4939 -0.1810
25346SOL    HW276617   3.343   5.200   1.417  0.3090  0.2603 -0.3886
25347SOL     OW76618   4.544   2.804   5.224 -0.1833  0.3268  0.2479
25347SOL    HW176619   4.496   2.766   5.151 -1.8369  1.3617  0.7435
25347SOL    HW276620   4.479   2.812   5.294  0.4974  2.4709  0.7009
25348SOL     OW76621   7.497   8.588   5.667 -0.7024 -0.2578 -0.3852
25348SOL    HW176622   7.470   8.609   5.757 -1.3585 -0.7032 -0.4661
25348SOL    HW276623   7.529   8.671   5.632  0.3718 -0.2593  0.5259
25349SOL     OW76624   1.190   3.069   0.330 -0.5890  0.3597 -1.1333
25349SOL    HW176625   1.227   3.066   0.418 -0.2613 -1.3119 -1.2934
25349SOL    HW276626   1.103   3.108   0.342 -1.2842 -1.4360  0.2469
25350SOL     OW76627   8.368   4.861   1.564 -0.5985 -0.4144 -0.2826
25350SOL    HW176628   8.418   4.939   1.541 -1.6146  1.0915  2.1299
25350SOL    HW276629   8.431   4.803   1.606  0.1278 -0.8391 -1.9235
25351SOL     OW76630   2.267   8.148   9.143 -0.2962  0.1417 -0.2652
25351SOL    HW176631   2.260   8.107   9.057  0.4333  0.9171 -0.7213
25351SOL    HW276632   2.235   8.238   9.129  0.1061  0.3611  0.1895
25352SOL     OW76633   2.653   4.626   7.089  0.1913  0.1982  0.2010
25352SOL    HW176634   2.571   4.672   7.073  0.9650  1.0936 -1.4096
25352SOL    HW276635   2.637   4.537   7.057 -1.1507 -0.6369  2.8809
25353SOL     OW76636   0.595   1.970   6.288 -0.3065 -0.2404  0.1675
25353SOL    HW176637   0.646   1.915   6.348 -0.7335  2.1301  2.9483
25353SOL    HW276638   0.507   1.931   6.290 -0.6430  0.4705  2.2164
25354SOL     OW76639   8.105   0.812   6.513 -0.6747  0.6322 -0.1508
25354SOL    HW176640   8.035   0.751   6.486 -1.3849  1.4199 -0.1352
25354SOL    HW276641   8.059   0.894   6.531  0.0070  0.6491  1.7312
25355SOL     OW76642   2.493   2.350   4.808  0.3903  0.6152  0.5239
25355SOL    HW176643   2.543   2.271   4.829 -3.3962 -2.2131  0.0951
25355SOL    HW276644   2.472   2.389   4.892 -1.3962 -1.5626  1.2078
25356SOL     OW76645   2.835   6.479   5.674  0.4342 -0.1985 -0.2727
25356SOL    HW176646   2.819   6.572   5.659  2.0722  0.2357  0.4395
25356SOL    HW276647   2.818   6.438   5.590 -0.9821  0.6342 -0.4210
25357SOL     OW76648   5.944   0.374   5.754 -0.1812 -0.0343  0.1683
25357SOL    HW176649   6.012   0.424   5.708 -1.2244  1.1163 -0.1684
25357SOL    HW276650   5.967   0.283   5.737  0.8462  0.3386 -0.5870
25358SOL     OW76651   2.914   5.681   0.085  0.2350  0.3331 -0.5258
25358SOL    HW176652   2.969   5.607   0.109  0.2874  1.5031  3.6222
25358SOL    HW276653   2.976   5.752   0.067  0.1278  0.4713 -0.3464
25359SOL     OW76654   2.288   8.535   4.990  0.2097 -0.4816 -0.8047
25359SOL    HW176655   2.256   8.445   4.986  2.5663 -1.8150  3.4961
25359SOL    HW276656   2.354   8.540   4.921 -0.4833 -1.7903 -1.6004
25360SOL     OW76657   6.680   3.927   3.425 -0.0672  0.6799  1.1750
25360SOL    HW176658   6.774   3.935   3.441  0.1357 -1.5912  1.4131
25360SOL    HW276659   6.673   3.891   3.337 -0.5376 -1.8693  2.1716
25361SOL     OW76660   2.518   8.219   3.256 -0.1193  0.3032 -0.0421
25361SOL    HW176661   2.590   8.232   3.194 -0.0866  0.7449  0.0892
25361SOL    HW276662   2.544   8.269   3.333 -0.0312 -0.4534  0.4332
25362SOL     OW76663   6.951   7.147   4.370  0.3770  0.2425 -0.0884
25362SOL    HW176664   7.005   7.092   4.427  2.1381  1.7171 -0.2464
25362SOL    HW276665   6.935   7.226   4.422  1.2638  1.2374 -1.2793
25363SOL     OW76666   8.197   6.124   2.856 -0.1760  0.3427 -0.0916
25363SOL    HW176667   8.210   6.120   2.950 -1.1776 -0.8044  0.0249
25363SOL    HW276668   8.104   6.143   2.845 -0.2134 -0.2091 -0.8350
25364SOL     OW76669   0.578   0.866   0.562 -0.8910  0.1933  0.0440
25364SOL    HW176670   0.577   0.855   0.467  2.1172 -0.7159  0.0401
25364SOL    HW276671   0.570   0.960   0.575  0.3634  0.5094 -1.2274
25365SOL     OW76672   8.809   5.768   0.042 -0.2059 -0.6465  0.0590
25365SOL    HW176673   8.763   5.815   0.111  0.6498 -1.2902  1.0905
25365SOL    HW276674   8.844   5.837  -0.015 -0.5797 -0.1019  0.4770
25366SOL     OW76675   6.053   5.540   3.373 -0.3115 -0.0364  0.1825
25366SOL    HW176676   6.055   5.481   3.297 -2.1782  0.0389  0.0468
25366SOL    HW276677   6.079   5.484   3.446 -4.1155 -1.7717  0.4522
25367SOL     OW76678   9.919   6.200   9.940  0.8299  0.3999  0.6454
25367SOL    HW176679   9.892   6.291   9.930  0.8461  0.1845 -1.9418
25367SOL    HW276680   9.877   6.172  10.021 -0.8973  2.1073  0.4212
25368SOL     OW76681   8.328   5.682   6.340  0.4110  0.1009  0.3351
25368SOL    HW176682   8.342   5.699   6.433 -0.1261  1.0012  0.2666
25368SOL    HW276683   8.252   5.623   6.337 -0.3759  1.0822  0.4350
25369SOL     OW76684   6.582   3.532   4.588 -0.0441  0.2364  0.2698
25369SOL    HW176685   6.596   3.581   4.507 -1.8510 -0.6613 -0.6340
25369SOL    HW276686   6.633   3.580   4.654 -0.3049  2.2613 -0.9197
25370SOL     OW76687   9.526   3.727   9.161 -0.8320 -0.3840  0.3534
25370SOL    HW176688   9.521   3.756   9.252 -1.6953  0.9614 -0.0885
25370SOL    HW276689   9.581   3.792   9.118  1.0463 -1.9645  0.2310
25371SOL     OW76690   8.101   0.817   7.073 -0.6243  0.3008 -0.2906
25371SOL    HW176691   8.050   0.867   7.137 -2.8492 -0.5450 -1.2988
25371SOL    HW276692   8.102   0.728   7.109  0.7317  0.4124  0.0113
25372SOL     OW76693   5.848   3.318   7.568 -0.4196 -0.0913 -0.0358
25372SOL    HW176694   5.829   3.256   7.639  1.1455 -2.7390 -1.7492
25372SOL    HW276695   5.943   3.310   7.555 -0.0238  3.1818 -0.0166
25373SOL     OW76696   5.365   8.708   7.801 -0.1441  0.5512  0.0923
25373SOL    HW176697   5.330   8.796   7.815 -1.9402 -0.2667  0.9837
25373SOL    HW276698   5.315   8.674   7.727 -1.7645 -0.8445  1.7365
25374SOL     OW76699   6.188   1.361   9.091  0.8047  0.1373  0.0071
25374SOL    HW176700   6.226   1.409   9.017  2.3870  0.8069  1.1868
25374SOL    HW276701   6.098   1.392   9.096  0.7454  0.2670 -1.4701
25375SOL     OW76702   1.556   6.913   2.169  0.1820  0.3978 -0.4940
25375SOL    HW176703   1.524   6.886   2.083  2.7260  2.5903 -2.2906
25375SOL    HW276704   1.612   6.842   2.198 -0.5896 -0.2987 -0.6585
25376SOL     OW76705   2.651   4.068   9.198 -0.3282  0.0052  0.2908
25376SOL    HW176706   2.611   4.039   9.280  0.8970  0.8201  1.2032
25376SOL    HW276707   2.657   4.163   9.207  0.3128  0.0488 -0.5262
25377SOL     OW76708   1.763   7.756   9.189 -0.1288 -0.1638 -0.5632
25377SOL    HW176709   1.850   7.737   9.224 -1.2420 -2.0327  1.4456
25377SOL    HW276710   1.757   7.852   9.191  2.2753  0.0991 -1.9510
25378SOL     OW76711   2.393   3.485   6.680  0.2033  0.5517 -0.1826
25378SOL    HW176712   2.351   3.548   6.739  0.9005 -0.8512  1.9335
25378SOL    HW276713   2.443   3.540   6.619  1.2272  2.1316  1.9119
25379SOL     OW76714   6.164   2.640   5.952  0.4151 -0.3634  0.5315
25379SOL    HW176715   6.168   2.612   5.860 -0.0067 -0.0800  0.4209
25379SOL    HW276716   6.080   2.607   5.983  1.0317 -1.3874  1.1379
25380SOL     OW76717   0.532   3.631   1.802 -0.3081 -0.2143 -0.0841
25380SOL    HW176718   0.552   3.697   1.868 -1.4477  0.0049  0.0614
25380SOL    HW276719   0.590   3.650   1.729  0.8298 -0.3307  0.7617
25381SOL     OW76720   4.215   0.728   9.101  0.5714  0.1520 -0.5741
25381SOL    HW176721   4.167   0.738   9.183 -1.6540 -0.5600 -1.7030
25381SOL    HW276722   4.171   0.787   9.040  0.5549 -1.1251 -1.8756
25382SOL     OW76723   8.918   1.204   3.758 -0.1259  0.3686 -0.2629
25382SOL    HW176724   8.960   1.119   3.766 -0.9304  0.0286  0.4740
25382SOL    HW276725   8.883   1.206   3.669 -2.5579 -1.2512  0.5613
25383SOL     OW76726   8.940   9.029   3.766  0.3202  0.6497  0.3775
25383SOL    HW176727   8.869   9.031   3.830 -1.3843 -0.8411 -1.3337
25383SOL    HW276728   9.013   8.991   3.814  0.2653  2.8515  2.3799
25384SOL     OW76729   5.220   7.089   9.808  0.2963 -0.2332 -0.8362
25384SOL    HW176730   5.246   7.170   9.764  5.2511  0.7028  2.8486
25384SOL    HW276731   5.245   7.020   9.747  0.7910  0.9691 -2.0538
25385SOL     OW76732   1.250   5.016   5.096  0.0676  0.0195  0.3584
25385SOL    HW176733   1.323   5.067   5.131 -1.7818  3.0160  0.2114
25385SOL    HW276734   1.260   5.022   5.001 -0.1298  0.0806  0.3410
25386SOL     OW76735   3.023   1.781   6.393 -0.1510 -0.0562  0.1838
25386SOL    HW176736   3.027   1.866   6.349  2.8185  0.0023  0.3877
25386SOL    HW276737   3.008   1.802   6.485  0.6040  0.2589  0.2384
25387SOL     OW76738   2.764   9.676   2.132  0.1202  0.1693  0.1588
25387SOL    HW176739   2.833   9.645   2.190  1.4714 -0.3521 -1.6563
25387SOL    HW276740   2.761   9.612   2.061 -1.0489  1.1267 -0.7042
25388SOL     OW76741   8.198   7.161   8.496 -0.1003  0.1220  0.9900
25388SOL    HW176742   8.232   7.085   8.450  2.3274  2.8210 -2.1665
25388SOL    HW276743   8.124   7.190   8.443  1.2489  1.9196 -0.0245
25389SOL     OW76744   5.922   6.517   6.808  0.0150 -0.4703 -0.1833
25389SOL    HW176745   6.003   6.545   6.850  1.0514  0.1818 -2.4683
25389SOL    HW276746   5.948   6.490   6.720 -2.3121  0.2564 -1.1890
25390SOL     OW76747   7.115   2.659   5.815  0.2215 -0.6207 -0.2077
25390SOL    HW176748   7.106   2.730   5.878  1.1080 -0.7114  0.0411
25390SOL    HW276749   7.078   2.583   5.859  0.3344 -0.5623 -0.0088
25391SOL     OW76750   1.142   1.331   2.683  0.0586  0.1679  0.1633
25391SOL    HW176751   1.062   1.339   2.631 -0.1666 -1.9175  0.1014
25391SOL    HW276752   1.114   1.352   2.773 -0.5578 -0.4847  0.1330
25392SOL     OW76753   3.206   8.551   3.943  0.5150 -0.2634 -0.0214
25392SOL    HW176754   3.118   8.529   3.913  0.3028  0.5006  0.0224
25392SOL    HW276755   3.250   8.587   3.866  0.9839 -1.1431 -0.1886
25393SOL     OW76756   7.561   3.778   4.185 -0.1404  0.3423 -0.2194
25393SOL    HW176757   7.600   3.851   4.233  1.6479 -0.5865 -0.1945
25393SOL    HW276758   7.627   3.754   4.120 -0.8731 -0.9744 -0.5047
25394SOL     OW76759   7.377   1.902   7.699  0.4139  0.0708  0.2536
25394SOL    HW176760   7.395   1.818   7.740  0.3017  0.6907  1.6457
25394SOL    HW276761   7.350   1.959   7.772  1.5807  1.6194 -0.4495
25395SOL     OW76762   7.287   6.173   9.925 -0.1977  0.0276 -0.0483
25395SOL    HW176763   7.258   6.159   9.835 -1.3146  0.1671  0.2628
25395SOL    HW276764   7.227   6.120   9.978  0.2851  0.1423  0.6277
25396SOL     OW76765   5.410   9.020   1.792  0.0123  0.9063  0.6240
25396SOL    HW176766   5.457   9.103   1.806  0.2734  1.0314 -0.7989
25396SOL    HW276767   5.469   8.969   1.736 -0.7953  0.3497  0.2677
25397SOL     OW76768   8.143   4.672   5.285  0.0333  0.3614  0.0252
25397SOL    HW176769   8.220   4.639   5.237  0.9221  2.7850 -0.3742
25397SOL    HW276770   8.071   4.615   5.257  1.7128 -2.2965  0.7584
25398SOL     OW76771   7.379   4.673   7.362 -0.2617  0.5607 -0.0570
25398SOL    HW176772   7.321   4.657   7.287 -1.8637  0.1176  1.2219
25398SOL    HW276773   7.466   4.644   7.332 -1.0027 -0.2717 -1.4978
25399SOL     OW76774   6.282   9.335   5.922 -0.7623 -0.0277 -0.1458
25399SOL    HW176775   6.370   9.316   5.953 -1.0455  0.0586  0.7561
25399SOL    HW276776   6.294   9.377   5.837  0.0737  0.2089  0.0845
25400SOL     OW76777   6.449   4.071   3.312  0.2887 -0.3967  0.5219
25400SOL    HW176778   6.478   4.016   3.384  1.4220 -2.6045 -1.4813
25400SOL    HW276779   6.356   4.086   3.329  0.5432 -0.7949  2.4322
25401SOL     OW76780   6.178   7.956   6.151 -0.0570 -0.0729  0.1498
25401SOL    HW176781   6.119   7.939   6.078 -0.6266 -2.0618  0.9978
25401SOL    HW276782   6.127   7.935   6.229  1.8391 -2.5086  0.9093
25402SOL     OW76783   1.962   5.143   6.876 -0.0998  0.2344  0.5591
25402SOL    HW176784   2.030   5.088   6.914 -0.2977  0.0523  0.6495
25402SOL    HW276785   1.977   5.139   6.782 -0.7851 -0.8595  0.4802
25403SOL     OW76786   2.126   2.060   3.813 -0.3753  0.2335  0.3281
25403SOL    HW176787   2.096   2.019   3.895 -0.9094 -1.5540 -0.7043
25403SOL    HW276788   2.187   1.996   3.776 -1.3980  0.2371 -1.4547
25404SOL     OW76789   0.811   6.705   5.993 -0.5946 -0.6461 -0.2705
25404SOL    HW176790   0.860   6.627   5.968 -2.7423 -1.6265 -1.7549
25404SOL    HW276791   0.751   6.721   5.920 -0.6837  2.0457  0.2743
25405SOL     OW76792   8.979   9.656   7.430 -0.2270  0.3659 -0.3377
25405SOL    HW176793   8.902   9.704   7.399  0.2460  1.5675  0.2662
25405SOL    HW276794   9.053   9.705   7.394  0.2737 -0.0467  0.1133
25406SOL     OW76795   4.301   1.986   0.716 -0.2758 -0.3646 -0.6161
25406SOL    HW176796   4.233   1.919   0.705 -0.4784 -0.5989  1.5958
25406SOL    HW276797   4.255   2.061   0.754  0.6594 -0.5966  1.1072
25407SOL     OW76798   4.887   1.134   5.559  0.1123  0.2940  0.2794
25407SOL    HW176799   4.911   1.217   5.519 -1.5666  1.1559  0.9721
25407SOL    HW276800   4.805   1.152   5.604  0.2046 -1.5070  1.2488
25408SOL     OW76801   6.943   0.933   8.812  0.3978  0.1723 -0.5046
25408SOL    HW176802   6.961   1.023   8.838  0.8428  0.0443 -0.3528
25408SOL    HW276803   6.849   0.922   8.826  0.3162  0.6534 -0.6586
25409SOL     OW76804   3.621   8.882   2.302 -0.0652 -0.7920 -0.3330
25409SOL    HW176805   3.548   8.914   2.248  1.6001  0.6413 -1.8701
25409SOL    HW276806   3.627   8.945   2.374  0.4827 -0.1008 -0.9662
25410SOL     OW76807   5.827   7.454   1.111 -0.4211  0.2006  0.2549
25410SOL    HW176808   5.863   7.500   1.035 -1.4387 -2.1431 -1.7618
25410SOL    HW276809   5.901   7.405   1.146 -0.1745  0.5300  0.2051
25411SOL     OW76810   2.636   9.613   5.567  0.1757  0.0188  0.6612
25411SOL    HW176811   2.593   9.602   5.483  0.2177  0.2383  0.6084
25411SOL    HW276812   2.566   9.639   5.627  0.3638  1.2589  0.3786
25412SOL     OW76813   8.640   0.935   5.302 -0.5469 -0.8256  0.0524
25412SOL    HW176814   8.651   0.968   5.213 -1.4893 -1.1296 -0.1833
25412SOL    HW276815   8.665   1.008   5.358 -0.1183 -0.5717 -0.4589
25413SOL     OW76816   6.551   3.261   4.704 -0.1121  0.0283  0.5303
25413SOL    HW176817   6.533   3.354   4.719  0.9188  0.1129  1.3305
25413SOL    HW276818   6.645   3.257   4.689  0.0748 -1.0417  1.8477
25414SOL     OW76819   4.733   8.552   5.461 -0.1185 -0.1096  0.0540
25414SOL    HW176820   4.789   8.489   5.507  0.9520  0.3533 -0.6036
25414SOL    HW276821   4.724   8.515   5.373  1.4762  1.2023 -0.7041
25415SOL     OW76822   6.179   0.649   2.644  0.3309 -0.2071  0.3765
25415SOL    HW176823   6.084   0.660   2.637  0.4230  1.2529  1.0727
25415SOL    HW276824   6.207   0.627   2.555 -1.0579 -4.8912  0.8212
25416SOL     OW76825   9.829   1.628   7.277  0.1311 -0.6769 -0.2564
25416SOL    HW176826   9.783   1.639   7.361  0.8193 -0.6131  0.1205
25416SOL    HW276827   9.838   1.533   7.267 -0.4130 -0.7054 -0.5205
25417SOL     OW76828   1.717   2.392   1.404  0.5177 -0.0375  0.2681
25417SOL    HW176829   1.678   2.421   1.486  0.1687  1.1479 -0.3018
25417SOL    HW276830   1.785   2.456   1.385  2.3448 -1.6970  0.8871
25418SOL     OW76831   5.101   9.281   1.402 -0.4235 -0.3290 -0.5750
25418SOL    HW176832   5.126   9.362   1.447  1.1253 -2.0025  1.8475
25418SOL    HW276833   5.171   9.219   1.424 -1.3793 -2.2610 -2.5941
25419SOL     OW76834   8.301   1.983   2.178  0.2112  0.0241  0.4368
25419SOL    HW176835   8.277   1.924   2.250  0.2114 -0.5458 -0.0138
25419SOL    HW276836   8.227   1.976   2.117  1.3677 -1.5908 -0.8732
25420SOL     OW76837   4.685   1.621   9.200  0.1406 -0.0134  0.2537
25420SOL    HW176838   4.648   1.579   9.122 -1.4009  0.6795  0.5663
25420SOL    HW276839   4.634   1.702   9.210  1.5166  0.8062  0.9568
25421SOL     OW76840   3.757   4.112   9.640  0.9801 -0.6794 -0.3674
25421SOL    HW176841   3.790   4.107   9.550  0.2498  1.5045 -0.8298
25421SOL    HW276842   3.831   4.089   9.695  1.3883 -2.2387 -1.5264
25422SOL     OW76843   2.622   0.587   4.704  0.1081 -0.3666  0.4101
25422SOL    HW176844   2.667   0.668   4.680 -0.5132  0.5392  2.1042
25422SOL    HW276845   2.552   0.578   4.640  1.7713 -1.0307 -1.3946
25423SOL     OW76846   0.304   4.131   4.275 -0.4026 -0.2222 -0.4889
25423SOL    HW176847   0.353   4.157   4.197 -2.4204 -0.0748 -1.7695
25423SOL    HW276848   0.332   4.040   4.291  1.4468  0.3552 -0.1805
25424SOL     OW76849   7.144   5.590   1.765  0.4523 -0.1164  0.1977
25424SOL    HW176850   7.054   5.581   1.734  0.6191 -0.8504 -0.1021
25424SOL    HW276851   7.172   5.500   1.783  1.3478  0.0341 -0.3722
25425SOL     OW76852   9.279   3.653   4.408 -0.0217 -0.2648 -0.3095
25425SOL    HW176853   9.331   3.573   4.422  0.2437  0.2821  2.6363
25425SOL    HW276854   9.194   3.633   4.446 -0.7191  0.1589 -1.5898
25426SOL     OW76855   4.871   8.552   0.182 -0.1340 -0.3553  0.1832
25426SOL    HW176856   4.854   8.567   0.275 -0.1986 -0.7058  0.2276
25426SOL    HW276857   4.793   8.587   0.138  0.3193  0.7084  0.1864
25427SOL     OW76858   2.178   8.245   8.005 -0.8357  0.3571  0.0329
25427SOL    HW176859   2.183   8.287   8.091  0.7675 -1.1387  0.7166
25427SOL    HW276860   2.160   8.153   8.024  1.3139 -0.3481 -1.0977
25428SOL     OW76861   4.982   5.630   6.254  0.0821  0.6383 -0.5376
25428SOL    HW176862   5.017   5.702   6.306 -0.1326  0.8128 -0.6348
25428SOL    HW276863   4.891   5.622   6.283  0.6883 -1.1068  1.1854
25429SOL     OW76864   8.172   4.155   1.599  0.2164 -0.4466 -0.4520
25429SOL    HW176865   8.085   4.133   1.565 -0.0831 -0.4656  0.3026
25429SOL    HW276866   8.200   4.229   1.545 -1.0764  0.7752  0.4609
25430SOL     OW76867   7.201   0.403   7.712  0.2462 -0.1383 -0.1412
25430SOL    HW176868   7.137   0.395   7.641  2.3713  1.2123 -2.3826
25430SOL    HW276869   7.181   0.487   7.753  0.0714 -0.1157 -0.2698
25431SOL     OW76870   7.496   8.419   9.539  0.1817 -0.4220 -0.5023
25431SOL    HW176871   7.490   8.442   9.446 -0.1055  1.0338 -0.1378
25431SOL    HW276872   7.488   8.323   9.540 -1.1405 -0.3698 -1.8716
25432SOL     OW76873   1.585   0.649   9.423 -0.1629 -0.3648  0.2992
25432SOL    HW176874   1.571   0.694   9.507 -0.8884 -0.8882  0.4706
25432SOL    HW276875   1.633   0.570   9.447 -0.5985 -0.6454  0.2653
25433SOL     OW76876   8.632   1.499   2.569 -0.4388  0.0786 -0.2016
25433SOL    HW176877   8.561   1.436   2.556 -1.0478  0.7976 -0.4293
25433SOL    HW276878   8.601   1.579   2.525  1.4015 -0.2130 -2.1976
25434SOL     OW76879   9.479   1.210   4.737  0.3852 -0.2712  0.7132
25434SOL    HW176880   9.494   1.234   4.646  0.0456  0.1432  0.7664
25434SOL    HW276881   9.437   1.286   4.776 -0.2954 -0.7765  0.9917
25435SOL     OW76882   3.499   5.321   9.952 -0.1123 -0.2532  0.4529
25435SOL    HW176883   3.513   5.227   9.960 -1.1389 -0.6805 -1.9671
25435SOL    HW276884   3.585   5.356   9.929 -0.0130 -0.8250 -0.0811
25436SOL     OW76885   9.300   5.352   6.898 -0.1746 -0.0669 -0.7449
25436SOL    HW176886   9.332   5.355   6.988  1.7915  0.8185 -1.4241
25436SOL    HW276887   9.276   5.442   6.878 -3.1408 -0.6657 -0.3244
25437SOL     OW76888   2.815   5.135   7.644 -0.4984  0.3805  0.1448
25437SOL    HW176889   2.809   5.144   7.739 -2.5173  0.1168  0.0968
25437SOL    HW276890   2.901   5.170   7.621  0.8812 -1.3725  2.2652
25438SOL     OW76891   7.731   8.909   7.460  0.3119  0.8157  0.4356
25438SOL    HW176892   7.716   8.941   7.371  1.1044  0.4309  0.1614
25438SOL    HW276893   7.805   8.961   7.492  0.4670  0.4796  0.6269
25439SOL     OW76894   4.989   2.384   6.896 -0.1541  0.1787 -0.1930
25439SOL    HW176895   5.032   2.350   6.975  1.1881 -0.2758 -1.0846
25439SOL    HW276896   4.924   2.318   6.875 -1.8765  1.1997  1.5631
25440SOL     OW76897   9.761   4.941   9.421  0.3181 -0.6992 -0.1658
25440SOL    HW176898   9.839   4.984   9.387  1.7659 -2.0845  1.1935
25440SOL    HW276899   9.724   5.004   9.483 -0.0277  0.2220 -1.2915
25441SOL     OW76900   8.707   4.279   5.477  0.1100  0.4433 -0.1903
25441SOL    HW176901   8.703   4.185   5.493  0.9865  0.6824  1.6951
25441SOL    HW276902   8.618   4.301   5.448 -0.7938 -0.6450  1.5077
25442SOL     OW76903   0.934   0.173   5.384 -0.3224 -0.0228 -0.0745
25442SOL    HW176904   0.844   0.153   5.408 -0.4749 -2.2607 -2.1619
25442SOL    HW276905   0.943   0.141   5.294  2.0653  1.7722 -0.5837
25443SOL     OW76906   1.953   8.515   4.671  0.1937 -0.2673  0.0306
25443SOL    HW176907   1.900   8.437   4.689  0.1074 -0.0459  0.7904
25443SOL    HW276908   1.899   8.587   4.702  1.4683 -0.1212  2.1162
25444SOL     OW76909   1.735   6.220   0.614  0.0208  0.6547 -0.0837
25444SOL    HW176910   1.799   6.153   0.591 -0.1120  0.9568 -1.4516
25444SOL    HW276911   1.664   6.208   0.550 -1.3105  0.3188  1.3897
25445SOL     OW76912   6.226   7.935   9.263 -1.0549 -0.3126  0.4583
25445SOL    HW176913   6.294   7.872   9.238 -0.0955  1.2787 -1.2105
25445SOL    HW276914   6.152   7.881   9.290 -0.2244 -2.1571 -0.7570
25446SOL     OW76915   2.161   6.402   7.522 -0.4359  0.2947  0.0083
25446SOL    HW176916   2.212   6.407   7.441  1.0607 -0.9941  0.8012
25446SOL    HW276917   2.118   6.316   7.519  0.0154  0.0245  0.7569
25447SOL     OW76918   7.124   9.502   4.872 -0.2169 -0.1901 -0.0551
25447SOL    HW176919   7.165   9.552   4.942 -1.4982 -0.4526  0.9084
25447SOL    HW276920   7.052   9.455   4.914 -1.0370 -0.3361 -1.5437
25448SOL     OW76921   6.773   7.638   5.998  0.5932  0.5382  0.3834
25448SOL    HW176922   6.739   7.602   6.080 -0.3054 -0.3513 -0.3499
25448SOL    HW276923   6.700   7.631   5.937  1.9081 -1.0450 -1.1417
25449SOL     OW76924   2.666   8.975   7.060  0.5862 -0.1396 -0.3200
25449SOL    HW176925   2.663   8.889   7.103 -0.0870 -0.7320 -1.4878
25449SOL    HW276926   2.685   9.036   7.131 -0.2581 -1.0993  0.7938
25450SOL     OW76927   7.143   1.421   1.142 -0.4302 -0.4191 -0.1385
25450SOL    HW176928   7.160   1.372   1.062 -0.1846 -0.7046  0.0868
25450SOL    HW276929   7.092   1.361   1.197  1.3938 -1.1102  0.8626
25451SOL     OW76930   9.495   7.986   9.211  0.5935  0.4179  0.5150
25451SOL    HW176931   9.521   7.975   9.303  3.3007  0.7570 -0.1333
25451SOL    HW276932   9.422   7.925   9.200  0.8702 -0.3879  2.6230
25452SOL     OW76933   7.927   9.857   8.808 -0.4968 -0.3238 -0.1275
25452SOL    HW176934   7.882   9.806   8.740  0.6350 -1.2158 -0.2342
25452SOL    HW276935   8.017   9.864   8.777 -0.7270  2.4150 -0.4809
25453SOL     OW76936   2.836   1.149   4.765  0.1805  0.2312 -0.2540
25453SOL    HW176937   2.871   1.218   4.822  1.0726  0.1045 -0.6342
25453SOL    HW276938   2.743   1.170   4.756  0.2768  0.9268  0.2792
25454SOL     OW76939   3.106   5.403   0.923  0.1859 -0.2174  0.2245
25454SOL    HW176940   3.079   5.359   0.842 -0.2236  0.5614 -0.0763
25454SOL    HW276941   3.198   5.381   0.934 -0.2803 -2.0594  0.6800
25455SOL     OW76942   5.584   0.168   4.956 -0.5927  0.1830 -0.1967
25455SOL    HW176943   5.671   0.198   4.983  0.2047 -0.4536 -1.9063
25455SOL    HW276944   5.584   0.074   4.974 -2.1010  0.6356  2.6422
25456SOL     OW76945   0.568   1.429   4.055  0.3788 -0.1382  0.0424
25456SOL    HW176946   0.530   1.508   4.017  1.7278 -0.1846 -1.5059
25456SOL    HW276947   0.597   1.456   4.142  1.0631  1.1493 -0.5611
25457SOL     OW76948   2.787   1.029   5.348 -0.2979 -0.1149 -0.0694
25457SOL    HW176949   2.822   0.994   5.266 -1.2115 -0.1628 -0.4452
25457SOL    HW276950   2.766   0.951   5.400  0.8305 -0.0861  0.4678
25458SOL     OW76951   0.237   8.574   9.587 -0.1895 -0.0536 -0.0592
25458SOL    HW176952   0.194   8.607   9.665  0.8013 -0.1725  0.5546
25458SOL    HW276953   0.314   8.527   9.620 -1.4935 -3.0035 -0.8633
25459SOL     OW76954   1.862   8.766   3.402  0.2701 -0.3752 -0.1864
25459SOL    HW176955   1.866   8.671   3.400  1.1884 -0.3423 -0.3065
25459SOL    HW276956   1.805   8.786   3.476  1.1167 -1.0017  0.6576
25460SOL     OW76957   7.097   3.077   0.142 -0.3757  0.2415  0.6627
25460SOL    HW176958   7.111   3.044   0.053 -0.1950  0.3216  0.6597
25460SOL    HW276959   7.084   2.998   0.194  2.2090 -0.0448  1.0371
25461SOL     OW76960   0.457   9.215   1.428  0.5055 -0.5757 -0.0717
25461SOL    HW176961   0.446   9.219   1.523  1.6775  1.1705  0.0395
25461SOL    HW276962   0.456   9.122   1.408 -1.0787 -0.9507  1.4660
25462SOL     OW76963   9.186   1.498   4.198 -0.3350  0.0644 -0.4848
25462SOL    HW176964   9.172   1.548   4.278  1.4544 -0.0921 -0.0251
25462SOL    HW276965   9.170   1.407   4.224 -0.8038  0.1185 -0.5840
25463SOL     OW76966   1.048   2.531   5.398 -0.0945  0.1426  0.0453
25463SOL    HW176967   1.056   2.527   5.302  0.4941  0.7625  0.0599
25463SOL    HW276968   1.072   2.444   5.428  1.0717  0.3307 -0.2939
25464SOL     OW76969   6.089   5.645   0.155 -0.4638 -0.6062  0.1570
25464SOL    HW176970   6.143   5.623   0.231 -1.8632 -1.5748  0.9199
25464SOL    HW276971   6.104   5.739   0.141  1.5891 -0.8958  0.1559
25465SOL     OW76972   8.916   2.521   0.250  0.0606 -0.5480  0.1188
25465SOL    HW176973   8.904   2.449   0.312 -1.4746  0.1057  0.6184
25465SOL    HW276974   8.858   2.590   0.281  2.6944  1.6278  0.6791
25466SOL     OW76975   6.781   4.618   0.300 -0.1097 -0.3404 -0.4712
25466SOL    HW176976   6.834   4.698   0.299  0.6678 -0.8433 -0.9738
25466SOL    HW276977   6.694   4.647   0.273  0.1431  0.3526 -0.5723
25467SOL     OW76978   4.523   7.089   8.000  0.5005 -0.3557 -0.3136
25467SOL    HW176979   4.521   7.026   7.928 -1.4821 -2.0567  1.1209
25467SOL    HW276980   4.613   7.123   7.999  1.3731 -2.5111 -1.7210
25468SOL     OW76981   5.924   0.390   4.487 -0.2428 -0.4609 -0.4378
25468SOL    HW176982   5.984   0.331   4.440 -1.3138 -1.1424 -0.9925
25468SOL    HW276983   5.958   0.478   4.470  1.4092 -0.8940  0.4244
25469SOL     OW76984   0.581   7.567   1.691 -0.5139 -0.1038  0.0824
25469SOL    HW176985   0.587   7.491   1.633  0.2255  0.7210 -0.9644
25469SOL    HW276986   0.525   7.629   1.644 -0.4052  0.3358  0.5202
25470SOL     OW76987   0.021   8.241   3.325 -0.1981  0.0879 -0.4756
25470SOL    HW176988   0.090   8.223   3.390  0.6312 -1.3857 -1.7001
25470SOL    HW276989  -0.056   8.198   3.361  0.0371 -0.0213 -0.0865
25471SOL     OW76990   1.454   8.091   4.151  0.5060  0.5824 -0.3483
25471SOL    HW176991   1.521   8.104   4.219  0.7816  1.6291 -0.8012
25471SOL    HW276992   1.378   8.140   4.182  0.6963  1.2256 -0.8682
25472SOL     OW76993   9.009   8.955   6.813  0.4015  0.2818 -0.4292
25472SOL    HW176994   9.028   8.861   6.815 -0.9717 -0.0074  0.9092
25472SOL    HW276995   9.081   8.995   6.862  0.0100 -0.2962  0.6463
25473SOL     OW76996   1.656   0.961   4.366 -0.9226 -0.1411 -0.8655
25473SOL    HW176997   1.652   0.893   4.298  0.0825 -0.4107 -0.6729
25473SOL    HW276998   1.582   0.942   4.423 -1.4038 -0.2978 -1.5253
25474SOL     OW76999   8.555   0.098   3.477  0.4997 -0.0245  0.6956
25474SOL    HW177000   8.499   0.175   3.470  0.0618 -0.4484 -1.1342
25474SOL    HW277001   8.630   0.118   3.422  0.8281 -0.5374  0.9514
25475SOL     OW77002   4.773   2.095   0.291 -0.3190 -0.4639  0.1424
25475SOL    HW177003   4.734   2.139   0.215 -0.2754 -1.0162 -0.2032
25475SOL    HW277004   4.727   2.133   0.366 -0.7674 -0.3292 -0.1926
25476SOL     OW77005   4.461   4.533   3.715 -0.2069 -0.2395  0.0213
25476SOL    HW177006   4.527   4.463   3.720 -0.3348 -0.4724 -1.2155
25476SOL    HW277007   4.378   4.487   3.729 -0.2262 -0.2197 -0.0257
25477SOL     OW77008   6.213   8.082   2.364 -0.0428 -0.1074 -1.1679
25477SOL    HW177009   6.296   8.115   2.329 -0.4514  1.8369 -0.4407
25477SOL    HW277010   6.213   8.111   2.456 -1.2598 -0.5857 -0.9973
25478SOL     OW77011   7.672   3.616   7.034 -0.1610  0.4950 -0.6300
25478SOL    HW177012   7.682   3.675   6.960 -0.6208  1.6008  0.1638
25478SOL    HW277013   7.586   3.637   7.071  1.0257  1.7280  1.6740
25479SOL     OW77014   0.556   4.869   8.407 -0.4489  0.1947  0.4967
25479SOL    HW177015   0.590   4.930   8.341  0.5099  0.4140  1.1715
25479SOL    HW277016   0.474   4.908   8.436 -0.6535  0.3257 -0.2416
25480SOL     OW77017   8.993   5.988   3.834  0.0228  0.2598 -0.1536
25480SOL    HW177018   8.971   5.902   3.797  0.8936 -0.3355  0.6499
25480SOL    HW277019   9.015   5.969   3.926 -1.1138  1.5476  0.4159
25481SOL     OW77020   9.199   0.991   0.319 -0.0048  0.5568  0.1738
25481SOL    HW177021   9.260   1.032   0.258 -2.1163  2.5710 -0.7676
25481SOL    HW277022   9.135   0.947   0.263 -0.9498  0.8581  0.9759
25482SOL     OW77023   2.022   1.270   2.882  0.2288 -0.6021 -0.3206
25482SOL    HW177024   1.956   1.291   2.817 -0.8543  0.8466  1.1563
25482SOL    HW277025   2.093   1.332   2.867  0.3560 -0.8270 -0.6455
25483SOL     OW77026   0.297   5.445   4.501 -0.0978 -0.0244  0.2331
25483SOL    HW177027   0.331   5.404   4.580  0.3174 -2.4010 -1.0858
25483SOL    HW277028   0.203   5.450   4.515 -0.2516 -2.0857  0.2112
25484SOL     OW77029   0.527   6.897   4.217  0.4355 -0.2096 -0.0015
25484SOL    HW177030   0.488   6.841   4.150 -1.6241  0.7640  0.2847
25484SOL    HW277031   0.607   6.930   4.177 -0.9121  0.6563 -2.2074
25485SOL     OW77032   5.346   3.212   3.512 -0.1156  0.8444 -0.1430
25485SOL    HW177033   5.292   3.289   3.498  1.3041  1.6967 -1.1285
25485SOL    HW277034   5.436   3.243   3.506  0.5079 -0.7595  0.1832
25486SOL     OW77035   9.830   2.790   1.690  0.2078  0.0636 -0.5119
25486SOL    HW177036   9.844   2.884   1.679 -0.2814  0.0012 -1.8809
25486SOL    HW277037   9.843   2.775   1.783  1.1756  1.3335 -0.4008
25487SOL     OW77038   3.295   6.902   5.300  0.0240 -0.0638  0.2163
25487SOL    HW177039   3.228   6.900   5.368  0.3670  1.4267  0.6350
25487SOL    HW277040   3.378   6.902   5.347  0.2653  1.0727 -0.1671
25488SOL     OW77041   7.967   6.441   5.058 -0.2034  0.4787  0.5142
25488SOL    HW177042   7.901   6.472   4.996 -0.8151 -2.7225 -0.6608
25488SOL    HW277043   8.028   6.390   5.005  0.4606 -0.6165  2.2397
25489SOL     OW77044  -0.005   7.544   8.136  0.6865  0.6501  0.4252
25489SOL    HW177045   0.042   7.463   8.157  1.3382  0.1280 -2.6497
25489SOL    HW277046   0.046   7.584   8.066 -0.1188  3.3321  1.2496
25490SOL     OW77047   6.237   0.061   5.248 -0.0895  0.1887 -0.1441
25490SOL    HW177048   6.325   0.096   5.235  0.5880 -0.5798  1.9594
25490SOL    HW277049   6.186   0.136   5.277  0.6164  0.1034  1.4290
25491SOL     OW77050   2.677   8.082   2.053  0.6387  0.1623 -0.1444
25491SOL    HW177051   2.712   8.063   1.965  0.9568  0.2624 -0.0411
25491SOL    HW277052   2.654   8.175   2.050 -3.1392 -0.6380 -1.4208
25492SOL     OW77053   1.556   5.869   0.532 -0.3187  0.4961 -0.0406
25492SOL    HW177054   1.648   5.866   0.505  0.6693  0.3429  2.9930
25492SOL    HW277055   1.516   5.793   0.489  1.4377 -0.5614  0.1083
25493SOL     OW77056   9.452   2.651   0.110  0.2749 -0.0658 -0.4790
25493SOL    HW177057   9.493   2.644   0.024  1.0755  1.0773 -0.2139
25493SOL    HW277058   9.368   2.694   0.092  0.2797 -0.1592 -0.7333
25494SOL     OW77059   9.269   9.765   2.436 -0.2609 -0.6934  0.1854
25494SOL    HW177060   9.243   9.854   2.460  0.0820 -0.5993  0.2149
25494SOL    HW277061   9.191   9.712   2.453  0.2095 -0.7711  2.3085
25495SOL     OW77062   4.907   8.579   2.118 -0.4436 -0.1725 -0.0667
25495SOL    HW177063   5.001   8.594   2.107 -0.4516 -0.7676 -1.1399
25495SOL    HW277064   4.901   8.495   2.164 -0.4259 -1.2521 -1.9248
25496SOL     OW77065   9.414   9.724   1.361  0.2687  0.0495  0.1237
25496SOL    HW177066   9.390   9.651   1.304 -0.3303  0.0045  0.4223
25496SOL    HW277067   9.404   9.802   1.306 -3.1570  0.3267  0.8723
25497SOL     OW77068   6.530   9.914   8.431  0.2319 -0.3729  0.1442
25497SOL    HW177069   6.509   9.949   8.344  0.3448  0.3383  0.3982
25497SOL    HW277070   6.624   9.928   8.440  0.0580  0.4789  0.7778
25498SOL     OW77071   3.169   5.893   6.074  0.4172 -0.3932 -0.1836
25498SOL    HW177072   3.253   5.908   6.030  1.2105 -0.6861  1.1653
25498SOL    HW277073   3.113   5.965   6.045  2.4693  2.3254  2.0829
25499SOL     OW77074   5.569   5.278   5.527  0.5458  0.1849 -0.3122
25499SOL    HW177075   5.503   5.332   5.571 -1.2928 -1.5275 -0.8305
25499SOL    HW277076   5.605   5.223   5.596 -0.7714 -0.9762 -0.5181
25500SOL     OW77077   9.035   8.864   0.224 -0.8190 -0.5680  0.4661
25500SOL    HW177078   8.943   8.882   0.206 -0.6426 -0.6099 -0.5908
25500SOL    HW277079   9.048   8.775   0.190 -0.0291  0.0266 -0.8965
25501SOL     OW77080   5.844   0.820   7.613  0.0742 -0.3710 -0.0690
25501SOL    HW177081   5.814   0.733   7.587 -1.6853  0.3315 -0.5052
25501SOL    HW277082   5.860   0.812   7.707  2.5499 -1.8365 -0.5286
25502SOL     OW77083   3.631   1.497   5.128  0.0440  0.0114 -0.1457
25502SOL    HW177084   3.537   1.514   5.129  0.1619  0.6814 -0.0699
25502SOL    HW277085   3.660   1.531   5.044  0.6743  2.4786  0.9634
25503SOL     OW77086   5.911   0.791   2.326  0.0976  0.2807  0.2308
25503SOL    HW177087   5.945   0.823   2.409 -0.6367 -0.6362  0.9163
25503SOL    HW277088   5.842   0.729   2.351 -0.9294  0.8392 -1.0740
25504SOL     OW77089   7.647   4.822   9.082  1.0392  0.8547 -0.0924
25504SOL    HW177090   7.670   4.789   8.995 -2.0471 -3.1464  0.3031
25504SOL    HW277091   7.717   4.790   9.139  0.0158 -2.0674 -0.3263
25505SOL     OW77092   2.282   1.123   4.026  0.3031 -0.0376  0.2900
25505SOL    HW177093   2.235   1.041   4.037 -2.0658  0.9796 -1.3455
25505SOL    HW277094   2.256   1.176   4.101  2.3445 -0.9372  1.6946
25506SOL     OW77095   0.882   7.690   6.685  0.1978 -0.1173 -0.2837
25506SOL    HW177096   0.863   7.690   6.779 -0.6442 -0.1637 -0.4520
25506SOL    HW277097   0.977   7.678   6.680  0.5054  1.6832  0.5999
25507SOL     OW77098   2.794   7.521   4.651  0.1091  0.0680 -0.3282
25507SOL    HW177099   2.868   7.491   4.703  0.7283  0.5748 -0.8881
25507SOL    HW277100   2.817   7.611   4.627  0.4230 -0.5342 -2.4948
25508SOL     OW77101   8.501   3.831   1.554 -0.5290 -0.1337  0.9548
25508SOL    HW177102   8.577   3.788   1.594 -0.1441 -0.0616  0.3038
25508SOL    HW277103   8.426   3.783   1.589 -0.1458 -0.7717  0.9241
25509SOL     OW77104   2.859   5.422   5.893 -0.0069  0.6083  0.1826
25509SOL    HW177105   2.928   5.426   5.958  0.6034  1.0411 -0.4814
25509SOL    HW277106   2.783   5.387   5.940  1.1098 -1.4627  0.5364
25510SOL     OW77107   1.986   7.928   7.656  0.1375 -0.6813 -0.7710
25510SOL    HW177108   2.069   7.901   7.695 -0.9437  1.5393  3.7573
25510SOL    HW277109   2.007   8.008   7.608  0.5632  0.2508  0.9261
25511SOL     OW77110   8.452   0.256   5.306 -0.2696  0.0852  0.7129
25511SOL    HW177111   8.511   0.195   5.351  0.0340  0.4476  0.8114
25511SOL    HW277112   8.499   0.339   5.307 -0.2338  0.0890 -0.3068
25512SOL     OW77113   3.910   2.795   2.835 -0.7082 -0.5586 -0.1232
25512SOL    HW177114   3.960   2.869   2.867 -0.0090 -0.7353 -0.7848
25512SOL    HW277115   3.974   2.740   2.789 -1.4969 -0.7767 -1.0099
25513SOL     OW77116   6.285   7.658   9.947 -0.1493  0.1446 -0.3290
25513SOL    HW177117   6.241   7.649  10.031 -0.9048 -0.5511 -0.7848
25513SOL    HW277118   6.233   7.724   9.901  0.2852  0.5516 -0.2429
25514SOL     OW77119   4.198   2.271   0.623  0.4862  0.1723  0.9886
25514SOL    HW177120   4.162   2.234   0.703 -1.3813  1.6949  0.9453
25514SOL    HW277121   4.229   2.358   0.649  0.5794  0.3759  0.2204
25515SOL     OW77122   1.621   9.008   6.511 -0.5061 -0.4807  0.0410
25515SOL    HW177123   1.703   8.979   6.472  0.0571  0.3718  0.5521
25515SOL    HW277124   1.630   8.988   6.604 -0.3329  0.7531  0.3121
25516SOL     OW77125   7.404   2.966   7.548  1.1293  0.6009 -0.4680
25516SOL    HW177126   7.470   2.898   7.559  1.6025  0.7176 -2.2541
25516SOL    HW277127   7.425   3.007   7.464 -1.5114  0.2741 -1.3924
25517SOL     OW77128   7.405   4.656   9.363  0.4405  0.6344 -0.4009
25517SOL    HW177129   7.312   4.643   9.383 -0.1517 -2.0155 -3.7927
25517SOL    HW277130   7.451   4.619   9.438 -1.3033 -0.2594  0.3020
25518SOL     OW77131   8.189   3.302   5.766  0.0506 -0.2439 -0.2592
25518SOL    HW177132   8.235   3.263   5.691  1.7679 -1.7946  1.4799
25518SOL    HW277133   8.108   3.252   5.772 -0.7673  0.8046 -1.8311
25519SOL     OW77134   3.689   9.615   8.549  0.1079  0.1315  0.4395
25519SOL    HW177135   3.666   9.544   8.490 -0.0392  0.7494 -0.2521
25519SOL    HW277136   3.617   9.618   8.612 -0.1188 -0.0220  0.1898
25520SOL     OW77137   2.495   2.509   6.092  0.3076  0.2098 -0.2042
25520SOL    HW177138   2.581   2.518   6.133  0.9766  0.4589 -1.6183
25520SOL    HW277139   2.480   2.592   6.047 -1.5418  0.9075  1.5460
25521SOL     OW77140   1.794   2.300   4.915 -0.0193 -0.6863  0.0209
25521SOL    HW177141   1.699   2.304   4.906 -0.3630  0.7392  2.9278
25521SOL    HW277142   1.824   2.254   4.837 -3.1521 -2.0916 -0.5128
25522SOL     OW77143   5.837   4.024   1.651  0.4016 -0.2251  0.8135
25522SOL    HW177144   5.908   4.086   1.639 -0.4215  0.7331  0.7415
25522SOL    HW277145   5.848   3.993   1.741  1.8309 -1.3139  0.2966
25523SOL     OW77146   3.110   3.955   9.565  0.1388 -0.3384  0.0897
25523SOL    HW177147   3.053   3.956   9.642 -0.3116  0.2518 -0.2441
25523SOL    HW277148   3.115   4.046   9.538 -2.0149 -0.7976 -2.2551
25524SOL     OW77149   6.137   5.525   8.179  0.0826 -0.9654  0.5511
25524SOL    HW177150   6.106   5.544   8.090  1.3604  0.2435  0.3344
25524SOL    HW277151   6.065   5.477   8.219 -1.8429  1.1678 -0.1322
25525SOL     OW77152   5.793   0.817   2.047 -0.5664 -0.7787 -0.3667
25525SOL    HW177153   5.795   0.905   2.010  0.7246 -0.7374 -0.2344
25525SOL    HW277154   5.825   0.828   2.137  0.4014 -1.4901 -0.6102
25526SOL     OW77155   3.822   3.169   5.881 -0.5627 -0.1209 -0.6919
25526SOL    HW177156   3.851   3.194   5.793 -0.1946  0.8732 -0.3007
25526SOL    HW277157   3.739   3.216   5.894 -1.3250 -1.3348 -1.0143
25527SOL     OW77158   5.639   0.345   2.962  0.7704  0.0271  0.1422
25527SOL    HW177159   5.683   0.263   2.983 -0.8852 -0.8342  0.3581
25527SOL    HW277160   5.638   0.349   2.867  3.0569  1.0617  0.0968
25528SOL     OW77161   4.531   0.502   0.307  0.9635 -0.7977 -0.1042
25528SOL    HW177162   4.486   0.493   0.223  0.7267 -1.5076  0.0893
25528SOL    HW277163   4.558   0.413   0.329  0.6138 -0.6972  0.7952
25529SOL     OW77164   1.077   5.941   0.540 -0.3466  0.1911 -0.0956
25529SOL    HW177165   1.097   6.034   0.532 -2.3737  0.6505 -0.3362
25529SOL    HW277166   1.010   5.937   0.608  0.5510 -1.2447  0.7527
25530SOL     OW77167   0.117   0.545   4.968 -0.0485 -0.1584  0.5938
25530SOL    HW177168   0.042   0.595   4.998  0.0615  1.0933 -1.0810
25530SOL    HW277169   0.192   0.604   4.977  0.4582 -0.7798  0.6177
25531SOL     OW77170   8.835   2.779   3.111 -0.1332 -0.0166 -0.1315
25531SOL    HW177171   8.846   2.770   3.206  0.2273 -1.7477 -0.3104
25531SOL    HW277172   8.769   2.848   3.101 -0.6547 -0.2575  1.3931
25532SOL     OW77173   5.368   6.793   8.703  0.1433 -0.1432  0.0002
25532SOL    HW177174   5.460   6.766   8.694  0.1006  0.1725 -1.6550
25532SOL    HW277175   5.372   6.886   8.725  0.2376  0.2976 -1.7484
25533SOL     OW77176   2.211   4.502   3.978 -0.1065 -0.2494  0.0741
25533SOL    HW177177   2.144   4.442   3.945 -0.2460  0.4733 -1.0145
25533SOL    HW277178   2.293   4.453   3.969 -0.2185 -0.3020 -0.8131
25534SOL     OW77179   7.136   3.287   1.857  0.0133 -0.4197  0.3016
25534SOL    HW177180   7.099   3.325   1.937 -2.9740 -0.3226 -1.0050
25534SOL    HW277181   7.121   3.192   1.867  2.0478 -0.7208  0.9422
25535SOL     OW77182   7.939   4.759   0.224  0.2309 -0.2244  0.0291
25535SOL    HW177183   8.025   4.800   0.234  0.7748 -1.5519  1.1205
25535SOL    HW277184   7.913   4.778   0.134  1.9268 -0.2784 -0.4959
25536SOL     OW77185   0.945   8.544   7.543  0.0994 -0.2226 -0.6415
25536SOL    HW177186   0.912   8.521   7.456  0.8402  1.2738 -1.3717
25536SOL    HW277187   0.955   8.639   7.540  0.2827 -0.1552  1.0448
25537SOL     OW77188   0.149   0.923   9.105 -0.0979  0.1676 -0.1915
25537SOL    HW177189   0.205   0.981   9.053 -0.8818  2.0831  1.0167
25537SOL    HW277190   0.095   0.877   9.040  0.5389  0.7889 -1.1797
25538SOL     OW77191   5.634   1.123   5.269 -0.1957 -0.4017  0.7279
25538SOL    HW177192   5.554   1.109   5.219 -0.4741 -0.3368  1.1506
25538SOL    HW277193   5.618   1.204   5.319  0.2948 -0.1482  0.4893
25539SOL     OW77194   1.651   1.620   7.887  0.5937  0.3217  0.2423
25539SOL    HW177195   1.624   1.689   7.947 -0.2179  0.9237 -0.7841
25539SOL    HW277196   1.675   1.666   7.807 -0.9942 -0.6157 -0.8297
25540SOL     OW77197   1.468   4.527   3.168 -0.8633  0.4706  0.0276
25540SOL    HW177198   1.380   4.489   3.167 -1.2908  1.3244 -2.7407
25540SOL    HW277199   1.508   4.499   3.086  0.7392  1.6993  0.3318
25541SOL     OW77200   1.736   6.816   0.643 -0.2374 -0.3559 -0.0276
25541SOL    HW177201   1.751   6.744   0.582  1.5430  1.8739 -2.4262
25541SOL    HW277202   1.822   6.833   0.682 -1.0179 -0.6664  1.9549
25542SOL     OW77203   3.611   7.943   9.724 -0.1485  0.3563 -0.1831
25542SOL    HW177204   3.601   8.020   9.780 -0.4224  0.2691 -0.1136
25542SOL    HW277205   3.641   7.874   9.784  0.3317  0.4691 -0.2880
25543SOL     OW77206   9.677   7.950   1.966 -0.1902 -0.8625  0.1156
25543SOL    HW177207   9.658   7.894   1.891 -0.4405  0.5030 -0.8870
25543SOL    HW277208   9.633   8.033   1.946 -0.3600 -0.4982  1.8408
25544SOL     OW77209   9.105   3.020   1.332  0.4853  0.4107  0.3880
25544SOL    HW177210   9.032   3.002   1.272  1.4196  0.6753 -0.8735
25544SOL    HW277211   9.063   3.049   1.413 -0.8251 -0.3594  0.0071
25545SOL     OW77212   8.774   1.596   4.945  0.1291  0.3918  0.1635
25545SOL    HW177213   8.729   1.664   4.895  1.4574  0.2718 -1.2941
25545SOL    HW277214   8.706   1.530   4.962 -0.7729  1.2791  0.0719
25546SOL     OW77215   1.958   0.586   2.849  0.4056 -0.0050 -0.6570
25546SOL    HW177216   2.007   0.566   2.929 -1.5908 -0.0196  0.6312
25546SOL    HW277217   1.893   0.516   2.843  1.7835 -1.2403 -3.5180
25547SOL     OW77218   4.745   9.935   4.241  0.5475 -0.0846  0.2383
25547SOL    HW177219   4.750   9.931   4.337 -0.2041 -0.2825  0.2732
25547SOL    HW277220   4.810   9.872   4.212 -0.2212 -1.1061  0.6459
25548SOL     OW77221   3.593   6.861   5.882  0.3068  0.0694  0.2732
25548SOL    HW177222   3.545   6.937   5.914  0.8157  0.3751  0.3337
25548SOL    HW277223   3.680   6.896   5.861  0.3962 -0.4054 -0.1413
25549SOL     OW77224   8.840   6.711   3.132 -0.1421 -0.5826  0.6719
25549SOL    HW177225   8.863   6.781   3.071 -1.4225  0.4722  1.3703
25549SOL    HW277226   8.758   6.675   3.099  0.1845 -1.3421  0.6682
25550SOL     OW77227   7.986   3.180   1.545  0.4846  0.2727 -0.0660
25550SOL    HW177228   8.002   3.175   1.639  0.0025  0.0771  0.0082
25550SOL    HW277229   7.949   3.095   1.522  1.0050  0.1571 -0.5160
25551SOL     OW77230   1.293   4.759   4.129  0.2595  0.0593 -0.1524
25551SOL    HW177231   1.383   4.738   4.104  0.4776 -0.2822  0.8561
25551SOL    HW277232   1.243   4.751   4.048  1.0657 -0.1701 -0.6417
25552SOL     OW77233   7.601   3.267   8.681 -0.2667 -0.1715  0.2185
25552SOL    HW177234   7.614   3.260   8.776 -1.8711  0.4494  0.5237
25552SOL    HW277235   7.508   3.288   8.672  0.2717  1.7493 -1.3959
25553SOL     OW77236   6.145   8.301   6.719 -0.4863 -0.0465  0.0215
25553SOL    HW177237   6.158   8.235   6.651  0.1288  0.5999 -0.5105
25553SOL    HW277238   6.135   8.383   6.670 -0.3531  0.3781  0.7012
25554SOL     OW77239   2.376   9.140   2.769 -0.5328  0.0710 -0.2385
25554SOL    HW177240   2.365   9.229   2.804 -0.0739  0.7660 -1.7554
25554SOL    HW277241   2.404   9.154   2.678  0.0528 -1.6369 -0.3482
25555SOL     OW77242   9.811   6.690   3.353  0.2722 -0.2427 -0.3281
25555SOL    HW177243   9.728   6.734   3.373  0.6923  0.3983  0.0015
25555SOL    HW277244   9.877   6.758   3.357  0.7538 -0.6321 -1.1759
25556SOL     OW77245   1.902   0.917   3.179 -0.0637  0.0209 -0.4018
25556SOL    HW177246   1.987   0.897   3.218  0.2429  0.5871 -0.7721
25556SOL    HW277247   1.843   0.927   3.254  0.2934  0.0700 -0.1272
25557SOL     OW77248   6.794   4.190   5.064 -0.7427  0.1070 -0.3933
25557SOL    HW177249   6.766   4.135   4.990  1.8007 -1.8018 -0.0867
25557SOL    HW277250   6.785   4.280   5.031 -1.1597 -0.6218 -2.4667
25558SOL     OW77251   6.692   9.828   0.522  0.3666 -0.1416  0.7649
25558SOL    HW177252   6.648   9.913   0.524  0.7596  0.0557  1.1140
25558SOL    HW277253   6.633   9.772   0.472  0.8616  0.7689 -0.9620
25559SOL     OW77254   7.128   4.183   6.336 -0.8731  0.1104  0.1251
25559SOL    HW177255   7.071   4.117   6.375 -0.1269 -0.4882  0.2351
25559SOL    HW277256   7.081   4.266   6.348 -1.6095 -0.3388  0.4010
25560SOL     OW77257   7.521   8.030   1.767 -0.0484 -0.1903 -0.5034
25560SOL    HW177258   7.596   8.085   1.742 -0.0605  0.4591  0.8094
25560SOL    HW277259   7.447   8.091   1.773 -0.5164 -0.6933 -0.9828
25561SOL     OW77260   4.938   8.194   2.464 -0.2332  0.3345  0.0313
25561SOL    HW177261   4.888   8.192   2.546  1.3583 -1.0931  1.0293
25561SOL    HW277262   4.935   8.104   2.432  1.4941  0.2665  0.0056
25562SOL     OW77263   5.642   8.868   7.265  0.3639  0.0704  0.5198
25562SOL    HW177264   5.575   8.926   7.300 -0.8702 -0.9584 -0.0817
25562SOL    HW277265   5.620   8.781   7.299 -1.6929 -1.2882 -3.5444
25563SOL     OW77266   6.004   6.392   9.303 -0.1669  0.0381 -0.2404
25563SOL    HW177267   5.950   6.341   9.363  0.0476 -0.2675 -0.3048
25563SOL    HW277268   6.049   6.455   9.359  0.7010 -0.8109  0.0499
25564SOL     OW77269   6.337   4.640   0.410 -0.0763  0.3387 -0.0680
25564SOL    HW177270   6.305   4.631   0.500  1.9226 -0.0633  0.6550
25564SOL    HW277271   6.323   4.555   0.371  0.0193  0.1942  0.2080
25565SOL     OW77272   9.453   4.784   0.422  0.1119 -0.4317 -0.2520
25565SOL    HW177273   9.384   4.843   0.453  1.4648  1.5042 -0.7249
25565SOL    HW277274   9.530   4.840   0.413  1.2264 -2.0770 -1.6942
25566SOL     OW77275   4.354   9.706   8.964 -0.3204  0.2758  0.3761
25566SOL    HW177276   4.301   9.716   8.885  1.4549  3.3145 -0.5763
25566SOL    HW277277   4.310   9.762   9.028  1.6103  2.9627 -0.4723
25567SOL     OW77278   3.626   3.471   9.734 -0.1126 -0.0294 -0.2773
25567SOL    HW177279   3.565   3.401   9.708 -0.0462  0.4417 -1.7832
25567SOL    HW277280   3.705   3.425   9.759  0.0755 -0.5221 -1.6635
25568SOL     OW77281   7.274   8.673   5.195 -0.2674 -0.1032  0.1355
25568SOL    HW177282   7.268   8.600   5.133  0.0042  1.1468 -1.4422
25568SOL    HW277283   7.262   8.751   5.140  1.2739  1.1259  1.4560
25569SOL     OW77284   0.918   7.988   0.762 -0.7660 -0.2890  0.1309
25569SOL    HW177285   0.890   8.016   0.674 -0.1842  0.0579  0.0480
25569SOL    HW277286   0.845   7.937   0.795 -0.2603 -2.0587 -1.3142
25570SOL     OW77287   4.206   9.098   6.673  0.1623 -0.2492  0.3947
25570SOL    HW177288   4.296   9.109   6.645 -0.6942  2.3893 -1.6792
25570SOL    HW277289   4.192   9.167   6.738 -0.8413  0.5629 -0.6541
25571SOL     OW77290   0.150   5.481   9.839  0.0173 -0.1743  0.2132
25571SOL    HW177291   0.187   5.403   9.879  0.9728 -0.8968 -1.9347
25571SOL    HW277292   0.224   5.541   9.830 -0.5508  0.7000  1.1257
25572SOL     OW77293   1.789   3.251   2.233  0.3313 -0.3617 -0.4411
25572SOL    HW177294   1.851   3.279   2.301 -1.2727  0.9161  0.5731
25572SOL    HW277295   1.790   3.323   2.169 -0.3029 -0.1843 -0.2597
25573SOL     OW77296   2.122   4.957   9.282 -0.0494 -0.0041  0.7135
25573SOL    HW177297   2.130   4.980   9.190 -0.4099 -3.1582 -0.1879
25573SOL    HW277298   2.203   4.911   9.303  0.1152  0.8304  2.0876
25574SOL     OW77299   5.314   3.721   1.838  0.1959  0.1944 -0.3564
25574SOL    HW177300   5.326   3.799   1.783  0.5946 -0.9377 -1.9373
25574SOL    HW277301   5.256   3.665   1.787  0.5459 -0.8723  0.3888
25575SOL     OW77302   9.629   2.813   8.414  0.1901  0.4974 -0.3729
25575SOL    HW177303   9.534   2.809   8.423  0.1773 -1.8082 -0.8853
25575SOL    HW277304   9.646   2.781   8.325  1.4647  0.8516 -0.2760
25576SOL     OW77305   6.191   9.670   3.148  0.4104 -0.9522  0.0737
25576SOL    HW177306   6.137   9.748   3.162  1.0772 -0.7774  1.8663
25576SOL    HW277307   6.132   9.597   3.167  0.1129 -0.8739 -0.4953
25577SOL     OW77308   4.037   6.577   5.854 -0.3669 -0.5493 -0.6689
25577SOL    HW177309   3.973   6.512   5.826  0.3822 -0.7813 -1.9420
25577SOL    HW277310   4.110   6.567   5.793 -0.6964  2.2714 -1.7098
25578SOL     OW77311   6.440   6.267   4.422 -0.2749 -0.1726  0.3842
25578SOL    HW177312   6.534   6.284   4.429 -0.5494  1.3359  0.8537
25578SOL    HW277313   6.412   6.320   4.347 -0.5855 -1.4616 -0.4403
25579SOL     OW77314   1.587   8.254   6.430  0.3598  0.1279 -0.7380
25579SOL    HW177315   1.576   8.160   6.444  0.5019  0.0946 -0.8530
25579SOL    HW277316   1.660   8.279   6.486 -0.3722  0.3783  0.1349
25580SOL     OW77317   7.050   1.348   2.786  0.0358  0.3060 -0.0225
25580SOL    HW177318   7.110   1.400   2.733 -0.1244 -0.1188 -0.6351
25580SOL    HW277319   6.989   1.310   2.723  0.2138 -0.7011  0.3862
25581SOL     OW77320   7.029   6.424   3.301  0.2660  0.0325 -0.5262
25581SOL    HW177321   6.995   6.455   3.386 -0.5466 -0.2501 -0.7369
25581SOL    HW277322   7.055   6.334   3.318 -1.0911 -0.4501 -0.8655
25582SOL     OW77323   8.290   8.929   9.806 -0.2088 -0.3622 -0.4520
25582SOL    HW177324   8.253   8.884   9.882 -0.1211 -0.5274 -0.5063
25582SOL    HW277325   8.336   8.860   9.759  1.6448  0.1567  0.5200
25583SOL     OW77326   2.546   1.221   4.738  0.3465 -0.2471 -0.0069
25583SOL    HW177327   2.566   1.312   4.761  1.9054 -0.4949 -0.2169
25583SOL    HW277328   2.481   1.228   4.669  1.3487  0.7849 -0.9018
25584SOL     OW77329   2.901   1.303   9.657 -0.4661 -0.5859  0.1471
25584SOL    HW177330   2.884   1.210   9.648 -1.5833 -0.5697  1.6750
25584SOL    HW277331   2.818   1.345   9.632 -0.1947 -0.0300  0.1591
25585SOL     OW77332   0.860   5.741   3.436 -0.1422  0.1565 -0.0547
25585SOL    HW177333   0.941   5.748   3.386  1.5678 -1.8530  2.2465
25585SOL    HW277334   0.865   5.812   3.500 -0.7286  0.6386 -0.5223
25586SOL     OW77335   3.305   2.595   2.267  0.5808  0.2604 -0.2053
25586SOL    HW177336   3.382   2.630   2.312 -0.7137  0.6745  1.8145
25586SOL    HW277337   3.261   2.673   2.233 -0.0345  0.2239  0.4936
25587SOL     OW77338   7.451   8.026   6.397 -0.6143  0.5001  0.1674
25587SOL    HW177339   7.412   7.945   6.364  0.9969 -0.8169  1.3765
25587SOL    HW277340   7.545   8.010   6.397 -0.3536  1.7824  1.9221
25588SOL     OW77341   0.853   3.491   0.691  0.5611  0.0537 -0.3875
25588SOL    HW177342   0.776   3.446   0.726  0.3197  1.0268  0.4190
25588SOL    HW277343   0.925   3.460   0.746  0.4355  0.4385  0.0081
25589SOL     OW77344   5.309   5.314   5.340  0.1670  0.1370  0.1188
25589SOL    HW177345   5.309   5.401   5.381 -1.1519 -0.1313  0.7350
25589SOL    HW277346   5.276   5.256   5.409  1.4915 -0.9442 -0.1274
25590SOL     OW77347   9.711   0.677   9.933 -0.3305  0.4072  0.1328
25590SOL    HW177348   9.702   0.772   9.940 -0.5296  0.2765  2.6762
25590SOL    HW277349   9.772   0.653  10.003 -1.2845 -1.4442  0.3983
25591SOL     OW77350   8.583   5.324   4.584 -0.3242 -0.4224  0.3960
25591SOL    HW177351   8.655   5.268   4.613 -0.4728 -0.3455  0.9252
25591SOL    HW277352   8.569   5.385   4.656 -0.5210 -0.0463  0.0446
25592SOL     OW77353   0.031   5.989   9.555 -0.5835 -0.2304 -0.2585
25592SOL    HW177354   0.125   6.006   9.557 -0.9815  2.3465  0.4296
25592SOL    HW277355  -0.003   6.050   9.490 -1.8603 -0.6053  0.0355
25593SOL     OW77356   9.554   5.179   4.381  0.0163 -0.2831 -0.1074
25593SOL    HW177357   9.536   5.186   4.287  0.4186 -1.0049 -0.2455
25593SOL    HW277358   9.643   5.142   4.386  0.8597  1.7165  0.5578
25594SOL     OW77359   5.069   3.555   4.805  0.2587 -0.2814  0.1778
25594SOL    HW177360   5.110   3.637   4.778  0.7644  0.0164  1.7757
25594SOL    HW277361   4.995   3.545   4.745  1.2280  0.4013 -1.1965
25595SOL     OW77362   8.744   5.037   4.516 -0.2151  0.6661  0.4959
25595SOL    HW177363   8.804   5.106   4.488 -0.4686  0.4132 -0.7299
25595SOL    HW277364   8.712   4.998   4.435 -0.5942 -0.4548  1.1508
25596SOL     OW77365   5.534   1.883   0.024 -0.2099 -0.0540 -0.1891
25596SOL    HW177366   5.538   1.967  -0.022 -1.5868  0.2124  0.1333
25596SOL    HW277367   5.607   1.886   0.086  0.2610  0.5423 -0.7625
25597SOL     OW77368   7.589   5.079   2.469  0.4761 -0.6296  0.8206
25597SOL    HW177369   7.522   5.010   2.476  0.0086 -0.0738  2.2836
25597SOL    HW277370   7.668   5.039   2.506  1.3173 -1.6456 -1.8645
25598SOL     OW77371   9.444   4.380   2.091  0.2932  0.0784 -0.4892
25598SOL    HW177372   9.403   4.331   2.162  0.8253 -0.7899 -0.7509
25598SOL    HW277373   9.472   4.312   2.029  1.5790  0.6733 -0.5892
25599SOL     OW77374   4.090   4.168   4.207  0.4983  0.2379 -0.4990
25599SOL    HW177375   4.004   4.130   4.221 -0.0259  1.8333  1.0172
25599SOL    HW277376   4.134   4.108   4.147 -1.3940 -0.9874 -0.7301
25600SOL     OW77377   6.627   7.805   4.773 -0.3946  0.0110 -0.1538
25600SOL    HW177378   6.646   7.781   4.864  0.7061 -1.2821 -0.6891
25600SOL    HW277379   6.609   7.721   4.730  0.3606  0.4694 -1.3938
25601SOL     OW77380   0.268   1.419   2.553 -0.0222  0.0313 -0.1954
25601SOL    HW177381   0.274   1.355   2.624  0.1850  1.4111  1.0594
25601SOL    HW277382   0.175   1.438   2.545 -0.1970 -1.0966 -1.2309
25602SOL     OW77383   8.548   4.144   8.279 -0.1203  0.3848  0.0761
25602SOL    HW177384   8.463   4.156   8.320 -0.5054  1.0006 -0.8546
25602SOL    HW277385   8.532   4.163   8.186  0.7454 -0.7939 -0.3413
25603SOL     OW77386   2.042   1.804   1.047  0.6490 -0.2628 -0.3455
25603SOL    HW177387   2.028   1.883   0.995 -1.8397 -0.6072 -0.3336
25603SOL    HW277388   2.048   1.834   1.137 -0.5344 -0.0783 -0.3171
25604SOL     OW77389   7.344   2.158   6.915  0.2232 -0.0073 -0.0071
25604SOL    HW177390   7.357   2.084   6.974 -0.1330 -1.1577 -1.3225
25604SOL    HW277391   7.270   2.206   6.952 -0.3454 -1.0157  0.1940
25605SOL     OW77392   9.920   0.067   8.758 -0.5217  0.0845  0.2408
25605SOL    HW177393   9.832   0.105   8.751  0.4740  2.5589 -0.1427
25605SOL    HW277394   9.978   0.143   8.762  1.8743 -1.3766 -2.7959
25606SOL     OW77395   7.027   3.745   9.490 -0.2624 -0.2980  0.1024
25606SOL    HW177396   6.981   3.771   9.571  0.5919  0.9488  0.2157
25606SOL    HW277397   7.095   3.812   9.479 -0.4868 -0.3370 -1.7595
25607SOL     OW77398   4.046   1.511   0.087 -0.0644  0.4020 -0.0269
25607SOL    HW177399   4.122   1.562   0.060 -0.3079  1.0912  0.5441
25607SOL    HW277400   4.031   1.450   0.015  1.6556 -0.4665  0.2891
25608SOL     OW77401   2.136   8.150   0.730 -0.0668 -0.1274  0.0201
25608SOL    HW177402   2.088   8.068   0.714  0.4941 -0.5083  0.2814
25608SOL    HW277403   2.223   8.135   0.692 -0.2724  0.7216 -0.8424
25609SOL     OW77404   0.997   7.192   6.086 -0.3191 -0.3996  0.0229
25609SOL    HW177405   0.978   7.098   6.084  0.0910 -0.4771 -2.0306
25609SOL    HW277406   1.091   7.197   6.101  0.0518 -0.4286 -2.0540
25610SOL     OW77407   7.016   5.947   3.532  0.1571 -0.3736  0.2973
25610SOL    HW177408   6.988   5.898   3.455  1.4180 -2.2000  0.9139
25610SOL    HW277409   6.987   5.893   3.606  0.4591  0.4762  1.0486
25611SOL     OW77410   6.134   9.243   2.354  0.4003  0.7776 -0.3874
25611SOL    HW177411   6.134   9.249   2.259  1.5617 -3.4824 -0.8571
25611SOL    HW277412   6.224   9.219   2.377 -0.3444 -0.5307  1.4918
25612SOL     OW77413   0.938   6.715   8.841  0.1047 -0.2372 -0.3282
25612SOL    HW177414   0.915   6.782   8.777 -0.3961 -0.6720 -0.6091
25612SOL    HW277415   1.026   6.687   8.816 -0.1796 -0.5683 -0.9663
25613SOL     OW77416   0.533   0.289   6.677  0.9304 -0.0311  0.3153
25613SOL    HW177417   0.590   0.355   6.717  1.8539 -0.1945 -0.6910
25613SOL    HW277418   0.470   0.340   6.626  1.4339  0.0961 -0.1892
25614SOL     OW77419   6.232   5.087   5.043  0.1001  0.1915 -0.0257
25614SOL    HW177420   6.232   5.165   4.989  0.2285 -1.2815 -2.3078
25614SOL    HW277421   6.312   5.041   5.018  0.7783 -0.0123  2.3260
25615SOL     OW77422   4.082   0.773   2.360 -0.0172  0.2379  0.2064
25615SOL    HW177423   4.096   0.864   2.337  1.0698 -0.5192 -2.4597
25615SOL    HW277424   4.024   0.776   2.436 -1.2289  3.0886 -0.7176
25616SOL     OW77425   8.148   3.028   0.495 -0.4961 -0.1759 -0.1080
25616SOL    HW177426   8.193   2.959   0.445  1.1847 -0.2625  1.4201
25616SOL    HW277427   8.167   3.008   0.586 -1.3602  1.3980  0.4541
25617SOL     OW77428   7.968   5.330   4.173  0.5219  0.1332 -0.2385
25617SOL    HW177429   7.889   5.357   4.219  0.6824  0.2800 -0.0438
25617SOL    HW277430   7.987   5.402   4.113  1.0002  0.5036  0.3440
25618SOL     OW77431   2.881   6.989   7.591  0.7741 -0.0951 -0.3686
25618SOL    HW177432   2.835   6.929   7.533  1.7161 -0.0051 -1.2118
25618SOL    HW277433   2.811   7.046   7.625  0.1013 -0.6667 -0.7607
25619SOL     OW77434   1.105   7.262   5.202  0.0453  0.3810  0.0144
25619SOL    HW177435   1.100   7.195   5.134  0.0331 -0.3985  0.7740
25619SOL    HW277436   1.124   7.343   5.154  2.4532 -0.5371 -0.7221
25620SOL     OW77437   1.101   7.182   0.999 -0.2455 -0.5774 -0.2354
25620SOL    HW177438   1.057   7.264   1.020 -0.5431 -0.8019  0.0187
25620SOL    HW277439   1.142   7.198   0.914 -1.5231 -0.6490 -0.8731
25621SOL     OW77440   7.796   6.605   2.321 -0.2899  0.0571  0.3697
25621SOL    HW177441   7.775   6.542   2.390  2.9182  0.2777  1.6910
25621SOL    HW277442   7.821   6.551   2.246 -0.8589 -0.1926  0.3518
25622SOL     OW77443   3.844   4.424   7.743 -0.1997 -0.8314 -0.2175
25622SOL    HW177444   3.894   4.342   7.738 -0.9976 -1.3766  0.4970
25622SOL    HW277445   3.898   4.482   7.796  1.3689 -0.1247 -2.4296
25623SOL     OW77446   8.955   3.210   4.615  0.2722 -0.0268  0.5226
25623SOL    HW177447   9.032   3.250   4.657  1.1719 -0.2514 -0.8472
25623SOL    HW277448   8.921   3.150   4.681  0.3879  1.1339  1.6969
25624SOL     OW77449   7.949   5.477   9.727 -0.3722  0.3592  0.3961
25624SOL    HW177450   7.903   5.402   9.689 -1.8154  1.5404 -0.2889
25624SOL    HW277451   7.904   5.493   9.810 -1.4760  1.7218 -0.4237
25625SOL     OW77452   7.543   4.809   3.322 -0.3057  0.6917  0.2610
25625SOL    HW177453   7.523   4.717   3.302  0.2801 -0.0155  2.5747
25625SOL    HW277454   7.464   4.856   3.295 -0.1882 -0.2933 -2.0042
25626SOL     OW77455   1.590   9.169   6.133 -0.8895 -0.2136  0.2497
25626SOL    HW177456   1.573   9.105   6.064  1.9560 -0.2185 -0.5887
25626SOL    HW277457   1.610   9.250   6.086  1.9151 -0.4184  0.9186
25627SOL     OW77458   6.674   0.865   9.294  0.0515 -0.2991  0.1879
25627SOL    HW177459   6.626   0.820   9.223  1.7304 -2.6043  0.3925
25627SOL    HW277460   6.715   0.794   9.343  1.7771  1.4388  1.3887
25628SOL     OW77461   3.925   1.276   5.897  0.2959 -0.6031  0.1103
25628SOL    HW177462   3.924   1.269   5.993 -0.0265 -0.8638  0.0891
25628SOL    HW277463   3.833   1.266   5.872  0.5842 -2.4168 -0.3548
25629SOL     OW77464   7.619   4.711   3.595 -0.3312 -0.1455 -0.1496
25629SOL    HW177465   7.705   4.743   3.621 -0.0180 -1.5488  0.6416
25629SOL    HW277466   7.605   4.747   3.508  0.6363  0.8778  0.0938
25630SOL     OW77467   3.124   3.605   9.081  0.0786  0.5652  0.1797
25630SOL    HW177468   3.071   3.665   9.030  0.7460  1.8204  0.9148
25630SOL    HW277469   3.084   3.606   9.168  0.8208  0.9022  0.5229
25631SOL     OW77470   6.848   8.235   0.396  0.6564  0.6150  0.7237
25631SOL    HW177471   6.925   8.185   0.424  1.3041  1.4481  0.4933
25631SOL    HW277472   6.779   8.170   0.386  2.0423 -0.6330 -1.8403
25632SOL     OW77473   3.195   0.554   9.068  0.3263  0.1619 -0.3303
25632SOL    HW177474   3.180   0.553   9.163 -1.2792 -1.2729 -0.5481
25632SOL    HW277475   3.149   0.631   9.036  2.1168  1.5190  0.1696
25633SOL     OW77476   7.139   7.248   3.799  0.0580 -0.4611  0.1932
25633SOL    HW177477   7.049   7.231   3.826 -0.8211  2.6099 -0.3385
25633SOL    HW277478   7.182   7.282   3.877  0.5573 -1.2463  0.2649
25634SOL     OW77479   2.290   2.719   4.086  0.2777  0.1194 -0.3080
25634SOL    HW177480   2.198   2.741   4.072 -0.1288 -0.6746  0.9167
25634SOL    HW277481   2.311   2.657   4.016  0.3513  1.4350 -1.5019
25635SOL     OW77482   0.299   5.743   1.329 -0.4379  0.6576 -0.1705
25635SOL    HW177483   0.381   5.786   1.353  0.1459 -0.0880 -0.7846
25635SOL    HW277484   0.242   5.758   1.404 -0.0303  1.9082 -0.0856
25636SOL     OW77485   3.603   5.162   4.113 -0.0214  0.5958  0.0921
25636SOL    HW177486   3.667   5.213   4.163 -0.3655  0.2869  0.8671
25636SOL    HW277487   3.550   5.228   4.067 -0.9377  1.0197  1.6539
25637SOL     OW77488   2.615   3.853   5.812  0.5494 -0.2904  0.1403
25637SOL    HW177489   2.678   3.786   5.786 -0.7858 -0.7548 -2.2336
25637SOL    HW277490   2.584   3.825   5.898  0.0284 -2.7980 -0.7792
25638SOL     OW77491   7.015   3.036   3.056  0.2602 -0.1678 -0.1516
25638SOL    HW177492   7.056   3.080   3.130  1.5990 -0.7972 -0.4998
25638SOL    HW277493   7.082   3.034   2.988 -0.0483 -1.9589 -0.4571
25639SOL     OW77494   2.526   1.608   0.398 -0.1524  0.4050  0.2952
25639SOL    HW177495   2.515   1.702   0.387  4.7914  1.3779  1.0914
25639SOL    HW277496   2.577   1.581   0.322  1.3666 -0.8311  1.6791
25640SOL     OW77497   5.455   4.603   6.681  0.2866 -0.2364  0.1704
25640SOL    HW177498   5.363   4.577   6.686  0.3693 -0.2807  2.3280
25640SOL    HW277499   5.453   4.691   6.644 -0.5392 -0.5082 -0.4771
25641SOL     OW77500   1.174   1.012   7.851  0.0411 -0.5584  0.3307
25641SOL    HW177501   1.092   1.010   7.901  0.1037 -0.4273  0.4403
25641SOL    HW277502   1.225   1.082   7.892 -0.8763  1.2523 -1.4427
25642SOL     OW77503   5.903   8.173   3.761  0.4487 -0.4468  0.0408
25642SOL    HW177504   5.913   8.132   3.847 -0.5017 -0.0170  0.3755
25642SOL    HW277505   5.865   8.105   3.706 -0.0948 -0.3620  0.3010
25643SOL     OW77506   1.492   5.740   3.889  0.2381  0.4093  0.2343
25643SOL    HW177507   1.511   5.676   3.958  0.3246  1.0071  0.7753
25643SOL    HW277508   1.413   5.707   3.847 -0.6497  0.7634  1.5532
25644SOL     OW77509   2.116   6.608   5.753  0.5252  0.5500 -0.1392
25644SOL    HW177510   2.182   6.539   5.755  2.4680  2.2287 -1.4855
25644SOL    HW277511   2.103   6.626   5.660 -0.9126  1.1140  0.1480
25645SOL     OW77512   8.718   5.747   2.754  0.3139 -0.3988  0.5419
25645SOL    HW177513   8.720   5.764   2.849  1.1469 -1.9002  0.8272
25645SOL    HW277514   8.792   5.688   2.739 -0.1166 -0.5821 -0.9708
25646SOL     OW77515   4.613   7.597   9.181 -0.3067 -0.4911 -0.7197
25646SOL    HW177516   4.542   7.555   9.230  0.4844 -0.5629  0.4009
25646SOL    HW277517   4.568   7.654   9.118 -1.3682 -1.5808 -0.9886
25647SOL     OW77518   0.430   5.499   1.668 -0.9483 -0.0576 -0.4791
25647SOL    HW177519   0.524   5.488   1.652 -0.8738  0.0810 -0.1420
25647SOL    HW277520   0.390   5.483   1.583 -0.5605  0.5734 -0.7919
25648SOL     OW77521   0.908   8.538   4.622  0.3771 -0.4805  0.0660
25648SOL    HW177522   0.989   8.498   4.591  1.0827  0.9799 -0.0857
25648SOL    HW277523   0.857   8.465   4.657  1.4816 -1.5239 -0.4071
25649SOL     OW77524   9.407   3.761   1.060 -0.4114 -0.0502 -0.5732
25649SOL    HW177525   9.313   3.779   1.057 -0.6191 -1.1790 -1.5298
25649SOL    HW277526   9.445   3.828   1.003 -0.4245  1.4786  1.1523
25650SOL     OW77527   4.639   4.438   3.200  0.4850 -0.3162 -0.1090
25650SOL    HW177528   4.722   4.394   3.217  1.7697  1.6887 -0.7852
25650SOL    HW277529   4.663   4.515   3.149 -2.0337 -0.6534 -1.9739
25651SOL     OW77530   1.232   3.343   5.482 -0.1493  0.1618  0.0855
25651SOL    HW177531   1.272   3.273   5.430 -0.6099 -1.0536  1.2696
25651SOL    HW277532   1.146   3.358   5.441  0.0433  0.1917 -0.3086
25652SOL     OW77533   6.730   7.036   7.691 -0.0735 -0.0182 -0.2777
25652SOL    HW177534   6.674   6.969   7.651 -0.2016  0.1201 -0.3332
25652SOL    HW277535   6.748   7.004   7.779 -2.0973  0.9883  0.5564
25653SOL     OW77536   2.725   6.257   1.269  0.5517  0.2182 -0.1356
25653SOL    HW177537   2.710   6.199   1.343  0.0593  0.2020 -0.2431
25653SOL    HW277538   2.804   6.223   1.227  0.3601 -0.2767 -0.1026
25654SOL     OW77539   1.115   3.244   6.862 -0.2950  0.1372 -1.3025
25654SOL    HW177540   1.187   3.282   6.812 -1.4556  1.9007 -1.7232
25654SOL    HW277541   1.073   3.183   6.801 -1.0031  1.4200 -2.1502
25655SOL     OW77542   8.277   9.032   7.489 -0.2519 -0.2309  0.0854
25655SOL    HW177543   8.218   9.055   7.417 -0.4463 -0.8006  0.0663
25655SOL    HW277544   8.363   9.063   7.459 -0.1345 -1.3927 -0.8594
25656SOL     OW77545   9.242   8.405   8.592  0.4732 -0.7190  0.4966
25656SOL    HW177546   9.256   8.359   8.675 -1.0659 -1.5565  0.3265
25656SOL    HW277547   9.151   8.431   8.593  0.6769  0.1071 -0.5309
25657SOL     OW77548   9.136   3.285   4.805  0.6751  0.1248 -0.0967
25657SOL    HW177549   9.181   3.208   4.841  0.9511  1.1350  1.8764
25657SOL    HW277550   9.200   3.324   4.745  0.9557 -0.5792 -0.2630
25658SOL     OW77551   6.867   8.427   7.280  0.3680  0.5600  0.2414
25658SOL    HW177552   6.899   8.363   7.216  0.3614 -0.6531  1.4160
25658SOL    HW277553   6.866   8.380   7.363 -2.0223  1.3230  0.7192
25659SOL     OW77554   1.868   4.061   3.374  0.4637 -0.3955  0.0958
25659SOL    HW177555   1.826   4.040   3.290  0.8410  1.1035 -0.5001
25659SOL    HW277556   1.801   4.040   3.440 -0.0446 -1.0585 -0.6126
25660SOL     OW77557   2.053   4.925   3.971  0.2784  0.2578 -0.3050
25660SOL    HW177558   2.047   4.976   4.051 -1.4650  0.9922 -0.8568
25660SOL    HW277559   2.117   4.857   3.991 -0.5791  0.0183  1.9406
25661SOL     OW77560   9.543   5.223   7.601 -0.1999  0.3488 -0.1170
25661SOL    HW177561   9.490   5.156   7.559  0.5525 -1.2840  1.3951
25661SOL    HW277562   9.520   5.217   7.694 -0.4663  2.5614  0.0253
25662SOL     OW77563   7.751   7.229   1.592 -0.4143  0.5700  0.3509
25662SOL    HW177564   7.755   7.268   1.679  1.1086  0.1798  0.4770
25662SOL    HW277565   7.810   7.154   1.596 -0.1765  0.6504 -1.0686
25663SOL     OW77566   4.312   5.645   4.348  0.4200 -0.0429  0.1945
25663SOL    HW177567   4.402   5.620   4.326  1.1140  0.8168  1.8742
25663SOL    HW277568   4.319   5.735   4.379 -1.0006 -0.0357  0.5571
25664SOL     OW77569   8.459   4.094   1.481  0.3245  0.4433 -0.4738
25664SOL    HW177570   8.464   4.001   1.505  0.6492 -0.3013 -3.1653
25664SOL    HW277571   8.468   4.140   1.565 -0.1380 -1.9313  0.9777
25665SOL     OW77572   3.746   5.487   9.378 -0.2043  0.1530 -0.3819
25665SOL    HW177573   3.656   5.455   9.375  0.4238 -2.0953  1.6309
25665SOL    HW277574   3.779   5.472   9.290 -1.1954 -0.9645 -0.5966
25666SOL     OW77575   8.489   0.657   3.866 -0.5546 -0.1751 -0.2269
25666SOL    HW177576   8.402   0.656   3.826 -0.9216  0.3190  0.5363
25666SOL    HW277577   8.527   0.741   3.840 -0.3761 -0.3149 -0.4169
25667SOL     OW77578   4.849   5.882   5.561  0.0432  0.4369 -0.1483
25667SOL    HW177579   4.868   5.888   5.467 -0.9538  1.6410 -0.2988
25667SOL    HW277580   4.762   5.921   5.570 -0.2138 -0.3866  1.1818
25668SOL     OW77581   6.791   1.229   3.070 -0.3840  0.3478 -0.2912
25668SOL    HW177582   6.866   1.278   3.104 -1.0712  0.9555  0.3903
25668SOL    HW277583   6.768   1.273   2.988 -1.0963  1.2936  0.3952
25669SOL     OW77584   5.123   8.453   8.035 -0.3552 -0.4499 -0.4525
25669SOL    HW177585   5.204   8.497   8.062 -1.1502  0.2247  0.9203
25669SOL    HW277586   5.135   8.362   8.063 -0.0553 -0.3675 -0.3064
25670SOL     OW77587   7.223   8.622   2.056  0.2472  0.5704  0.1298
25670SOL    HW177588   7.273   8.639   2.136 -0.4434  0.2852  0.6309
25670SOL    HW277589   7.139   8.664   2.070 -0.4595 -0.7948  0.2316
25671SOL     OW77590   0.475   7.916   4.719  0.3023 -0.0152  0.9052
25671SOL    HW177591   0.569   7.910   4.737  0.2338  1.3254  1.8525
25671SOL    HW277592   0.470   7.960   4.634  0.5211 -1.7172 -0.0529
25672SOL     OW77593   9.248   9.104   8.403  0.0500 -0.1352  0.1806
25672SOL    HW177594   9.235   9.149   8.319  0.4133 -2.0753 -0.9674
25672SOL    HW277595   9.174   9.132   8.457  0.8040  2.6246 -0.0689
25673SOL     OW77596   3.478   9.210   2.635  0.2821 -0.5505  0.2394
25673SOL    HW177597   3.555   9.223   2.690 -0.1645  2.0392  0.3473
25673SOL    HW277598   3.405   9.241   2.688 -0.1564  2.1865 -1.7500
25674SOL     OW77599   1.969   6.388   7.058 -0.3829  0.1838  0.5727
25674SOL    HW177600   1.926   6.470   7.082  0.4393  0.4623  1.1240
25674SOL    HW277601   1.902   6.340   7.010 -1.6170  0.2215  2.1590
25675SOL     OW77602   4.253   9.694   4.520 -0.1024  0.4378  0.4763
25675SOL    HW177603   4.275   9.776   4.476 -0.3625  0.3803  0.2331
25675SOL    HW277604   4.211   9.640   4.452  1.2331 -0.4037  0.2847
25676SOL     OW77605   7.687   2.765   4.118  0.4185  0.3816  0.6500
25676SOL    HW177606   7.677   2.678   4.158 -0.2306  0.6317  1.0396
25676SOL    HW277607   7.693   2.747   4.024  1.2073 -0.1526  0.7966
25677SOL     OW77608   1.875   5.322   9.299  0.0416  0.4406  0.4716
25677SOL    HW177609   1.885   5.281   9.213 -0.4225  0.3932  0.4416
25677SOL    HW277610   1.879   5.416   9.280  3.1115  0.4644  0.7608
25678SOL     OW77611   2.145   8.718   5.162  0.2621  0.2795  0.2358
25678SOL    HW177612   2.184   8.637   5.127 -1.1539 -0.9063  1.2834
25678SOL    HW277613   2.176   8.723   5.252  0.0606  0.7227  0.2839
25679SOL     OW77614   9.064   2.794   8.006 -0.1789  0.4371  0.0001
25679SOL    HW177615   9.147   2.794   8.053 -0.9953  1.0695  1.5039
25679SOL    HW277616   8.999   2.770   8.072 -1.3311  1.0467 -0.8819
25680SOL     OW77617   2.358   8.806   6.579  0.0189  1.0204  0.0748
25680SOL    HW177618   2.312   8.790   6.661  0.3924 -1.4785 -0.1109
25680SOL    HW277619   2.433   8.746   6.581  1.3163  2.5087 -1.1355
25681SOL     OW77620   7.815   8.165   6.823  0.3632  0.0061  0.0459
25681SOL    HW177621   7.819   8.124   6.909  1.3819  0.9134  0.4498
25681SOL    HW277622   7.900   8.207   6.811 -0.7626  2.4840 -0.0637
25682SOL     OW77623   4.219   9.135   4.238  0.4417  0.4975  0.0151
25682SOL    HW177624   4.205   9.226   4.213 -3.0742 -0.4066 -1.9259
25682SOL    HW277625   4.200   9.084   4.159 -2.7182 -2.1231  2.1655
25683SOL     OW77626   8.371   6.538   6.700  0.1527 -0.3413 -0.4283
25683SOL    HW177627   8.433   6.589   6.649 -1.0539  1.0919 -0.5472
25683SOL    HW277628   8.357   6.458   6.648  0.4391  0.1904 -1.3504
25684SOL     OW77629   2.187   4.579   9.441  0.1757  0.4173 -0.2884
25684SOL    HW177630   2.263   4.633   9.463  0.2450 -0.1247  0.9328
25684SOL    HW277631   2.159   4.609   9.355  1.1653  1.3092 -0.3130
25685SOL     OW77632   2.874   5.043   1.799 -0.6479 -0.0230 -0.3645
25685SOL    HW177633   2.908   4.959   1.767 -1.6518 -0.5499 -0.0900
25685SOL    HW277634   2.952   5.096   1.814 -0.0594 -0.3693 -1.9812
25686SOL     OW77635   5.503   5.298   8.418  0.0621  0.1814  0.6665
25686SOL    HW177636   5.429   5.346   8.381 -0.0584  0.5517  1.3630
25686SOL    HW277637   5.465   5.216   8.450  0.5954 -1.3444 -2.3064
25687SOL     OW77638   3.165   3.534   1.415 -0.1017 -0.9615  0.3254
25687SOL    HW177639   3.222   3.610   1.403  1.2862 -1.9232  0.5162
25687SOL    HW277640   3.164   3.521   1.510  2.3772 -3.0533  0.1945
25688SOL     OW77641   7.237   1.573   5.351  0.1789 -0.4136  0.3107
25688SOL    HW177642   7.314   1.629   5.352 -0.8033  1.0251 -0.4801
25688SOL    HW277643   7.263   1.495   5.302  0.9798  0.2868 -0.3888
25689SOL     OW77644   4.225   7.159   4.777 -0.4225 -0.0727 -1.0012
25689SOL    HW177645   4.202   7.155   4.870  0.6953 -1.1480 -0.7538
25689SOL    HW277646   4.181   7.238   4.745 -1.0440  0.1638  0.3720
25690SOL     OW77647   7.013   5.535   2.550 -0.3474  0.3324 -0.8001
25690SOL    HW177648   7.007   5.575   2.637 -2.0454 -3.1898  0.8665
25690SOL    HW277649   7.105   5.508   2.542 -0.5829 -1.0789  0.8343
25691SOL     OW77650   9.788   9.629   8.631  0.6620 -0.2401 -0.6141
25691SOL    HW177651   9.859   9.654   8.572  1.7546 -0.9459  0.3650
25691SOL    HW277652   9.765   9.540   8.605  0.7466 -0.3388 -0.3567
25692SOL     OW77653   5.142   5.848   8.086 -0.1103  0.4941  0.0974
25692SOL    HW177654   5.141   5.860   7.991  1.8364  0.1703 -0.0082
25692SOL    HW277655   5.097   5.925   8.121 -1.8674  0.0714 -1.0896
25693SOL     OW77656   7.508   7.218   3.860 -0.3993 -0.1946  0.6257
25693SOL    HW177657   7.549   7.305   3.858 -2.7955  1.0093  0.5762
25693SOL    HW277658   7.490   7.197   3.769  0.4988 -0.9453  0.6056
25694SOL     OW77659   4.080   5.616   3.293 -0.3248 -0.7013 -0.1160
25694SOL    HW177660   4.093   5.529   3.330 -1.6817 -0.9485 -0.1677
25694SOL    HW277661   4.143   5.672   3.339  0.5028 -1.6818 -0.0265
25695SOL     OW77662   0.231   6.477   8.508  0.2140 -0.4486  0.5597
25695SOL    HW177663   0.157   6.423   8.537  0.7142 -0.9499  0.9352
25695SOL    HW277664   0.216   6.489   8.414 -1.0942  0.6675  0.8915
25696SOL     OW77665   3.019   3.950   1.457 -0.3128  0.0839  0.2754
25696SOL    HW177666   3.031   3.928   1.549 -0.6192 -0.5401  0.1690
25696SOL    HW277667   2.942   3.900   1.429  1.5460 -2.2580 -1.1071
25697SOL     OW77668   7.963   2.866   6.506  0.2959  0.1524  0.2872
25697SOL    HW177669   7.997   2.922   6.436 -0.5628  1.2560  0.7198
25697SOL    HW277670   7.963   2.922   6.583  1.7307 -1.2035  1.3300
25698SOL     OW77671   2.840   8.636   5.361  0.1990 -0.4129  0.2822
25698SOL    HW177672   2.812   8.603   5.276 -1.3538 -1.1132  1.0118
25698SOL    HW277673   2.844   8.731   5.350 -0.0021 -0.4991 -0.5763
25699SOL     OW77674   6.449   3.591   0.197 -0.2079 -0.4071 -0.1737
25699SOL    HW177675   6.409   3.528   0.137 -1.6953 -0.9570  1.3115
25699SOL    HW277676   6.528   3.547   0.228 -1.0888 -1.4957  0.6422
25700SOL     OW77677   1.413   1.447   5.646 -0.2454 -0.0368 -0.3383
25700SOL    HW177678   1.451   1.480   5.564  0.1441  0.8081  0.1638
25700SOL    HW277679   1.418   1.352   5.638 -0.0419  0.0381 -1.2185
25701SOL     OW77680   0.984   3.900   5.359  0.4010  0.1047  0.4752
25701SOL    HW177681   1.060   3.942   5.319  0.8954  0.3491  1.6244
25701SOL    HW277682   1.001   3.807   5.351 -0.9971 -0.0205 -2.6617
25702SOL     OW77683   8.406   9.339   4.266 -0.0934  0.0955  0.3375
25702SOL    HW177684   8.397   9.415   4.209 -0.0036 -0.5724 -0.5845
25702SOL    HW277685   8.335   9.347   4.329 -1.5432 -0.2926 -1.2007
25703SOL     OW77686   3.198   9.297   9.926  0.3777 -0.3822  0.3066
25703SOL    HW177687   3.254   9.345   9.865  2.4181 -1.5280  1.1619
25703SOL    HW277688   3.204   9.345  10.008 -0.3342 -0.2426  0.2867
25704SOL     OW77689   7.024   6.866   1.647 -0.2367  0.0935 -0.2475
25704SOL    HW177690   7.019   6.771   1.637  0.3605 -0.0560  0.7452
25704SOL    HW277691   7.106   6.890   1.603  0.0014  0.0422  0.1609
25705SOL     OW77692   7.268   7.603   0.194 -0.5499  0.0437 -0.0057
25705SOL    HW177693   7.202   7.630   0.130  0.3317 -0.0485 -1.0037
25705SOL    HW277694   7.239   7.518   0.225 -0.6898 -0.1948 -0.7614
25706SOL     OW77695   8.546   0.721   7.634  0.4632 -0.4001 -0.4173
25706SOL    HW177696   8.639   0.720   7.615  0.7956  0.6107  0.9992
25706SOL    HW277697   8.521   0.814   7.629 -0.2093 -0.5263  0.3317
25707SOL     OW77698   4.233   9.796   4.987 -0.4792 -0.1278  0.3013
25707SOL    HW177699   4.187   9.780   4.905  0.3135  1.0514 -0.3981
25707SOL    HW277700   4.195   9.877   5.021  1.8079  1.5511 -0.9003
25708SOL     OW77701   0.855   8.680   9.651  0.6691  0.3057  0.0601
25708SOL    HW177702   0.924   8.620   9.679  1.2397  1.2072  0.6196
25708SOL    HW277703   0.832   8.729   9.730 -0.2416  0.3881 -0.2437
25709SOL     OW77704   6.900   6.194   2.747  0.1143  0.4472 -0.0807
25709SOL    HW177705   6.805   6.196   2.732 -0.1105 -0.4765  1.0927
25709SOL    HW277706   6.915   6.256   2.818 -0.0584 -1.4577  1.7329
25710SOL     OW77707   1.060   8.743   5.929 -0.8404 -0.1647  0.2031
25710SOL    HW177708   1.030   8.661   5.890 -0.4289 -0.6973  0.9797
25710SOL    HW277709   1.028   8.740   6.019  2.3152 -1.2927  1.4649
25711SOL     OW77710   4.004   3.956   3.893  0.7842  0.6736 -0.1875
25711SOL    HW177711   4.057   4.034   3.873  0.8635  0.7244  0.2067
25711SOL    HW277712   4.059   3.882   3.866  1.1115  0.7208  0.3324
25712SOL     OW77713   8.258   9.289   1.739 -0.1123  0.2510 -0.1103
25712SOL    HW177714   8.203   9.323   1.669  0.1031 -0.8465 -0.8322
25712SOL    HW277715   8.308   9.218   1.699  1.6963  1.0764  0.5697
25713SOL     OW77716   0.563   2.065   3.072  0.4340 -0.2337 -0.0816
25713SOL    HW177717   0.472   2.092   3.062 -0.5169 -1.3944  3.7450
25713SOL    HW277718   0.614   2.145   3.062 -1.2794  0.9563  0.3631
25714SOL     OW77719   6.108   2.499   6.392 -0.3214 -0.1483  0.6081
25714SOL    HW177720   6.027   2.543   6.416 -0.4023 -0.3986  0.7996
25714SOL    HW277721   6.172   2.529   6.457 -0.1704  0.3183  0.2507
25715SOL     OW77722   5.602   9.296   7.316 -0.1273 -0.2615 -0.3455
25715SOL    HW177723   5.654   9.244   7.376  0.7126  2.5078  1.5271
25715SOL    HW277724   5.664   9.326   7.250 -0.3073 -0.4724 -0.6146
25716SOL     OW77725   0.232   9.015   6.425 -0.0440 -0.1033  0.4003
25716SOL    HW177726   0.141   9.002   6.450  0.4977  0.5815  2.9735
25716SOL    HW277727   0.235   9.104   6.391 -0.0302  0.6069  2.1598
25717SOL     OW77728   5.955   7.242   6.978  0.1939  0.0132  0.3043
25717SOL    HW177729   5.907   7.312   6.934  1.5640  1.4321  0.9536
25717SOL    HW277730   5.897   7.166   6.974 -1.1152  1.0274 -0.9112
25718SOL     OW77731   4.573   0.174   4.205  0.5796 -1.0803  0.0031
25718SOL    HW177732   4.607   0.201   4.291  1.2318 -0.0305 -0.5707
25718SOL    HW277733   4.624   0.096   4.183  0.4687 -1.3064  0.5186
25719SOL     OW77734   1.939   1.824   1.849  0.1558 -0.0396  0.2290
25719SOL    HW177735   1.900   1.762   1.788  2.7428 -2.7587  1.1389
25719SOL    HW277736   1.930   1.783   1.935  3.6358 -0.2135  0.6408
25720SOL     OW77737   5.784   9.815   8.268 -0.0178 -0.4333 -0.0415
25720SOL    HW177738   5.810   9.832   8.358  0.2668 -0.6397 -0.0826
25720SOL    HW277739   5.820   9.728   8.249 -1.4652 -1.1164  0.1834
25721SOL     OW77740   1.629   1.285   6.226 -0.0406  0.4764 -0.1963
25721SOL    HW177741   1.689   1.325   6.163  0.5762  0.4214  0.3467
25721SOL    HW277742   1.618   1.195   6.195  0.5407  0.3435 -0.0416
25722SOL     OW77743   1.928   6.480   3.701 -0.0087  0.2502 -0.0297
25722SOL    HW177744   1.849   6.496   3.650  0.6235  2.7922 -0.3305
25722SOL    HW277745   1.993   6.454   3.635  0.1728  1.1698 -0.2337
25723SOL     OW77746   8.983   8.451   6.455  0.2951  0.2411  0.6013
25723SOL    HW177747   9.042   8.384   6.420  0.9113  1.0235  0.1126
25723SOL    HW277748   8.910   8.455   6.394 -0.2391 -0.6608  1.1552
25724SOL     OW77749   8.443   5.290   3.058  0.4663  0.1308 -0.6090
25724SOL    HW177750   8.350   5.290   3.079  0.6202 -0.1635  0.1270
25724SOL    HW277751   8.482   5.348   3.123  1.3269 -2.8562  1.8316
25725SOL     OW77752   9.769   9.726   7.823  0.1176 -0.0286  0.0699
25725SOL    HW177753   9.727   9.811   7.812 -0.3101 -0.1749  0.5331
25725SOL    HW277754   9.720   9.683   7.893 -0.5244 -1.1720 -1.0213
25726SOL     OW77755   8.976   5.989   2.784 -0.5660 -0.1595  0.1080
25726SOL    HW177756   8.934   5.904   2.775  0.0116 -0.4248 -0.1685
25726SOL    HW277757   8.965   6.012   2.876  1.8063 -1.9133  0.9315
25727SOL     OW77758   0.989   2.276   8.947  0.5612 -0.0080 -0.6089
25727SOL    HW177759   0.898   2.247   8.944  1.7493 -4.5425 -1.0554
25727SOL    HW277760   0.988   2.363   8.907 -3.2945 -0.7807 -2.7113
25728SOL     OW77761   7.440   1.993   6.697  0.0491  0.0954 -0.0050
25728SOL    HW177762   7.469   2.065   6.640 -2.0327  0.3796 -0.8154
25728SOL    HW277763   7.399   2.037   6.772 -2.1839 -0.1415 -1.0044
25729SOL     OW77764   7.769   6.135   4.821 -0.1938 -0.1671 -0.1160
25729SOL    HW177765   7.843   6.194   4.811 -0.7396  0.6230  0.3698
25729SOL    HW277766   7.762   6.089   4.737 -1.4111  2.4138 -1.5605
25730SOL     OW77767   5.922   1.328   5.770 -0.0201 -0.4388 -0.1927
25730SOL    HW177768   6.001   1.336   5.716  0.2030 -1.4333 -0.0399
25730SOL    HW277769   5.861   1.391   5.732  0.9825  0.6532 -0.0576
25731SOL     OW77770   3.903   0.389   6.176  0.1066 -0.1039 -0.2178
25731SOL    HW177771   3.867   0.313   6.222 -0.7165 -0.0176 -0.7132
25731SOL    HW277772   3.878   0.464   6.230  1.4669 -0.2056  0.6171
25732SOL     OW77773   7.416   7.367   9.050 -0.7319  0.0325 -0.4667
25732SOL    HW177774   7.483   7.300   9.037  0.4854  1.1709 -0.1905
25732SOL    HW277775   7.424   7.392   9.142  0.4792  2.2155 -1.0904
25733SOL     OW77776   1.184   3.180   8.524 -0.6156 -0.3938  0.6889
25733SOL    HW177777   1.164   3.140   8.609  2.1279 -0.8827  1.2037
25733SOL    HW277778   1.176   3.109   8.461  0.9411 -1.0299  1.1350
25734SOL     OW77779   2.150   9.875   5.637 -0.1636  0.6784  0.2024
25734SOL    HW177780   2.183   9.965   5.623 -0.9351  0.7970 -0.9689
25734SOL    HW277781   2.215   9.820   5.593 -0.5552  0.7879 -0.5284
25735SOL     OW77782   3.449   8.324   4.762  0.3633 -0.2317 -0.0428
25735SOL    HW177783   3.368   8.275   4.748  0.8856 -0.7105 -1.6032
25735SOL    HW277784   3.425   8.395   4.821 -1.6239  0.7158 -1.8625
25736SOL     OW77785   0.847   6.698   1.111  0.0487  0.0034  0.2823
25736SOL    HW177786   0.877   6.772   1.163  1.6760 -0.2674 -0.2062
25736SOL    HW277787   0.831   6.628   1.174 -0.9814  0.5951  0.6917
25737SOL     OW77788   3.264   8.102   1.176 -0.9796  0.6165 -0.3271
25737SOL    HW177789   3.217   8.146   1.247 -0.1586  0.4669  0.3325
25737SOL    HW277790   3.293   8.019   1.214 -0.2631  0.6717 -0.7312
25738SOL     OW77791   2.636   0.926   8.105  0.2429  0.4532  0.0594
25738SOL    HW177792   2.663   0.883   8.186 -1.7759  0.9035  1.0395
25738SOL    HW277793   2.643   1.019   8.124 -0.6596  0.5641 -0.1066
25739SOL     OW77794   0.145   7.507   5.936 -0.2064  0.1670 -0.2040
25739SOL    HW177795   0.163   7.436   5.997  0.1999  0.9503  0.6028
25739SOL    HW277796   0.118   7.463   5.855  1.2128 -0.9396 -0.1101
25740SOL     OW77797   9.217   5.798   7.363 -0.4441  0.2208 -0.5712
25740SOL    HW177798   9.155   5.862   7.399 -0.7406  0.5521 -1.6441
25740SOL    HW277799   9.162   5.727   7.331 -0.1058 -0.6710  0.7683
25741SOL     OW77800   6.422   7.731   3.400  0.7156 -0.0743 -0.1997
25741SOL    HW177801   6.336   7.729   3.442  1.0295  0.3929  0.4760
25741SOL    HW277802   6.483   7.755   3.469  1.2220  0.8838 -0.9460
25742SOL     OW77803   4.571   5.099   4.091  0.1150 -0.0111 -0.1693
25742SOL    HW177804   4.647   5.041   4.096 -0.8846 -1.3932 -0.2850
25742SOL    HW277805   4.539   5.089   4.002 -0.6743 -0.0892  0.1142
25743SOL     OW77806   0.437   5.916   0.621 -0.0364  0.6746  0.4322
25743SOL    HW177807   0.480   5.855   0.561 -0.3567  0.3291  0.5528
25743SOL    HW277808   0.391   5.860   0.683 -1.1712  1.0422 -0.0633
25744SOL     OW77809   3.327   4.416   5.104  0.3787  0.0818  0.2696
25744SOL    HW177810   3.275   4.345   5.142  1.0420 -0.2680  0.5342
25744SOL    HW277811   3.269   4.492   5.107  0.5669  0.2038  2.4569
25745SOL     OW77812   8.566   9.677   6.078  0.2019 -0.5541  0.4594
25745SOL    HW177813   8.650   9.708   6.044  0.7988 -1.2916  1.2378
25745SOL    HW277814   8.567   9.583   6.063 -0.8202 -0.4837 -0.2017
25746SOL     OW77815   7.172   5.836   4.631  0.0757 -0.2594  0.4429
25746SOL    HW177816   7.210   5.862   4.547  2.0424 -0.7062  1.1343
25746SOL    HW277817   7.158   5.918   4.677 -1.1750  0.0005 -0.3547
25747SOL     OW77818   1.368   7.172   7.670  0.8300 -0.2732 -0.4412
25747SOL    HW177819   1.424   7.248   7.659 -0.8357  0.9369 -0.9256
25747SOL    HW277820   1.330   7.182   7.757 -0.1660  0.0106 -0.8960
25748SOL     OW77821   0.485   3.137   4.731 -0.1384  0.6792  0.1844
25748SOL    HW177822   0.521   3.209   4.679  0.6359  0.6211  0.6319
25748SOL    HW277823   0.449   3.076   4.666 -1.0975  1.6117 -0.1924
25749SOL     OW77824   8.216   2.123   9.454  0.2101 -0.1572 -0.0378
25749SOL    HW177825   8.252   2.156   9.371 -1.2306  1.7767  0.0335
25749SOL    HW277826   8.289   2.126   9.515  0.8302  0.2042 -0.7776
25750SOL     OW77827   2.804   6.732   7.895  0.2099  0.1588  0.3036
25750SOL    HW177828   2.729   6.677   7.917  0.9787 -1.3367 -0.6259
25750SOL    HW277829   2.773   6.821   7.907 -1.2018 -0.4567  1.5157
25751SOL     OW77830   4.208   0.246   9.046  0.3514 -1.0156  0.0818
25751SOL    HW177831   4.123   0.220   9.012 -0.1978  0.3585  0.3358
25751SOL    HW277832   4.204   0.228   9.140 -1.6003  3.4862  1.1238
25752SOL     OW77833   7.371   4.041   0.076  0.6461 -0.1652  0.2090
25752SOL    HW177834   7.374   3.946   0.062  1.5829 -0.1140  0.0070
25752SOL    HW277835   7.342   4.051   0.166  2.4972 -0.7060  0.9070
25753SOL     OW77836   8.924   5.594   0.787  0.6286  0.2923 -0.1580
25753SOL    HW177837   8.925   5.498   0.789  1.3103  0.2454 -1.4720
25753SOL    HW277838   9.002   5.621   0.835  1.4895  0.1049 -1.3957
25754SOL     OW77839   8.513   2.481   0.409 -0.0539  0.5325  0.3664
25754SOL    HW177840   8.470   2.406   0.449  0.1426  0.1138 -0.1851
25754SOL    HW277841   8.545   2.533   0.482  1.3710 -0.8419  0.7764
25755SOL     OW77842   2.177   0.089   0.139 -0.3671  0.3217 -0.8400
25755SOL    HW177843   2.217   0.118   0.057 -1.7631  0.3882 -1.5298
25755SOL    HW277844   2.245   0.038   0.182  1.5366  2.9681 -0.4614
25756SOL     OW77845   4.084   8.086   8.194 -0.3756 -0.0498  0.1136
25756SOL    HW177846   4.163   8.060   8.242 -0.7677  0.0231  0.8031
25756SOL    HW277847   4.018   8.021   8.219 -0.3306 -0.5780 -1.0697
25757SOL     OW77848   8.912   8.169   4.726  0.3103  0.3105  0.0234
25757SOL    HW177849   8.882   8.185   4.637 -0.1029  0.6795  0.2274
25757SOL    HW277850   8.970   8.093   4.719 -0.1299  0.0234 -0.4753
25758SOL     OW77851   8.030   1.969   2.093  0.5779 -0.5264 -0.3515
25758SOL    HW177852   7.962   1.970   2.025 -1.3946  3.1008  1.3834
25758SOL    HW277853   8.050   1.877   2.105 -2.0397 -1.5927 -2.9061
25759SOL     OW77854   0.887   8.196   3.357 -0.0162  0.1997  0.1944
25759SOL    HW177855   0.876   8.231   3.445 -1.2581 -1.4169  0.7402
25759SOL    HW277856   0.890   8.101   3.369 -1.3205 -0.1190 -1.5762
25760SOL     OW77857   4.081   6.362   7.626  0.0646  0.5789  0.0730
25760SOL    HW177858   4.072   6.398   7.715 -1.2163 -0.4169  0.3804
25760SOL    HW277859   4.091   6.268   7.639 -0.8407  0.3333 -0.8393
25761SOL     OW77860   5.457   0.939   6.493 -0.1710  0.0316  0.2843
25761SOL    HW177861   5.388   1.004   6.482 -0.6088 -0.4003  0.4241
25761SOL    HW277862   5.530   0.972   6.442  0.0059  1.1976  1.2522
25762SOL     OW77863   9.581   2.205   5.723 -0.1836  0.0865 -0.1598
25762SOL    HW177864   9.515   2.148   5.683 -0.1832 -1.1753  1.5437
25762SOL    HW277865   9.532   2.258   5.786 -0.4192  3.0334 -2.5847
25763SOL     OW77866   7.726   2.365   8.492 -0.1202  0.8717  0.7974
25763SOL    HW177867   7.795   2.403   8.547 -2.3529  2.3869  2.7402
25763SOL    HW277868   7.671   2.316   8.553 -0.3555 -0.9977 -0.8332
25764SOL     OW77869   0.228   4.335   8.888 -0.2219 -0.0850  0.2181
25764SOL    HW177870   0.256   4.281   8.961  2.1960 -0.9287 -1.2090
25764SOL    HW277871   0.270   4.420   8.903 -2.8674  1.1009  1.7111
25765SOL     OW77872   3.540   9.699   4.819 -0.5696 -0.4925  0.2351
25765SOL    HW177873   3.583   9.735   4.742 -0.2983  0.7060  0.9080
25765SOL    HW277874   3.495   9.621   4.788  1.1500 -1.1508 -0.7215
25766SOL     OW77875   9.254   4.284   2.301 -0.7844 -0.2926 -0.1611
25766SOL    HW177876   9.288   4.233   2.374 -2.1194  0.0123  0.7039
25766SOL    HW277877   9.211   4.219   2.245 -0.7896 -0.3640 -0.0742
25767SOL     OW77878   0.063   9.558   3.914  0.1761 -0.0002 -0.2293
25767SOL    HW177879   0.033   9.587   3.828  0.9857 -1.9900 -1.2616
25767SOL    HW277880  -0.012   9.569   3.971 -0.5452  0.8811 -1.3087
25768SOL     OW77881   9.325   9.327   1.426  0.0988 -0.2076 -0.3882
25768SOL    HW177882   9.421   9.321   1.423 -0.0109 -2.5601 -1.1353
25768SOL    HW277883   9.300   9.262   1.492 -0.9984  0.0956 -0.4948
25769SOL     OW77884   9.810   8.694   5.433  0.0420  0.7902  0.0882
25769SOL    HW177885   9.774   8.680   5.520 -1.3481  2.0095 -0.2468
25769SOL    HW277886   9.739   8.736   5.384  1.9979  3.7440 -0.4936
25770SOL     OW77887   4.828   3.925   1.215 -0.3993  0.2168  0.4472
25770SOL    HW177888   4.830   4.011   1.258 -1.3873  0.9309 -0.8761
25770SOL    HW277889   4.918   3.910   1.186 -0.1269  0.5860  1.0795
25771SOL     OW77890   5.074   3.691   5.285 -0.1251 -0.0588 -0.4765
25771SOL    HW177891   5.070   3.632   5.210  0.3230 -0.2388 -0.3650
25771SOL    HW277892   5.014   3.762   5.264 -0.7863 -0.6329 -0.5465
25772SOL     OW77893   5.620   6.408   4.513 -0.8910 -0.1729  0.6784
25772SOL    HW177894   5.634   6.333   4.570  0.5721 -0.1944  0.3240
25772SOL    HW277895   5.615   6.371   4.425  0.3210  0.1687  0.4491
25773SOL     OW77896   4.753   0.766   3.981 -0.3971  0.8684 -0.3509
25773SOL    HW177897   4.794   0.738   4.063  0.0607  0.4662 -0.7121
25773SOL    HW277898   4.756   0.861   3.984  0.9991  0.8470 -0.5812
25774SOL     OW77899   5.403   0.260   2.497 -0.1099 -0.2133  0.6471
25774SOL    HW177900   5.352   0.330   2.456  2.0445  0.4580 -1.0657
25774SOL    HW277901   5.341   0.217   2.556 -1.7700  2.5472  1.1167
25775SOL     OW77902   8.799   6.440   2.160 -0.6259 -0.0326 -0.4925
25775SOL    HW177903   8.767   6.373   2.099  0.9412  1.1790 -2.8149
25775SOL    HW277904   8.890   6.454   2.134  0.2093  0.3761  2.3784
25776SOL     OW77905   2.361   7.214   5.534 -0.0468 -0.3004  0.3853
25776SOL    HW177906   2.334   7.283   5.473  0.9486  0.6408  0.9801
25776SOL    HW277907   2.433   7.252   5.582  0.7488 -1.9019  0.5083
25777SOL     OW77908   7.605   1.125   7.347 -0.5774 -0.3723 -0.1625
25777SOL    HW177909   7.663   1.201   7.343 -0.3877 -0.5473 -1.0946
25777SOL    HW277910   7.544   1.137   7.274 -1.2091 -0.5916  0.3216
25778SOL     OW77911   2.681   1.482   2.344  0.5167  0.1997  1.0198
25778SOL    HW177912   2.660   1.489   2.251  1.8042  0.6899  0.7535
25778SOL    HW277913   2.697   1.389   2.358 -0.9634 -0.0810  1.0663
25779SOL     OW77914   1.625   4.527   2.409  0.0897 -0.0560  0.4894
25779SOL    HW177915   1.663   4.472   2.476  0.0843  0.6285  1.0665
25779SOL    HW277916   1.669   4.501   2.328  2.5962  1.4434  1.2852
25780SOL     OW77917   5.543   6.193   0.235 -0.2635 -0.1780  0.2548
25780SOL    HW177918   5.582   6.111   0.205 -2.2138 -0.6133 -1.3100
25780SOL    HW277919   5.576   6.205   0.325  0.1679 -2.5889  0.4661
25781SOL     OW77920   2.382   7.194   2.247 -0.2201 -0.0258  0.3182
25781SOL    HW177921   2.345   7.240   2.171 -0.7574 -1.3461 -0.2485
25781SOL    HW277922   2.477   7.204   2.236 -0.3106  1.6465  0.6835
25782SOL     OW77923   7.566   4.410   3.513 -0.1834  0.0613 -0.2793
25782SOL    HW177924   7.589   4.469   3.585  0.5428 -0.5745  0.0162
25782SOL    HW277925   7.608   4.448   3.436 -0.1197  0.1956 -0.1788
25783SOL     OW77926   6.978   4.912   6.047 -0.0676  1.1008  0.2322
25783SOL    HW177927   7.007   4.948   6.131  1.5359 -0.5432  0.4499
25783SOL    HW277928   6.886   4.938   6.040 -0.6084  0.3346  3.0759
25784SOL     OW77929   0.034   5.119   1.444  0.1976  0.1829  0.5883
25784SOL    HW177930  -0.055   5.154   1.442  0.0410 -0.1914  0.7908
25784SOL    HW277931   0.067   5.145   1.530  0.4596  0.7284  0.3325
25785SOL     OW77932   3.196   1.622   8.074 -0.2578 -0.4624 -0.0868
25785SOL    HW177933   3.227   1.644   8.162  0.9497  1.2349 -0.8777
25785SOL    HW277934   3.191   1.526   8.074 -2.4152 -0.4651  2.4752
25786SOL     OW77935   2.084   5.465   0.183 -0.4069  0.1545  0.4014
25786SOL    HW177936   2.045   5.419   0.109  0.8274 -0.7216  0.2790
25786SOL    HW277937   2.053   5.418   0.260 -0.0541 -0.1936  0.3323
25787SOL     OW77938   1.724   0.302   3.124 -0.1731  0.3894  0.2434
25787SOL    HW177939   1.733   0.320   3.030 -0.4083 -1.2235 -0.1125
25787SOL    HW277940   1.684   0.381   3.159  0.9929  1.5033 -0.7999
25788SOL     OW77941   4.026   6.111   2.563 -0.8063  0.0779 -0.4892
25788SOL    HW177942   3.975   6.161   2.499  0.1214  1.2471 -0.3350
25788SOL    HW277943   4.058   6.036   2.514 -1.3573  0.1644 -0.9989
25789SOL     OW77944   6.311   6.530   3.240  0.7752  0.3913  0.0366
25789SOL    HW177945   6.235   6.527   3.182  0.5945  1.2694  0.2092
25789SOL    HW277946   6.362   6.604   3.208  1.4203 -0.0150  0.1011
25790SOL     OW77947   7.424   9.674   1.084  0.0715  0.8819 -0.0362
25790SOL    HW177948   7.495   9.672   1.020  1.4960 -0.9261  1.4559
25790SOL    HW277949   7.351   9.632   1.040  0.9117  0.0118 -0.6391
25791SOL     OW77950   4.258   3.819   3.872  0.3550  0.1231 -0.3768
25791SOL    HW177951   4.316   3.836   3.798  0.3217  1.4918 -0.1230
25791SOL    HW277952   4.254   3.724   3.878  1.0144 -0.0085 -1.6127
25792SOL     OW77953   5.786   7.411   5.191  0.3080 -0.4885 -0.3350
25792SOL    HW177954   5.767   7.339   5.250  0.0904 -1.7411 -1.8604
25792SOL    HW277955   5.810   7.484   5.248 -0.3301 -1.5005  1.2857
25793SOL     OW77956   6.166   7.865   9.827 -0.2809  0.0731 -0.1041
25793SOL    HW177957   6.074   7.890   9.836 -0.4491 -0.2714 -0.7620
25793SOL    HW277958   6.215   7.944   9.849 -0.7686  0.5843 -0.8080
25794SOL     OW77959   5.889   1.257   6.033 -1.0161  0.6301 -0.1183
25794SOL    HW177960   5.921   1.319   6.099  2.0198  0.0576 -0.8833
25794SOL    HW277961   5.911   1.297   5.949 -2.5473  0.2213 -0.7439
25795SOL     OW77962   3.692   6.467   7.744  0.5672 -0.0394  0.1205
25795SOL    HW177963   3.615   6.458   7.688  1.5322 -0.3245 -1.2075
25795SOL    HW277964   3.685   6.394   7.806 -2.2111  2.1104  2.6188
25796SOL     OW77965   6.403   6.825   9.911  0.8355 -0.0694  0.4328
25796SOL    HW177966   6.430   6.754   9.853 -1.3642  0.0739 -0.8705
25796SOL    HW277967   6.425   6.794   9.999  0.4881 -2.0890 -0.1594
25797SOL     OW77968   6.375   4.539   9.612  0.2290 -0.0312 -0.0532
25797SOL    HW177969   6.388   4.472   9.546  0.5993 -1.1380  1.0914
25797SOL    HW277970   6.286   4.572   9.596  0.0939 -0.7011 -0.7057
25798SOL     OW77971   0.307   0.534   5.920 -0.1877  0.0809  1.0081
25798SOL    HW177972   0.371   0.605   5.925  0.2392 -0.0989 -0.9769
25798SOL    HW277973   0.360   0.454   5.924 -0.1265 -0.0706 -1.4021
25799SOL     OW77974   3.300   9.657   5.860  0.0926  0.1316  0.4468
25799SOL    HW177975   3.238   9.610   5.914 -0.5184  0.9159  0.4504
25799SOL    HW277976   3.258   9.741   5.842 -0.5455 -0.7152 -2.7226
25800SOL     OW77977   5.431   9.176   2.919 -0.1771 -0.0455 -0.2015
25800SOL    HW177978   5.394   9.200   2.835  0.2883 -0.8993 -0.6596
25800SOL    HW277979   5.362   9.125   2.962 -2.0612  3.6418  1.6880
25801SOL     OW77980   0.928   5.767   0.946  0.6814  0.6695  0.1432
25801SOL    HW177981   0.927   5.783   1.041 -0.5557  1.5315  0.0156
25801SOL    HW277982   1.020   5.768   0.922  0.9608  1.5783  1.1686
25802SOL     OW77983   2.983   5.185   0.095 -0.2202 -0.1922 -0.0331
25802SOL    HW177984   3.014   5.201   0.006 -2.3562  0.6144 -0.6970
25802SOL    HW277985   3.026   5.104   0.121  2.1886  0.7205 -0.9039
25803SOL     OW77986   9.921   0.897   6.836  0.4614  0.5452  0.4399
25803SOL    HW177987   9.956   0.946   6.911  0.0884 -1.7297  2.2293
25803SOL    HW277988   9.833   0.932   6.824 -0.1372 -0.1808  2.2810
25804SOL     OW77989   4.355   3.770   7.066  0.7310 -0.1535  0.4959
25804SOL    HW177990   4.318   3.794   7.151 -0.1804 -1.0118  0.3503
25804SOL    HW277991   4.417   3.840   7.047 -0.7431  1.3083  0.7970
25805SOL     OW77992   9.033   0.170   2.955  0.3164  0.3593 -0.0863
25805SOL    HW177993   9.024   0.233   2.883 -0.3317  0.5039  0.1090
25805SOL    HW277994   8.943   0.159   2.988  0.3961 -0.7869 -0.2133
25806SOL     OW77995   1.894   1.903   3.481  0.4372 -0.3281 -0.0623
25806SOL    HW177996   1.805   1.919   3.513  0.6364  0.8422 -0.0403
25806SOL    HW277997   1.918   1.819   3.518 -0.2465 -0.1315  0.8679
25807SOL     OW77998   3.823   2.656   3.555  0.1709 -0.1109 -0.6204
25807SOL    HW177999   3.861   2.569   3.545  0.5049  0.1042 -1.2526
25807SOL    HW278000   3.822   2.671   3.650 -1.4521 -1.4830 -0.3533
25808SOL     OW78001   7.634   2.032   9.110  0.2507  0.1586 -0.0902
25808SOL    HW178002   7.675   2.112   9.141 -0.4259  1.1531 -1.6237
25808SOL    HW278003   7.699   1.964   9.126  0.8769  1.0045  1.1688
25809SOL     OW78004   7.743   9.654   4.459  0.1324  0.1675  0.4580
25809SOL    HW178005   7.716   9.723   4.519 -0.6498  0.6902 -0.4510
25809SOL    HW278006   7.836   9.639   4.478  0.4045  1.7100  0.4480
25810SOL     OW78007   2.783   2.456   9.944  1.0076  0.7025 -0.7394
25810SOL    HW178008   2.847   2.385   9.936  1.5039  1.2653 -2.0496
25810SOL    HW278009   2.726   2.445   9.868  1.6573  2.2296 -1.4920
25811SOL     OW78010   4.971   7.008   9.281  0.1303 -1.0850  0.0938
25811SOL    HW178011   4.976   7.087   9.227  1.4431 -1.2537 -0.0657
25811SOL    HW278012   4.983   7.041   9.371  1.5393 -1.1567 -0.0392
25812SOL     OW78013   6.496   1.204   4.462 -0.2266  0.2569  0.1469
25812SOL    HW178014   6.454   1.228   4.545  0.0448  0.3812  0.2516
25812SOL    HW278015   6.577   1.254   4.462  0.1288 -0.3108  0.1485
25813SOL     OW78016   8.776   2.261   6.616  0.3408  0.1141 -0.0421
25813SOL    HW178017   8.773   2.204   6.693  0.3653  0.0637 -0.0779
25813SOL    HW278018   8.869   2.282   6.606  0.5276 -0.9713 -0.8463
25814SOL     OW78019   1.868   5.874   9.397  0.4580 -0.6258  0.2700
25814SOL    HW178020   1.951   5.878   9.350  0.5865  0.2458  0.5537
25814SOL    HW278021   1.869   5.951   9.454 -1.1908  0.2549 -0.7964
25815SOL     OW78022   3.291   9.927   0.864  0.4313 -0.2409 -0.0378
25815SOL    HW178023   3.310  10.015   0.833  1.6995 -0.1531  0.8999
25815SOL    HW278024   3.329   9.869   0.797  0.9614 -0.0653  0.1100
25816SOL     OW78025   5.955   8.812   5.762  0.1464  0.5038  0.3331
25816SOL    HW178026   5.868   8.849   5.744  0.5427  1.0941 -0.4237
25816SOL    HW278027   5.970   8.750   5.691 -0.2061 -0.6067  1.1987
25817SOL     OW78028   6.459   5.446   8.454 -0.0386  0.6155 -0.6153
25817SOL    HW178029   6.438   5.399   8.373 -1.8371 -0.0870  0.1997
25817SOL    HW278030   6.397   5.411   8.518  0.8249  1.7205  0.8766
25818SOL     OW78031   7.640   1.536   8.107 -0.0350  0.5439  0.1761
25818SOL    HW178032   7.719   1.529   8.052  1.0003  1.6068  1.4439
25818SOL    HW278033   7.571   1.494   8.056  1.4621 -0.8849 -0.7566
25819SOL     OW78034   3.084   4.721   8.601 -0.1016  0.0992  0.6030
25819SOL    HW178035   3.167   4.674   8.609 -0.0999 -0.2881 -1.3433
25819SOL    HW278036   3.065   4.751   8.690  1.3911 -1.0352  1.3438
25820SOL     OW78037   2.195   8.724   1.328  0.0454 -0.3204  0.0153
25820SOL    HW178038   2.143   8.795   1.368  0.0319  0.6567 -1.6235
25820SOL    HW278039   2.255   8.696   1.397 -0.0700  1.1875  0.7699
25821SOL     OW78040   6.191   1.742   9.176  0.2110  0.6240 -0.0605
25821SOL    HW178041   6.208   1.698   9.093 -0.4753 -0.0403  0.1361
25821SOL    HW278042   6.278   1.758   9.213  0.5159  0.8235 -0.8465
25822SOL     OW78043   2.862   4.837   4.852  0.2936  0.3271  0.0993
25822SOL    HW178044   2.835   4.908   4.911 -0.6665 -0.4351  0.5946
25822SOL    HW278045   2.828   4.758   4.892 -0.8043 -0.1764 -1.7047
25823SOL     OW78046   1.187   7.232   9.220  0.5552 -0.0069 -0.2946
25823SOL    HW178047   1.186   7.183   9.137 -1.3484  0.4739 -0.6000
25823SOL    HW278048   1.150   7.171   9.284 -0.1628  0.4215 -0.2987
25824SOL     OW78049   2.941   6.264   7.843  0.0141 -0.1452 -0.2095
25824SOL    HW178050   2.877   6.316   7.795  0.8735  0.7897 -0.3729
25824SOL    HW278051   2.899   6.179   7.854 -2.6699  1.3507  2.5974
25825SOL     OW78052   5.332   2.468   6.855 -0.2050 -0.4217 -0.3256
25825SOL    HW178053   5.293   2.386   6.824 -1.4962  0.1129 -0.1973
25825SOL    HW278054   5.349   2.518   6.775 -0.4959 -0.3538 -0.3462
25826SOL     OW78055   0.661   4.817   7.038  0.4608 -0.0475 -0.2798
25826SOL    HW178056   0.663   4.805   7.132  0.9910  1.5272 -0.0509
25826SOL    HW278057   0.748   4.790   7.008  0.7312  0.6255 -0.1283
25827SOL     OW78058   0.348   3.117   5.790  0.5019 -0.3939  0.3309
25827SOL    HW178059   0.256   3.141   5.779  0.8436  0.5854 -0.5924
25827SOL    HW278060   0.353   3.081   5.879 -0.3943  1.4318  1.1819
25828SOL     OW78061   0.638   3.568   7.951 -0.4959 -0.9505 -0.0123
25828SOL    HW178062   0.649   3.589   7.858  0.6511 -2.1300 -0.1657
25828SOL    HW278063   0.599   3.481   7.952  0.2379 -1.2830  0.6013
25829SOL     OW78064   1.405   3.081  -0.030 -0.0535  0.1598 -0.0593
25829SOL    HW178065   1.369   3.149   0.026 -0.6522  0.6119 -0.9566
25829SOL    HW278066   1.486   3.055   0.012  0.4805  1.8272  0.0139
25830SOL     OW78067   3.199   4.090   0.938 -0.1532  0.0384 -0.1405
25830SOL    HW178068   3.172   4.160   0.878  0.1079  0.2400 -0.0235
25830SOL    HW278069   3.174   4.010   0.893  2.6961  0.0027 -1.9207
25831SOL     OW78070   3.888   3.131   6.157 -0.3741  0.1839  0.6622
25831SOL    HW178071   3.880   3.038   6.178  0.4907 -0.0073  0.1807
25831SOL    HW278072   3.865   3.137   6.065 -1.0842  0.5562  0.8576
25832SOL     OW78073   8.440   9.113   7.152  0.1220  0.2486  0.0570
25832SOL    HW178074   8.393   9.053   7.094 -0.1196 -0.6946  1.2127
25832SOL    HW278075   8.479   9.177   7.092 -0.9732 -0.0994 -1.0752
25833SOL     OW78076   5.382   8.288   0.920  0.2801 -0.1632  0.2221
25833SOL    HW178077   5.455   8.326   0.870 -0.6726  0.2697 -0.8651
25833SOL    HW278078   5.415   8.203   0.948  0.1181 -1.4720 -3.1052
25834SOL     OW78079   0.839   5.120   8.421  0.4756  0.3264  0.8808
25834SOL    HW178080   0.840   5.072   8.504 -1.4774 -0.9760  0.2258
25834SOL    HW278081   0.897   5.195   8.436 -1.1196  1.1199  4.0235
25835SOL     OW78082   9.411   1.816   5.806 -0.7715 -0.1193  0.0666
25835SOL    HW178083   9.453   1.830   5.722 -0.1579  1.0342  0.5401
25835SOL    HW278084   9.318   1.806   5.786 -0.8002  1.4114 -0.6399
25836SOL     OW78085   5.245   0.595   5.173  0.0385  0.1581 -0.0871
25836SOL    HW178086   5.241   0.605   5.268  2.7228  3.3491 -0.1113
25836SOL    HW278087   5.327   0.549   5.157 -0.4215 -0.4172 -0.8692
25837SOL     OW78088   9.363   5.327   5.460 -0.3827 -0.2164  0.3209
25837SOL    HW178089   9.299   5.307   5.392 -0.3758 -1.3809  0.6415
25837SOL    HW278090   9.320   5.391   5.516 -0.6208  0.2839 -0.4052
25838SOL     OW78091   3.581   6.351   4.781  0.0031 -0.0024  0.4284
25838SOL    HW178092   3.508   6.313   4.731  0.0829 -1.0916  1.1002
25838SOL    HW278093   3.573   6.445   4.767  1.5472 -0.2644 -3.7862
25839SOL     OW78094   8.417   9.542   9.799  0.1925 -0.0550  0.3256
25839SOL    HW178095   8.385   9.612   9.743 -0.4375  0.3452  1.1635
25839SOL    HW278096   8.338   9.497   9.828  0.5813 -1.0687 -0.1289
25840SOL     OW78097   3.502   0.657   6.469 -0.5684 -0.3665  0.3045
25840SOL    HW178098   3.436   0.717   6.505 -0.9399 -1.1414  0.9525
25840SOL    HW278099   3.464   0.627   6.386 -0.4457  0.1732  0.0493
25841SOL     OW78100   3.746   1.584   2.887 -0.1736 -0.0980 -0.1094
25841SOL    HW178101   3.803   1.516   2.921  0.2958 -0.2125 -1.0839
25841SOL    HW278102   3.657   1.556   2.910  0.0790 -0.5531  0.3182
25842SOL     OW78103   4.165   7.091   6.433 -0.0215 -0.3278  0.4475
25842SOL    HW178104   4.130   7.002   6.427 -2.7753  0.6652  0.3722
25842SOL    HW278105   4.173   7.107   6.527 -4.3242  0.8951  0.8255
25843SOL     OW78106   7.065   6.952   8.137  0.8124 -0.3057  0.1222
25843SOL    HW178107   7.050   6.870   8.091  0.8212  0.0878 -0.5933
25843SOL    HW278108   6.978   6.988   8.151  0.6530 -1.3177  2.1242
25844SOL     OW78109   9.100   7.509   1.270  0.2189 -0.2324  0.1050
25844SOL    HW178110   9.152   7.554   1.204 -0.2921 -1.4224 -1.1590
25844SOL    HW278111   9.054   7.580   1.316  0.3061  0.6100 -1.0474
25845SOL     OW78112   9.469   7.742   6.516 -0.8034 -0.1890  0.4353
25845SOL    HW178113   9.554   7.730   6.474 -0.0655 -0.8438  2.0378
25845SOL    HW278114   9.410   7.686   6.466 -0.1938 -0.1229 -0.3841
25846SOL     OW78115   6.595   5.737   4.981  0.4193  0.1956  0.3139
25846SOL    HW178116   6.571   5.661   4.927  0.1214 -0.1588  0.9274
25846SOL    HW278117   6.548   5.810   4.942  2.0443  0.4157 -1.3188
25847SOL     OW78118   2.409   4.069   5.220  0.2312  0.7274  0.6469
25847SOL    HW178119   2.425   4.163   5.207 -0.4882  0.5637 -1.9744
25847SOL    HW278120   2.316   4.062   5.238  0.1616  0.4890  0.2198
25848SOL     OW78121   1.832   1.824   6.969 -0.2176  0.2640 -0.0024
25848SOL    HW178122   1.819   1.734   6.998  0.1855  0.1177 -0.2724
25848SOL    HW278123   1.762   1.873   7.013 -0.1594 -0.0979  0.5122
25849SOL     OW78124   7.978   1.238   1.315 -0.6157 -0.7385  0.2698
25849SOL    HW178125   8.068   1.228   1.347 -0.8690  0.3351  1.3895
25849SOL    HW278126   7.982   1.209   1.224  0.9150 -0.4774  0.2223
25850SOL     OW78127   0.504   2.579   2.729  0.3242  0.0472 -0.3649
25850SOL    HW178128   0.582   2.572   2.785  0.0049 -0.7059 -0.0045
25850SOL    HW278129   0.539   2.598   2.642  0.8504  0.8077 -0.0025
25851SOL     OW78130   5.996   0.934   6.701  0.0222 -0.6028 -0.2110
25851SOL    HW178131   6.032   0.964   6.784  0.6194  0.1308 -0.7220
25851SOL    HW278132   5.966   0.844   6.718 -0.3009 -0.2944  0.9120
25852SOL     OW78133   3.936   1.861   3.136  0.0767  0.1354  1.3128
25852SOL    HW178134   3.899   1.825   3.055  2.1981  0.9244 -0.1018
25852SOL    HW278135   3.861   1.869   3.195 -1.3359 -1.6555 -0.1042
25853SOL     OW78136   0.976   1.275   9.394 -0.0952  0.5572 -0.4882
25853SOL    HW178137   1.061   1.266   9.437  0.2083  2.7440 -0.5195
25853SOL    HW278138   0.913   1.241   9.458  0.7037 -0.0846 -0.0229
25854SOL     OW78139   1.898   4.680   4.726 -0.1140  0.0481  0.1113
25854SOL    HW178140   1.905   4.627   4.805  0.7580  0.1499  0.1106
25854SOL    HW278141   1.981   4.728   4.721 -1.6744  3.2158  1.3931
25855SOL     OW78142   5.280   1.961   3.397 -0.8200 -0.4679  0.0564
25855SOL    HW178143   5.211   1.955   3.331  0.4292  0.0517 -1.3337
25855SOL    HW278144   5.310   2.052   3.393 -0.6754 -0.4435  1.3033
25856SOL     OW78145   0.071   6.573   9.125 -0.0772 -0.2458  0.5330
25856SOL    HW178146   0.123   6.523   9.188 -0.0914 -1.1181 -0.1333
25856SOL    HW278147   0.057   6.657   9.168  2.9754  0.5302  0.2568
25857SOL     OW78148   6.725   0.551   0.000  0.2103 -0.2197  0.3352
25857SOL    HW178149   6.720   0.531   0.093  0.1055  0.5957  0.5173
25857SOL    HW278150   6.789   0.489  -0.035 -0.1572 -0.8948  0.8427
25858SOL     OW78151   9.508   6.947   3.100 -0.2883  0.1667  0.5403
25858SOL    HW178152   9.467   6.967   3.016 -0.0065  1.0602  0.6032
25858SOL    HW278153   9.538   7.032   3.133 -1.8286  0.0634  2.3239
25859SOL     OW78154   6.879   8.386   5.776 -0.2762 -0.8404  0.4334
25859SOL    HW178155   6.874   8.328   5.700  0.2443 -1.6809  1.0180
25859SOL    HW278156   6.788   8.405   5.798 -0.4374 -0.7204 -0.2897
25860SOL     OW78157   7.980   9.387   5.875 -0.1729  0.2553  0.2645
25860SOL    HW178158   8.050   9.335   5.834  0.5544  0.5724  1.0910
25860SOL    HW278159   8.011   9.477   5.871  1.0816  0.1065  3.6386
25861SOL     OW78160   7.431   7.511   4.240  0.4453  0.0139 -0.6831
25861SOL    HW178161   7.470   7.562   4.169  0.1603  0.1294 -0.7584
25861SOL    HW278162   7.456   7.421   4.220 -1.2037 -0.2060 -1.9993
25862SOL     OW78163   3.640   9.634   9.819 -0.5877 -0.0366  0.2274
25862SOL    HW178164   3.636   9.684   9.900 -2.2168 -2.5713  1.8736
25862SOL    HW278165   3.710   9.570   9.833  0.3917  0.6949 -1.1682
25863SOL     OW78166   1.739   3.711   7.792 -0.0368  0.0593 -0.3375
25863SOL    HW178167   1.740   3.704   7.887 -2.2737 -2.2884 -0.3793
25863SOL    HW278168   1.769   3.625   7.761 -1.6806 -0.0723 -1.6757
25864SOL     OW78169   7.928   1.397   4.018  0.1142  0.0893  0.0163
25864SOL    HW178170   7.866   1.461   3.983  1.9605  0.1555 -3.5954
25864SOL    HW278171   8.000   1.450   4.053 -0.6504 -0.0330  1.8901
25865SOL     OW78172   1.994   4.484   7.902 -0.1296 -0.0591 -0.0687
25865SOL    HW178173   1.980   4.565   7.853 -1.1854  0.4297  0.9941
25865SOL    HW278174   1.908   4.442   7.904  0.5354 -1.5881 -1.2041
25866SOL     OW78175   6.184   9.571   5.058 -0.4927 -0.5734  0.6109
25866SOL    HW178176   6.251   9.512   5.023 -1.3922 -0.6486 -1.0677
25866SOL    HW278177   6.234   9.644   5.096  0.5535 -0.2510 -1.2692
25867SOL     OW78178   5.003   2.322   0.611  0.9011  0.0705 -0.2020
25867SOL    HW178179   4.918   2.314   0.655  0.8595 -0.7386 -0.4019
25867SOL    HW278180   5.006   2.247   0.552  2.0226 -0.2649  0.2557
25868SOL     OW78181   2.964   5.020   2.956 -0.1599 -0.3863  0.3514
25868SOL    HW178182   3.002   5.016   3.044 -0.8170 -1.0499  0.6239
25868SOL    HW278183   2.870   5.029   2.972 -0.3953 -1.5751 -0.2537
25869SOL     OW78184   6.438   5.861   0.150 -0.1697 -0.0582 -0.2716
25869SOL    HW178185   6.483   5.777   0.159 -1.0703 -0.7209 -1.5781
25869SOL    HW278186   6.477   5.916   0.218  1.1073 -1.2307  0.0109
25870SOL     OW78187   6.200   8.749   8.344 -0.0721  0.1175 -0.3275
25870SOL    HW178188   6.231   8.662   8.371  0.2741  0.2990 -0.1353
25870SOL    HW278189   6.280   8.801   8.336 -0.3717  0.7782  0.8375
25871SOL     OW78190   2.254   7.839   4.630  0.2919  0.1967 -0.7423
25871SOL    HW178191   2.164   7.835   4.598 -0.2097 -1.6633  0.7128
25871SOL    HW278192   2.293   7.755   4.606  1.1128  0.3089  0.0976
25872SOL     OW78193   4.531   2.485   8.169 -0.5399 -0.5384 -0.4384
25872SOL    HW178194   4.615   2.462   8.131 -0.0370 -0.1446  0.3877
25872SOL    HW278195   4.510   2.571   8.132 -0.4870 -0.5491 -0.4928
25873SOL     OW78196   6.492   9.989   6.739 -0.4563  0.3766 -0.2310
25873SOL    HW178197   6.548   9.915   6.717 -0.4760 -0.2539  1.6607
25873SOL    HW278198   6.404   9.951   6.749 -1.0346  1.1481 -1.9156
25874SOL     OW78199   7.834   6.340   2.581  0.1971 -0.3118  0.7278
25874SOL    HW178200   7.862   6.248   2.580  0.3436 -0.2673  0.6721
25874SOL    HW278201   7.755   6.341   2.527 -0.7172 -0.6883  2.0172
25875SOL     OW78202   5.495   1.387   7.111 -0.3080 -0.1487 -0.8524
25875SOL    HW178203   5.589   1.369   7.116 -0.2903 -0.1674 -1.2358
25875SOL    HW278204   5.459   1.312   7.064 -0.7791 -1.0267  0.8240
25876SOL     OW78205   9.158   2.800   4.315 -0.5557 -0.1802  0.7655
25876SOL    HW178206   9.194   2.856   4.384  0.2723 -1.8456  1.7580
25876SOL    HW278207   9.064   2.817   4.317 -0.3585  0.9187  1.2750
25877SOL     OW78208   9.218   2.487   7.907  0.0529  0.1419 -0.3613
25877SOL    HW178209   9.275   2.536   7.849  1.6390 -0.5698  0.5373
25877SOL    HW278210   9.135   2.480   7.859  1.3143 -0.5186 -2.5928
25878SOL     OW78211   5.910   8.173   8.942  0.3972  0.1441  0.0278
25878SOL    HW178212   5.927   8.236   9.012  1.3815 -1.8898  1.7236
25878SOL    HW278213   5.986   8.178   8.885 -0.5080  1.9710 -1.1332
25879SOL     OW78214   8.790   8.947   9.038  0.8445  0.2486  0.3356
25879SOL    HW178215   8.780   8.987   8.951  0.6591 -1.0102 -0.2441
25879SOL    HW278216   8.700   8.928   9.066  0.9992 -2.1775 -0.5943
25880SOL     OW78217   3.300   4.664   3.946  0.0672  0.0317  0.0835
25880SOL    HW178218   3.250   4.588   3.917 -1.1640  0.5606  0.7670
25880SOL    HW278219   3.294   4.662   4.041 -0.2708  1.1866  0.0909
25881SOL     OW78220   6.041   2.248   2.083 -0.7734  0.2434  0.1620
25881SOL    HW178221   6.032   2.342   2.095  0.1899  0.4154 -0.3250
25881SOL    HW278222   6.046   2.237   1.988  0.2067 -0.1720  0.2496
25882SOL     OW78223   5.252   3.023   5.914 -0.4770 -0.3364  0.7723
25882SOL    HW178224   5.274   3.083   5.842 -0.3895  0.3084  1.3265
25882SOL    HW278225   5.231   2.941   5.870  0.5688 -0.2519  0.0589
25883SOL     OW78226   5.151   0.861   8.615 -0.4875  0.0123 -0.1190
25883SOL    HW178227   5.146   0.833   8.524 -0.8194  0.0297 -0.1068
25883SOL    HW278228   5.134   0.781   8.665  0.0828 -0.0801 -0.0657
25884SOL     OW78229   1.098   5.253   9.922  0.3224  0.2941 -0.3022
25884SOL    HW178230   1.170   5.304   9.961 -1.2084  0.0003  3.3663
25884SOL    HW278231   1.029   5.317   9.906  0.7447  0.3160 -2.1540
25885SOL     OW78232   9.897   0.630   6.826 -0.6158 -0.3748  0.2508
25885SOL    HW178233   9.881   0.724   6.822  1.4254 -0.0139 -0.2528
25885SOL    HW278234   9.992   0.621   6.832 -0.6541 -2.4208 -0.9973
25886SOL     OW78235   8.532   8.619   4.054  0.1681  0.0833  0.2439
25886SOL    HW178236   8.485   8.543   4.088  1.4070 -0.8574 -0.0336
25886SOL    HW278237   8.596   8.582   3.993 -0.7949  1.5644 -1.7770
25887SOL     OW78238   9.904   0.189   2.789  0.4428 -0.1446 -0.4371
25887SOL    HW178239   9.858   0.111   2.819 -1.4290  0.5475 -1.3909
25887SOL    HW278240   9.859   0.215   2.708 -1.1372  3.7099  1.4053
25888SOL     OW78241   5.221   5.989   2.282  0.7016  0.1432 -0.4432
25888SOL    HW178242   5.268   5.920   2.329 -0.5612 -0.3165  0.1909
25888SOL    HW278243   5.272   6.068   2.299  2.9748 -0.7855 -2.3282
25889SOL     OW78244   1.260   3.279   5.740  0.0301  0.0973 -0.4048
25889SOL    HW178245   1.214   3.351   5.783  0.0677  1.2145 -2.1408
25889SOL    HW278246   1.269   3.307   5.649  4.0326 -0.0677 -0.2468
25890SOL     OW78247   2.899   1.774   9.936 -0.3207  0.3719  0.4397
25890SOL    HW178248   2.970   1.777  10.000  0.4421  1.1720 -0.4166
25890SOL    HW278249   2.855   1.859   9.944  1.1481  1.4056 -1.5592
25891SOL     OW78250   7.111   9.387   8.896 -0.1593  0.0709  0.4003
25891SOL    HW178251   7.198   9.423   8.879 -1.2733  2.3277 -0.9665
25891SOL    HW278252   7.073   9.375   8.809 -1.6437  0.2666  0.9912
25892SOL     OW78253   2.749   6.599   0.702  0.1378  0.4315 -0.0596
25892SOL    HW178254   2.736   6.535   0.772  0.6283  1.2060  0.7531
25892SOL    HW278255   2.835   6.575   0.665  0.9487  1.4066  1.1213
25893SOL     OW78256   1.692   0.916   7.665  0.0557 -0.3918 -0.3788
25893SOL    HW178257   1.628   0.875   7.723  1.1190 -0.3590  0.8617
25893SOL    HW278258   1.747   0.967   7.723  0.4674  0.5608 -1.5780
25894SOL     OW78259   3.088   3.063   9.421 -0.0858 -0.4099 -0.7258
25894SOL    HW178260   3.108   3.042   9.513 -2.0251 -2.6027 -0.7178
25894SOL    HW278261   2.994   3.082   9.421  0.3655  2.2229 -1.8908
25895SOL     OW78262   6.452   0.196   6.936  0.5542 -0.0270 -0.6556
25895SOL    HW178263   6.476   0.282   6.901  1.6067  0.4739  1.1820
25895SOL    HW278264   6.460   0.136   6.861  3.3232  0.8907 -1.1780
25896SOL     OW78265   7.185   2.812   7.639 -0.2416  0.1669 -0.0557
25896SOL    HW178266   7.261   2.855   7.600  0.8609  0.1896  1.9976
25896SOL    HW278267   7.172   2.734   7.584  2.2785 -0.6878  0.3842
25897SOL     OW78268   5.189   4.779   4.908  0.2303  0.2044  0.2358
25897SOL    HW178269   5.137   4.818   4.979  1.0862  0.7771  0.5743
25897SOL    HW278270   5.126   4.760   4.839 -0.6745 -0.6683  1.2776
25898SOL     OW78271   2.796   3.205   8.216  0.2010 -0.4556 -0.2064
25898SOL    HW178272   2.833   3.220   8.303 -3.4160 -0.4045  1.5199
25898SOL    HW278273   2.769   3.292   8.186 -0.7343 -0.7476 -0.2524
25899SOL     OW78274   4.855   5.560   4.157 -0.5363  0.2201  0.1593
25899SOL    HW178275   4.919   5.510   4.207 -0.0526 -0.0464 -0.7206
25899SOL    HW278276   4.794   5.495   4.122 -1.1201  0.4435  0.7295
25900SOL     OW78277   8.516   9.964   7.842  0.4331 -0.3382 -0.4260
25900SOL    HW178278   8.458  10.012   7.782  0.2417  0.3648  0.2999
25900SOL    HW278279   8.462   9.891   7.874  0.5955 -0.8185 -1.2360
25901SOL     OW78280   6.777   4.067   6.911  0.0690  0.7314  0.2673
25901SOL    HW178281   6.831   4.106   6.980 -0.0667  1.2345  0.0887
25901SOL    HW278282   6.708   4.131   6.895 -0.2814  0.3244  0.1222
25902SOL     OW78283   4.129   8.004   7.240 -0.6575 -0.4059 -0.0492
25902SOL    HW178284   4.051   8.057   7.255  0.0719  1.0505 -1.1776
25902SOL    HW278285   4.164   7.987   7.328 -0.7636  1.2491  0.3494
25903SOL     OW78286   1.416   4.679   8.369  0.2634  0.3282  0.1641
25903SOL    HW178287   1.378   4.622   8.303  2.1733  0.6941 -1.3478
25903SOL    HW278288   1.441   4.758   8.321  0.3096  1.2386  1.6379
25904SOL     OW78289   0.845   4.940   7.462  0.3572 -0.5390 -0.2498
25904SOL    HW178290   0.907   4.926   7.391 -0.6706 -2.6850 -0.7723
25904SOL    HW278291   0.853   4.863   7.518  1.2761  1.1493  2.1682
25905SOL     OW78292   0.138   2.770   9.516  0.8462 -0.1246 -0.3934
25905SOL    HW178293   0.147   2.739   9.426  0.4086  0.3839 -0.6192
25905SOL    HW278294   0.221   2.814   9.535  1.4545 -1.3476 -0.0859
25906SOL     OW78295   6.463   2.958   0.062 -0.2105 -0.3207  0.2446
25906SOL    HW178296   6.480   2.884   0.004  0.9162  0.4299 -0.4250
25906SOL    HW278297   6.523   2.946   0.135  1.6098  1.0611 -0.9462
25907SOL     OW78298   6.155   8.725   5.993 -0.0671 -0.0161  0.8390
25907SOL    HW178299   6.096   8.788   5.952 -0.1175  0.3424  1.4547
25907SOL    HW278300   6.111   8.641   5.984  0.3974 -0.1215 -0.7811
25908SOL     OW78301   4.724   2.290   3.463  0.2208  0.0588 -0.9535
25908SOL    HW178302   4.814   2.313   3.439  0.6179 -1.6940 -1.3368
25908SOL    HW278303   4.722   2.194   3.457 -1.7318  0.0693 -1.1335
25909SOL     OW78304   6.635   3.407   1.506  0.1524  0.4416  0.0378
25909SOL    HW178305   6.682   3.397   1.423 -0.2496 -1.1411 -0.0338
25909SOL    HW278306   6.675   3.343   1.564 -1.4995 -0.5531  0.1421
25910SOL     OW78307   4.229   9.486   8.408  0.3407 -0.4215 -0.0406
25910SOL    HW178308   4.239   9.398   8.371 -0.1442 -0.2507 -0.6018
25910SOL    HW278309   4.304   9.496   8.466  1.4082 -0.5303 -1.3487
25911SOL     OW78310   9.370   4.260   9.301  0.1940 -0.1496  0.1856
25911SOL    HW178311   9.360   4.284   9.209  0.4765  0.0155  0.1944
25911SOL    HW278312   9.451   4.209   9.304  0.9125  0.9645  0.5342
25912SOL     OW78313   9.647   8.292   5.999  0.1984  0.2329  0.5873
25912SOL    HW178314   9.578   8.358   6.007 -1.7667 -1.7483  1.1041
25912SOL    HW278315   9.623   8.224   6.063  1.1566 -1.7607 -1.0446
25913SOL     OW78316   7.825   2.309   1.511 -0.0354  0.6869 -0.4852
25913SOL    HW178317   7.856   2.307   1.420  0.9026 -1.3080 -0.1865
25913SOL    HW278318   7.877   2.378   1.552  0.0263  1.1441 -1.2958
25914SOL     OW78319   2.778   5.278   6.551 -0.1350  0.0550  0.7876
25914SOL    HW178320   2.761   5.231   6.469  1.4328  2.8986 -1.3329
25914SOL    HW278321   2.691   5.292   6.588 -1.2281  1.0223 -1.8566
25915SOL     OW78322   3.893   6.781   7.161 -0.2438  0.5698 -0.8719
25915SOL    HW178323   3.984   6.764   7.183 -0.2476  1.0863 -0.4322
25915SOL    HW278324   3.843   6.733   7.226 -0.2940  0.2448 -1.1440
25916SOL     OW78325   2.269   3.195   0.925  0.4421 -0.6198  0.0001
25916SOL    HW178326   2.271   3.289   0.942  0.1899 -0.9642  2.1060
25916SOL    HW278327   2.361   3.170   0.917  0.5159 -0.2407 -0.4295
25917SOL     OW78328   5.199   7.479   0.693 -0.6687 -0.1388 -0.1262
25917SOL    HW178329   5.202   7.436   0.607 -0.0112 -2.7901  1.1263
25917SOL    HW278330   5.116   7.450   0.731  0.0182 -0.7737  0.9457
25918SOL     OW78331   7.719   2.976   1.696  0.0945  0.0997  0.4364
25918SOL    HW178332   7.727   2.992   1.790 -2.3444 -1.8564  1.0898
25918SOL    HW278333   7.662   3.046   1.665  0.5487  0.4963  0.4834
25919SOL     OW78334   6.071   3.029   7.776 -0.3279  0.4243  0.0694
25919SOL    HW178335   6.163   3.013   7.797  0.2343  2.0718 -0.9176
25919SOL    HW278336   6.027   2.946   7.792  1.0559  0.0035  2.0335
25920SOL     OW78337   0.334   2.673   0.873 -0.5860 -0.4033 -0.0272
25920SOL    HW178338   0.299   2.732   0.806  0.9314 -0.2168 -0.7120
25920SOL    HW278339   0.314   2.716   0.956 -2.4836 -0.6343 -0.3328
25921SOL     OW78340   9.411   6.375   0.698  0.7072  0.7575  0.1675
25921SOL    HW178341   9.395   6.466   0.722  1.0327  0.8040  0.2193
25921SOL    HW278342   9.506   6.366   0.703  0.6308  0.2290  0.8409
25922SOL     OW78343   7.974   4.930   3.042  0.3179  0.4014  0.3335
25922SOL    HW178344   7.992   5.005   2.985 -0.8660 -0.0483 -0.7175
25922SOL    HW278345   7.892   4.953   3.085 -0.2546 -0.4121 -0.2836
25923SOL     OW78346   4.093   8.042   4.435 -0.1568 -0.9027 -0.3405
25923SOL    HW178347   4.050   8.117   4.477  0.4192  0.3653 -1.8991
25923SOL    HW278348   4.024   7.998   4.386 -0.4937 -1.4043  0.5663
25924SOL     OW78349   4.796   2.900   9.099 -0.2845 -0.0673 -0.0880
25924SOL    HW178350   4.853   2.826   9.077 -0.1766 -0.0694  0.1922
25924SOL    HW278351   4.801   2.958   9.023  0.6336  0.2665  0.2116
25925SOL     OW78352   1.906   6.052   7.716  0.1834  0.3901  0.4100
25925SOL    HW178353   1.851   5.977   7.690  0.4902  0.1690  0.4008
25925SOL    HW278354   1.867   6.082   7.799  0.6440 -0.3835  0.9154
25926SOL     OW78355   2.626   5.952   4.039  0.1914  0.2137  0.0439
25926SOL    HW178356   2.549   6.008   4.045  0.6535  0.9012 -0.3717
25926SOL    HW278357   2.592   5.866   4.013 -0.7141 -0.1610  2.1973
25927SOL     OW78358   3.033   1.642   0.948  0.1014 -0.4118 -0.1798
25927SOL    HW178359   2.958   1.688   0.910  0.3273  0.6203  0.5655
25927SOL    HW278360   2.999   1.556   0.972 -0.9286  0.1423  0.4132
25928SOL     OW78361   1.434   3.034   6.451 -0.1832 -0.2526 -0.2831
25928SOL    HW178362   1.355   3.079   6.422  0.2416  0.2729 -0.6301
25928SOL    HW278363   1.425   3.030   6.547 -1.6172 -2.0624 -0.4375
25929SOL     OW78364   2.978   6.713   0.947 -0.3210  0.0064 -0.3791
25929SOL    HW178365   2.997   6.636   0.894 -0.9834  0.5533 -1.4369
25929SOL    HW278366   2.900   6.689   0.997  0.1420 -0.4094  0.1577
25930SOL     OW78367   5.577   9.795   6.038 -0.1014  0.7517 -0.1404
25930SOL    HW178368   5.594   9.717   6.090  0.7110  1.4136  0.5977
25930SOL    HW278369   5.514   9.845   6.089 -1.9300 -0.1585 -1.3742
25931SOL     OW78370   5.699   1.434   4.022  0.3587  0.1512 -0.2027
25931SOL    HW178371   5.697   1.444   4.117  0.6220  0.3080 -0.2119
25931SOL    HW278372   5.727   1.519   3.989 -0.3872  0.3001 -0.4656
25932SOL     OW78373   5.668   0.956   3.883 -0.3333 -0.8984 -0.1795
25932SOL    HW178374   5.674   0.878   3.938 -0.7775 -2.4268 -2.1779
25932SOL    HW278375   5.739   0.947   3.820  0.1691  0.8171  0.0709
25933SOL     OW78376   8.891   6.629   7.092  0.1821  0.0800  0.9582
25933SOL    HW178377   8.919   6.538   7.080  4.6701  0.9152  2.8463
25933SOL    HW278378   8.891   6.642   7.187 -1.4140  1.8425  0.7886
25934SOL     OW78379   9.591   0.600   8.089 -0.7582 -0.5072  0.4399
25934SOL    HW178380   9.640   0.586   8.170 -0.2115  2.4751  0.7348
25934SOL    HW278381   9.499   0.605   8.118 -0.6191  0.0118  0.7973
25935SOL     OW78382   7.282   6.450   5.388  0.3661 -0.2341  0.4020
25935SOL    HW178383   7.345   6.517   5.363 -0.5215 -0.0958 -1.6411
25935SOL    HW278384   7.326   6.367   5.370  0.3921 -0.1540  0.0984
25936SOL     OW78385   1.777   1.028   8.320  0.1010  0.8683  1.1314
25936SOL    HW178386   1.854   0.990   8.362 -0.5334  0.8891  2.3587
25936SOL    HW278387   1.811   1.102   8.271  0.9678  0.4114  1.0177
25937SOL     OW78388   4.694   6.322   1.922 -0.6983  0.0209  0.2529
25937SOL    HW178389   4.617   6.332   1.978 -0.5766  1.4308  0.2202
25937SOL    HW278390   4.745   6.402   1.938  0.5230 -0.6568 -0.0898
25938SOL     OW78391   6.369   6.180   0.189 -0.3554 -0.6232 -0.0827
25938SOL    HW178392   6.286   6.207   0.149 -0.3518  1.5313  1.2284
25938SOL    HW278393   6.344   6.139   0.272 -0.1090  0.6479  0.6376
25939SOL     OW78394   5.792   7.705   6.134  0.1598 -0.1757 -0.5562
25939SOL    HW178395   5.744   7.718   6.217 -1.1027  0.9632 -1.4169
25939SOL    HW278396   5.726   7.718   6.066  1.4441  0.1880 -1.7822
25940SOL     OW78397   9.779   7.151   2.978  0.6017  0.2469  0.3065
25940SOL    HW178398   9.707   7.126   3.036  0.1067  1.1567  0.0956
25940SOL    HW278399   9.736   7.180   2.898  1.3128 -2.8518 -1.3392
25941SOL     OW78400   4.815   2.574   6.106 -0.1744  0.6320  0.1480
25941SOL    HW178401   4.889   2.624   6.072  0.2531 -0.8135 -1.1123
25941SOL    HW278402   4.781   2.526   6.031  0.1142 -1.8102  1.4864
25942SOL     OW78403   1.714   6.518   8.576 -0.3289 -0.0496  0.1451
25942SOL    HW178404   1.644   6.463   8.541 -0.4459  0.7043 -0.8614
25942SOL    HW278405   1.683   6.608   8.563  0.4156  0.2783  0.5649
25943SOL     OW78406   3.175   3.572   8.725  0.4405 -0.3123 -0.1916
25943SOL    HW178407   3.270   3.573   8.737  0.3445  1.7477  0.8214
25943SOL    HW278408   3.163   3.560   8.630  1.7178 -0.1120 -0.3981
25944SOL     OW78409   8.613   4.361   7.860  0.1103 -0.3931 -0.1935
25944SOL    HW178410   8.654   4.285   7.821  0.5455  0.3250 -1.1715
25944SOL    HW278411   8.531   4.371   7.812 -0.8103 -1.2754  1.1318
25945SOL     OW78412   9.050   0.385   4.750  0.3087  0.1765 -0.3217
25945SOL    HW178413   9.078   0.297   4.775 -1.0098 -0.2719 -0.3340
25945SOL    HW278414   9.084   0.441   4.819 -0.4197 -0.6025  0.7026
25946SOL     OW78415   1.747   4.887   5.922  0.6986  0.5310 -0.2860
25946SOL    HW178416   1.727   4.968   5.875  0.2861 -0.0138 -1.0646
25946SOL    HW278417   1.801   4.837   5.861  0.1601 -0.1813 -0.1926
25947SOL     OW78418   3.440   0.405   2.564  0.0151 -0.2304  0.0964
25947SOL    HW178419   3.472   0.493   2.582  1.2521 -0.7288  0.4486
25947SOL    HW278420   3.401   0.411   2.477 -0.0102  0.6818  0.1632
25948SOL     OW78421   8.132   9.403   5.520  0.5924 -0.4825 -0.2560
25948SOL    HW178422   8.190   9.469   5.482  0.7620 -0.4131  0.1204
25948SOL    HW278423   8.189   9.348   5.574  0.1961  0.0391  0.7166
25949SOL     OW78424   9.204   2.863   9.194 -0.6134  0.3161 -0.2485
25949SOL    HW178425   9.269   2.933   9.199 -1.1834  0.9471 -1.3453
25949SOL    HW278426   9.213   2.816   9.277 -0.0559  1.5449  0.4071
25950SOL     OW78427   4.434   3.408   2.464 -0.1753  0.5792  0.1485
25950SOL    HW178428   4.390   3.406   2.379 -0.2290  1.2048  0.1617
25950SOL    HW278429   4.484   3.489   2.464 -0.2523  0.6319  0.7524
25951SOL     OW78430   3.026   3.736   6.372 -0.0721 -0.0904  0.4448
25951SOL    HW178431   2.978   3.758   6.292  1.0409  0.8268 -0.0010
25951SOL    HW278432   2.971   3.670   6.415  0.1260 -1.9602 -1.9177
25952SOL     OW78433   5.369   3.905   9.449  0.0243 -0.7185 -0.3774
25952SOL    HW178434   5.289   3.858   9.423 -0.8001  0.5191 -0.2030
25952SOL    HW278435   5.435   3.877   9.387 -0.1968 -2.7310  0.2311
25953SOL     OW78436   1.443   4.102   6.918  0.4248  0.3399  0.0116
25953SOL    HW178437   1.518   4.159   6.902 -0.6226  1.7798  0.0511
25953SOL    HW278438   1.457   4.069   7.007  1.6927 -0.5463 -0.4769
25954SOL     OW78439   9.147   6.726   3.496 -0.7811  0.0903 -0.0302
25954SOL    HW178440   9.201   6.649   3.479 -0.4414  0.2616  0.2486
25954SOL    HW278441   9.099   6.704   3.576 -1.8148 -0.4206 -0.7647
25955SOL     OW78442   5.497   4.883   3.652  0.9127  0.0286  0.1986
25955SOL    HW178443   5.441   4.895   3.729  1.2626  1.9794  0.2057
25955SOL    HW278444   5.460   4.807   3.607 -0.3390 -0.1181  1.4039
25956SOL     OW78445   7.916   3.147   7.589 -0.4556 -0.6610  0.1494
25956SOL    HW178446   7.975   3.072   7.603 -1.0135 -1.0454  0.4954
25956SOL    HW278447   7.829   3.112   7.608 -1.0316 -0.5750 -2.0593
25957SOL     OW78448   1.924   0.106   2.431  0.3660 -0.0919  0.1254
25957SOL    HW178449   1.884   0.154   2.358  0.1437 -3.2476 -2.0439
25957SOL    HW278450   2.015   0.092   2.404  1.0169  0.8438  1.7004
25958SOL     OW78451   7.466   7.942   9.800 -0.1087  0.2166 -0.2655
25958SOL    HW178452   7.529   7.879   9.835 -1.5050 -0.7741  0.5669
25958SOL    HW278453   7.410   7.963   9.874 -0.5793  1.3285 -0.9141
25959SOL     OW78454   3.595   5.798   7.291  0.5611  0.1359 -0.1308
25959SOL    HW178455   3.683   5.762   7.292 -0.0158 -1.5038  2.5648
25959SOL    HW278456   3.539   5.722   7.272 -0.4016  0.5797  0.8192
25960SOL     OW78457   2.394   4.585   6.502  0.6504 -0.1542  0.4100
25960SOL    HW178458   2.439   4.583   6.418  1.8291  1.6412  0.9381
25960SOL    HW278459   2.362   4.675   6.510 -0.7129 -0.6760  1.2563
25961SOL     OW78460   9.342   4.979   5.319  0.1229 -0.1054  0.5345
25961SOL    HW178461   9.284   5.048   5.288 -3.2113 -2.8827 -0.0992
25961SOL    HW278462   9.381   4.943   5.239  0.4183 -0.1037  0.6761
25962SOL     OW78463   7.627   4.475   9.550 -0.5359  0.0267 -0.2903
25962SOL    HW178464   7.607   4.385   9.576 -0.4150 -0.0716 -0.5318
25962SOL    HW278465   7.705   4.498   9.600 -1.0337  0.2855  0.3835
25963SOL     OW78466   8.587   1.665   3.590 -0.1625 -0.3382 -0.0694
25963SOL    HW178467   8.661   1.723   3.611  0.1597 -1.1927  1.2257
25963SOL    HW278468   8.586   1.600   3.660 -1.7965 -0.6972 -0.3802
25964SOL     OW78469   7.667   7.233   1.044  0.1722  0.1588  0.2093
25964SOL    HW178470   7.672   7.222   1.139  0.0035  0.5128  0.2636
25964SOL    HW278471   7.757   7.247   1.016  0.0542  1.9336  0.5695
25965SOL     OW78472   5.129   6.882   0.068  0.4207 -0.0756  0.4291
25965SOL    HW178473   5.163   6.942   0.002 -3.1821  0.8672 -0.8030
25965SOL    HW278474   5.141   6.928   0.151  1.2142  0.5893 -0.0460
25966SOL     OW78475   9.160   3.698   0.029  0.2821 -0.5350 -0.0423
25966SOL    HW178476   9.071   3.718   0.060  0.9152  0.7894  1.0252
25966SOL    HW278477   9.196   3.641   0.096  1.1434  1.1335  0.9739
25967SOL     OW78478   3.080   7.080   6.592  0.6583 -0.8711 -0.1659
25967SOL    HW178479   3.105   7.078   6.684  3.1287  1.1543 -0.6808
25967SOL    HW278480   2.994   7.120   6.591  1.2484  0.5150  1.2058
25968SOL     OW78481   5.349   4.565   2.384  0.2516 -0.6294 -0.0048
25968SOL    HW178482   5.334   4.473   2.404  1.6698 -1.1704 -1.2506
25968SOL    HW278483   5.431   4.587   2.429 -2.1535  1.3654  4.0140
25969SOL     OW78484   4.992   9.107   2.400  0.3680  0.3375  0.8558
25969SOL    HW178485   5.059   9.051   2.440 -0.3928 -0.6337  0.8082
25969SOL    HW278486   4.971   9.063   2.317 -0.4959  0.5048  0.9825
25970SOL     OW78487   6.203   9.341   1.183  0.6387 -0.5120  0.6898
25970SOL    HW178488   6.250   9.312   1.106 -0.3580 -1.2261  0.3266
25970SOL    HW278489   6.127   9.282   1.189  0.1765  0.1422  1.6533
25971SOL     OW78490   2.724   9.971   8.119  0.6335 -0.2730  0.6588
25971SOL    HW178491   2.680   9.909   8.178 -0.0299 -0.5256 -0.0921
25971SOL    HW278492   2.778  10.025   8.177  0.4363 -0.8939  1.4335
25972SOL     OW78493   6.182   6.354   4.718  0.8298 -0.2173 -0.3347
25972SOL    HW178494   6.112   6.321   4.661  0.0222  0.3416  0.3016
25972SOL    HW278495   6.212   6.434   4.675 -1.8116  1.8828  1.3902
25973SOL     OW78496   8.847   1.682   3.007 -0.0308  0.5970  0.3961
25973SOL    HW178497   8.848   1.778   3.012  2.3148  0.7675 -1.4151
25973SOL    HW278498   8.817   1.663   2.918  1.7693 -0.1938 -0.0827
25974SOL     OW78499   3.932   6.322   9.874 -0.1978  0.5801 -0.1388
25974SOL    HW178500   3.864   6.328   9.806 -0.8215  0.9777  0.5004
25974SOL    HW278501   4.013   6.309   9.825 -0.8340 -0.8702 -0.8924
25975SOL     OW78502   1.502   9.217   7.444  0.6918  0.0656 -0.0489
25975SOL    HW178503   1.549   9.172   7.515  1.7728  0.8730 -0.2165
25975SOL    HW278504   1.563   9.215   7.370  0.8395  1.9032 -0.0133
25976SOL     OW78505   6.746   4.931   7.708 -0.5377  0.5872 -0.0729
25976SOL    HW178506   6.767   4.996   7.641  1.7013  0.0894  0.0804
25976SOL    HW278507   6.807   4.949   7.780  1.0561 -2.3655 -0.5190
25977SOL     OW78508   8.020   7.184   3.158 -0.2297  0.0874 -0.3091
25977SOL    HW178509   8.101   7.155   3.115 -1.6553 -1.4684 -2.1406
25977SOL    HW278510   7.966   7.106   3.162 -2.1683  1.3522 -0.4074
25978SOL     OW78511   1.635   8.162   0.774  0.4790 -0.7718 -0.9197
25978SOL    HW178512   1.579   8.239   0.784  0.9228 -0.7281  1.8604
25978SOL    HW278513   1.709   8.193   0.722 -0.0077  0.2932 -1.0027
25979SOL     OW78514   6.273   0.370   1.967 -0.5197 -0.0111 -0.2435
25979SOL    HW178515   6.182   0.391   1.949 -0.7073  0.1368  0.7937
25979SOL    HW278516   6.320   0.453   1.961 -0.5692  0.0252 -0.1269
25980SOL     OW78517   2.768   3.932   3.283 -0.3027  0.0969 -0.1034
25980SOL    HW178518   2.744   3.981   3.362 -0.7381 -1.4395  0.7664
25980SOL    HW278519   2.713   3.854   3.286 -0.2035 -0.0744 -1.8611
25981SOL     OW78520   3.052   1.303   3.506 -0.0352 -0.2237 -0.1399
25981SOL    HW178521   2.964   1.340   3.515 -0.0655 -0.5614  1.1752
25981SOL    HW278522   3.100   1.339   3.580  1.9771  2.6791 -2.6142
25982SOL     OW78523   3.958   2.063   0.632  0.1300  1.0151 -0.1000
25982SOL    HW178524   3.865   2.064   0.655 -0.1437  0.8792 -1.1570
25982SOL    HW278525   3.972   2.148   0.589  0.3027  0.7192 -0.6346
25983SOL     OW78526   0.136   9.528   9.866 -0.4316  0.0689 -0.1132
25983SOL    HW178527   0.049   9.547   9.833 -0.0467  1.5101 -0.4014
25983SOL    HW278528   0.131   9.548   9.960 -0.3003  0.5992 -0.2165
25984SOL     OW78529   2.709   2.465   9.274  0.2022  0.6391 -0.4416
25984SOL    HW178530   2.620   2.489   9.248 -0.4402 -1.8444 -0.8128
25984SOL    HW278531   2.747   2.425   9.196 -1.0753 -5.1417  1.4449
25985SOL     OW78532   1.962   8.399   3.808  0.2408 -0.1698 -0.4693
25985SOL    HW178533   2.036   8.360   3.855 -0.2841 -0.6973 -0.0662
25985SOL    HW278534   1.942   8.478   3.857  1.8164  1.0961 -1.7392
25986SOL     OW78535   3.931   5.228   2.767 -0.3141  0.3916 -0.1911
25986SOL    HW178536   3.877   5.150   2.774 -0.6369  0.7748  2.3805
25986SOL    HW278537   3.965   5.226   2.677 -3.3924 -0.6093 -1.4526
25987SOL     OW78538   2.868   1.773   9.097 -0.0426 -0.4161  0.3016
25987SOL    HW178539   2.933   1.811   9.157  1.6405  0.7753 -2.1325
25987SOL    HW278540   2.902   1.791   9.010 -2.5793 -1.7579 -1.0755
25988SOL     OW78541   4.883   0.457   8.668 -0.0137 -0.5217  0.2974
25988SOL    HW178542   4.815   0.455   8.735 -0.1471  1.2835  0.2581
25988SOL    HW278543   4.836   0.443   8.586  0.0970 -2.3227  0.5030
25989SOL     OW78544   7.080   2.742   1.529  0.1202 -0.1080 -0.0349
25989SOL    HW178545   7.175   2.746   1.538  0.0394 -1.7440  2.4235
25989SOL    HW278546   7.057   2.653   1.553 -2.1775  0.7326  1.1825
25990SOL     OW78547   2.837   9.893   1.851 -0.0396 -0.0001  0.4556
25990SOL    HW178548   2.817   9.947   1.775  1.7497  0.3669  0.1907
25990SOL    HW278549   2.754   9.851   1.873 -0.5932 -0.2331 -1.7807
25991SOL     OW78550   0.274   1.462   9.044  0.1108 -0.0862  0.1124
25991SOL    HW178551   0.291   1.516   8.967 -0.5234  0.6277  0.4628
25991SOL    HW278552   0.264   1.525   9.115 -1.0210 -0.6450  0.4532
25992SOL     OW78553   1.960   4.312   9.369 -0.0748 -0.0009 -0.0669
25992SOL    HW178554   1.975   4.243   9.434 -0.0320  0.0697 -0.0015
25992SOL    HW278555   1.982   4.393   9.414 -2.4019  0.3105  0.6515
25993SOL     OW78556   4.664   8.465   8.906 -0.0393  0.1984 -0.0450
25993SOL    HW178557   4.612   8.480   8.985 -0.5052 -2.0805  0.1678
25993SOL    HW278558   4.710   8.547   8.891 -2.9478  2.0207  0.3068
25994SOL     OW78559   3.586   4.512   8.894 -0.2291  0.0760  0.6939
25994SOL    HW178560   3.583   4.437   8.953 -0.9692  1.0422  1.9629
25994SOL    HW278561   3.662   4.497   8.839 -0.3174 -1.5525  0.9616
25995SOL     OW78562   7.391   9.182   2.286  0.0340  0.3152 -0.2747
25995SOL    HW178563   7.479   9.219   2.281  1.2008 -2.3953 -1.9638
25995SOL    HW278564   7.342   9.243   2.342  2.7943  2.2029  0.2574
25996SOL     OW78565   8.167   2.046   2.562 -0.1685  0.2042 -0.1848
25996SOL    HW178566   8.116   2.074   2.486 -1.5256  0.5820  0.8323
25996SOL    HW278567   8.115   1.975   2.601  0.7704 -0.3434  0.1136
25997SOL     OW78568   8.480   3.753   5.154 -0.7555 -0.0983 -0.0206
25997SOL    HW178569   8.470   3.684   5.089 -0.9326  0.9660 -1.1465
25997SOL    HW278570   8.472   3.707   5.238 -2.2964 -1.2523 -0.7414
25998SOL     OW78571   3.352   4.131   8.814 -0.5813  0.1505 -0.1552
25998SOL    HW178572   3.419   4.088   8.867 -0.7587  0.4788  0.3385
25998SOL    HW278573   3.269   4.105   8.854 -0.8070 -0.8552 -1.2030
25999SOL     OW78574   5.203   3.785   0.275 -0.7323 -0.4423 -0.2657
25999SOL    HW178575   5.248   3.769   0.358 -2.1506 -0.5042  0.5096
25999SOL    HW278576   5.250   3.859   0.236 -0.7465  0.3194  1.1274
26000SOL     OW78577   9.420   2.257   8.663 -0.1753  0.0041 -0.0526
26000SOL    HW178578   9.332   2.266   8.626 -0.8907  1.0024  1.7761
26000SOL    HW278579   9.466   2.335   8.633  0.0427 -0.4160 -0.8401
26001SOL     OW78580   1.803   9.959   4.180 -0.1229  0.2588  0.2905
26001SOL    HW178581   1.874  10.022   4.186 -1.0397  1.4106 -0.5688
26001SOL    HW278582   1.820   9.912   4.098 -0.2393  0.3964  0.1873
26002SOL     OW78583   4.775   2.034   9.048 -0.1371  0.0258 -0.2477
26002SOL    HW178584   4.775   2.128   9.068  1.4630  0.0352 -0.2363
26002SOL    HW278585   4.750   1.993   9.131  3.0098  0.2656  0.9481
26003SOL     OW78586   6.662   3.154   9.565 -0.1117  0.4539  0.2246
26003SOL    HW178587   6.743   3.142   9.614  0.9951 -1.4341 -1.8751
26003SOL    HW278588   6.667   3.243   9.532  0.9475  0.4726  0.4070
26004SOL     OW78589   2.964   5.883   2.864  0.1681  0.3643 -0.0810
26004SOL    HW178590   3.023   5.904   2.937 -0.3825  1.1253  0.1507
26004SOL    HW278591   2.893   5.833   2.904  1.6339 -2.4559 -0.6709
26005SOL     OW78592   8.157   2.181   1.947  0.3219  0.3990 -0.4205
26005SOL    HW178593   8.132   2.256   2.002  0.4965  1.4033 -1.6678
26005SOL    HW278594   8.091   2.114   1.967 -0.6607  1.3680 -0.2780
26006SOL     OW78595   4.453   5.356   7.247  0.2514  0.2036  0.2158
26006SOL    HW178596   4.525   5.303   7.214 -1.1812 -1.3502 -0.5888
26006SOL    HW278597   4.380   5.337   7.187 -0.9294  1.4585  1.1800
26007SOL     OW78598   3.929   1.583   7.459 -0.0295  0.2329 -0.0901
26007SOL    HW178599   4.015   1.567   7.498  1.0759  3.0852 -1.1188
26007SOL    HW278600   3.937   1.669   7.418 -2.3053 -0.8990 -3.2533
26008SOL     OW78601   3.578   1.289   9.372  0.1416  0.1535 -0.2875
26008SOL    HW178602   3.527   1.367   9.347  0.6564  0.5810 -0.0233
26008SOL    HW278603   3.565   1.228   9.300 -1.0314  0.1193 -0.0598
26009SOL     OW78604   0.989   7.885   3.753  0.3959  0.0834 -0.0805
26009SOL    HW178605   1.034   7.900   3.670  0.0154 -1.1749 -0.5355
26009SOL    HW278606   1.034   7.809   3.791  0.2532  0.3527  0.6406
26010SOL     OW78607   4.945   6.405   9.259  0.2005 -0.6720  0.6446
26010SOL    HW178608   4.893   6.473   9.300 -2.2453 -1.8063 -0.3885
26010SOL    HW278609   5.017   6.452   9.216 -1.5414  1.3043 -0.2730
26011SOL     OW78610   9.007   5.107   1.298 -0.3606  0.2657  0.1456
26011SOL    HW178611   9.043   5.149   1.376  0.1682 -0.6465  0.4018
26011SOL    HW278612   8.957   5.033   1.331  0.3377 -0.4689 -0.3980
26012SOL     OW78613   5.453   9.261   6.773  0.4498 -0.1982  0.5175
26012SOL    HW178614   5.531   9.314   6.757  0.4535 -0.4583 -0.3742
26012SOL    HW278615   5.484   9.190   6.829  0.5727  0.4073  1.2268
26013SOL     OW78616   7.846   8.340   9.427  0.1626  0.1021  0.5052
26013SOL    HW178617   7.778   8.373   9.486 -1.1736 -0.7870 -0.4937
26013SOL    HW278618   7.918   8.315   9.486 -1.0124 -0.4994  1.7545
26014SOL     OW78619   3.189   0.672   5.234 -0.1705  0.5897 -0.3113
26014SOL    HW178620   3.196   0.668   5.138 -1.3495  0.1536 -0.3944
26014SOL    HW278621   3.262   0.728   5.261 -0.0080  0.9744 -1.4886
26015SOL     OW78622   3.690   8.042   6.120 -0.0143 -0.2439 -0.2896
26015SOL    HW178623   3.770   8.033   6.068 -0.2627  2.5741 -1.3606
26015SOL    HW278624   3.632   8.094   6.065 -1.3474  0.5799  1.7689
26016SOL     OW78625   4.434   3.385   7.404 -0.2542  0.5475  0.3070
26016SOL    HW178626   4.518   3.359   7.365  1.7903  2.0362  3.3282
26016SOL    HW278627   4.375   3.312   7.384  1.8990 -0.8355 -1.4636
26017SOL     OW78628   6.635   4.316   8.266  0.3917 -0.0346  0.2619
26017SOL    HW178629   6.652   4.230   8.229 -1.7231 -0.2013 -0.4428
26017SOL    HW278630   6.686   4.318   8.347  1.1375 -1.6077 -0.1348
26018SOL     OW78631   2.410   2.455   0.356 -0.8315 -0.0567  0.1805
26018SOL    HW178632   2.402   2.409   0.440  0.9185 -0.1281  0.3386
26018SOL    HW278633   2.433   2.545   0.379  1.9068 -0.5755 -0.1850
26019SOL     OW78634   4.829   4.817   7.184  0.2400  0.7101  0.5702
26019SOL    HW178635   4.871   4.852   7.263  0.3995 -1.2367  1.3989
26019SOL    HW278636   4.879   4.856   7.112  0.9447  1.4976  1.4444
26020SOL     OW78637   5.923   3.946   7.925  0.0097  0.0263 -0.8439
26020SOL    HW178638   5.949   4.038   7.913  0.5462 -0.0051 -0.0489
26020SOL    HW278639   5.855   3.931   7.860 -1.8251  1.7177  0.5333
26021SOL     OW78640   0.312   2.616   2.397  0.2664  0.4831 -0.3974
26021SOL    HW178641   0.392   2.643   2.442 -0.0374  0.0954  0.3832
26021SOL    HW278642   0.242   2.663   2.442 -0.0119  0.3398 -0.6785
26022SOL     OW78643   5.602   5.195   3.844 -0.0928 -0.4934  0.3363
26022SOL    HW178644   5.680   5.218   3.895  0.5850 -2.2191  0.1554
26022SOL    HW278645   5.545   5.150   3.906 -1.2284  1.1952  0.5944
26023SOL     OW78646   2.206   7.319   3.120 -0.2267  0.0533  0.0510
26023SOL    HW178647   2.176   7.398   3.166 -1.8303 -0.8741  0.7021
26023SOL    HW278648   2.230   7.350   3.033  1.1457  1.5621  0.9058
26024SOL     OW78649   9.907   0.401   6.092 -0.1347 -0.2175 -0.3858
26024SOL    HW178650   9.961   0.329   6.058 -0.4530 -1.5101  1.6801
26024SOL    HW278651   9.858   0.362   6.164 -0.8138  1.9310  0.3886
26025SOL     OW78652   3.912   9.660   9.062  0.4854  0.6612  0.1780
26025SOL    HW178653   3.844   9.672   9.128 -0.4751 -3.1299  0.1541
26025SOL    HW278654   3.868   9.679   8.979  0.5492  1.6878  0.3703
26026SOL     OW78655   5.321   8.168   4.593  0.1396 -0.1149 -0.0331
26026SOL    HW178656   5.248   8.216   4.552  0.2592 -0.0687 -0.1909
26026SOL    HW278657   5.349   8.226   4.664  1.3043  0.7918 -1.1793
26027SOL     OW78658   4.620   7.001   7.248  0.0893  0.6429  0.3762
26027SOL    HW178659   4.654   7.084   7.216  0.4560  0.6387  0.7533
26027SOL    HW278660   4.541   6.986   7.196  1.6677 -0.2953 -1.8652
26028SOL     OW78661   9.615   7.356   8.047  0.0197 -0.0583  0.1614
26028SOL    HW178662   9.669   7.372   7.970  2.1515  2.0109  1.9234
26028SOL    HW278663   9.646   7.271   8.080  0.4990 -0.0255 -0.1941
26029SOL     OW78664   5.023   4.846   3.916 -0.6665 -0.0125  0.5363
26029SOL    HW178665   5.090   4.807   3.971  1.5464  3.1522  0.3664
26029SOL    HW278666   5.056   4.839   3.827 -1.3078  0.2352  0.2655
26030SOL     OW78667   8.936   8.428   9.224  0.3735  0.0859  0.0607
26030SOL    HW178668   8.932   8.369   9.299 -0.2511 -1.8520 -1.4181
26030SOL    HW278669   9.004   8.491   9.247  1.1362 -1.2529  1.7008
26031SOL     OW78670   1.634   6.540   5.830  0.7810  0.8412 -0.1008
26031SOL    HW178671   1.689   6.606   5.873  1.5520 -0.3164  0.7531
26031SOL    HW278672   1.599   6.488   5.902 -1.6567  1.6403 -0.5889
26032SOL     OW78673   5.588   0.677   0.394 -0.0531  0.3917  0.7677
26032SOL    HW178674   5.677   0.683   0.428 -0.2113  0.8848  1.1102
26032SOL    HW278675   5.556   0.768   0.393 -0.0573  0.3979 -0.7161
26033SOL     OW78676   5.853   3.697   0.724  0.2890 -0.2984 -0.8299
26033SOL    HW178677   5.877   3.766   0.662  1.1167 -0.3164 -0.5345
26033SOL    HW278678   5.930   3.686   0.779 -1.3765  1.7911  2.1704
26034SOL     OW78679   6.221   5.921   5.990  0.2062  0.0500  0.4269
26034SOL    HW178680   6.135   5.941   6.027 -0.0199  1.0237 -0.5591
26034SOL    HW278681   6.254   5.848   6.042 -0.9510  0.0702  1.2140
26035SOL     OW78682   5.812   9.483   0.144 -0.0298  0.3606  0.2714
26035SOL    HW178683   5.813   9.493   0.049  3.0186 -1.2697 -0.0053
26035SOL    HW278684   5.815   9.389   0.158  0.7958  0.5931  1.9369
26036SOL     OW78685   7.847   0.083   6.839 -0.1421  0.2002 -0.1523
26036SOL    HW178686   7.779   0.094   6.905 -0.5059 -0.2750 -0.4410
26036SOL    HW278687   7.857   0.170   6.800 -2.6596 -0.2673 -2.1162
26037SOL     OW78688   1.612   9.150   3.364  0.2231  0.7632  0.3024
26037SOL    HW178689   1.521   9.130   3.384  0.5645 -0.2690  0.9265
26037SOL    HW278690   1.651   9.174   3.448  0.8459 -0.1803  0.3018
26038SOL     OW78691   9.646   4.916   3.833  0.1555  0.1803  0.1395
26038SOL    HW178692   9.643   4.824   3.861  1.0810  0.0415 -0.1796
26038SOL    HW278693   9.737   4.942   3.846  0.6084  0.1711 -2.4552
26039SOL     OW78694   2.807   9.872   5.904  0.4912  0.3339  0.5130
26039SOL    HW178695   2.894   9.909   5.888  0.0651  1.3227  0.4339
26039SOL    HW278696   2.797   9.874   5.999  1.2281 -1.3870  0.6605
26040SOL     OW78697   3.004   3.223   2.042 -0.1713  0.0678  0.7454
26040SOL    HW178698   2.924   3.252   2.088 -0.0664 -1.1508  1.7541
26040SOL    HW278699   3.058   3.185   2.111  1.2217  0.7049  0.0331
26041SOL     OW78700   9.762   3.589   1.004  0.1014  0.5851 -0.5213
26041SOL    HW178701   9.781   3.679   0.976 -0.3250  1.2651  1.2275
26041SOL    HW278702   9.716   3.599   1.087  2.2378 -1.2747  1.0315
26042SOL     OW78703   3.614   7.727   4.720  0.4527 -0.3801  0.0828
26042SOL    HW178704   3.546   7.675   4.678 -0.1764 -0.2838  0.9445
26042SOL    HW278705   3.577   7.815   4.724  0.4580 -0.4107  0.9151
26043SOL     OW78706   8.092   5.214   0.721 -0.8339  0.1118 -0.2854
26043SOL    HW178707   8.007   5.229   0.679 -0.6158  2.0263 -0.1182
26043SOL    HW278708   8.155   5.258   0.664 -0.3060  1.0607  0.9847
26044SOL     OW78709   1.896   2.636   1.807  0.5844 -0.0388 -0.2168
26044SOL    HW178710   1.908   2.568   1.873  0.9311 -0.2990 -0.5431
26044SOL    HW278711   1.981   2.643   1.764  0.3001 -0.0419 -0.7939
26045SOL     OW78712   1.324   5.546   0.583 -0.4444  0.9074  0.6455
26045SOL    HW178713   1.320   5.557   0.678 -0.5097 -1.8885  1.0469
26045SOL    HW278714   1.232   5.542   0.556 -0.4361  0.2720  0.6940
26046SOL     OW78715   5.975   5.282   9.601 -0.0648 -0.7615  0.4193
26046SOL    HW178716   5.902   5.336   9.632  0.4869 -0.5841  1.4161
26046SOL    HW278717   5.963   5.280   9.506 -0.0401  1.2188  0.3293
26047SOL     OW78718   2.034   4.427   1.037  0.0847  0.4081  0.0621
26047SOL    HW178719   2.113   4.468   1.002  0.8264 -1.7854 -1.0110
26047SOL    HW278720   1.962   4.467   0.988  0.6048  1.5478  0.1900
26048SOL     OW78721   5.226   3.578   7.361 -0.6124  0.3864 -0.1611
26048SOL    HW178722   5.310   3.552   7.323 -0.3555  0.8506  0.0840
26048SOL    HW278723   5.170   3.501   7.349 -0.3648  0.3184 -0.9610
26049SOL     OW78724   4.913   8.795   2.310 -0.6665 -0.2495 -0.0410
26049SOL    HW178725   4.998   8.772   2.349 -0.1976  1.0616 -0.2297
26049SOL    HW278726   4.910   8.744   2.228  0.1922  0.1055 -0.3041
26050SOL     OW78727   4.427   2.438   6.283 -0.1454 -0.2876 -0.6350
26050SOL    HW178728   4.420   2.465   6.191  2.0846 -2.0235 -1.3956
26050SOL    HW278729   4.518   2.453   6.306  0.4460 -3.8414 -0.1271
26051SOL     OW78730   1.213   9.746   8.947  0.9060 -0.5556  0.4213
26051SOL    HW178731   1.133   9.695   8.965  0.5631 -0.3327 -0.4516
26051SOL    HW278732   1.275   9.681   8.913  0.2700 -0.3201 -1.2748
26052SOL     OW78733   8.989   9.937   0.927  0.1707  0.3457  0.1970
26052SOL    HW178734   9.042   9.875   0.877  0.5161  1.0928 -0.3796
26052SOL    HW278735   9.009   9.918   1.019  0.9013  0.1571  0.0051
26053SOL     OW78736   4.406   9.203   1.181 -0.1217 -0.4995  0.1027
26053SOL    HW178737   4.443   9.192   1.093  1.8843 -0.8088  0.9167
26053SOL    HW278738   4.413   9.297   1.198 -0.3579 -0.4624 -0.0007
26054SOL     OW78739   5.192   9.117   8.737  0.0455  0.0492  0.3166
26054SOL    HW178740   5.127   9.092   8.671 -0.6257  2.6209 -0.1206
26054SOL    HW278741   5.191   9.213   8.735  3.8152  0.2291  0.3262
26055SOL     OW78742   1.245   5.605   7.258 -0.0387  0.0754 -0.7526
26055SOL    HW178743   1.154   5.628   7.240  0.1693  1.3130 -0.2622
26055SOL    HW278744   1.272   5.555   7.180 -1.3456 -0.9794 -0.5635
26056SOL     OW78745   9.105   5.204   4.233  0.3205 -0.1899 -0.5698
26056SOL    HW178746   9.190   5.245   4.217  0.8363 -1.2629 -0.7356
26056SOL    HW278747   9.097   5.138   4.163 -0.9214  0.2927 -0.9097
26057SOL     OW78748   4.996   6.994   2.550 -0.5221  0.2712  0.0805
26057SOL    HW178749   5.064   6.967   2.612 -0.6098 -0.3737 -0.0984
26057SOL    HW278750   4.995   7.090   2.556 -0.1391  0.2443  0.6554
26058SOL     OW78751   1.620   5.307   9.523 -0.0994  0.0347 -0.6843
26058SOL    HW178752   1.619   5.382   9.464 -0.9059  0.4125 -0.2094
26058SOL    HW278753   1.626   5.231   9.466  0.9206  0.4589 -1.1638
26059SOL     OW78754   1.850   4.944   1.249  0.0381  0.0365 -0.3076
26059SOL    HW178755   1.869   5.033   1.219 -0.2776  0.0670 -0.4208
26059SOL    HW278756   1.869   4.889   1.174  1.2287 -0.1105  0.0727
26060SOL     OW78757   7.461   0.825   4.034  0.4802  0.3761 -0.4315
26060SOL    HW178758   7.522   0.893   4.006  0.7278 -0.2652 -1.5157
26060SOL    HW278759   7.511   0.773   4.097  0.9046  0.1460 -0.9484
26061SOL     OW78760   3.144   2.689   6.084  0.5587  0.5914 -0.2483
26061SOL    HW178761   3.232   2.726   6.074  1.0664 -0.2792  0.8006
26061SOL    HW278762   3.148   2.605   6.040 -0.1403  1.0820 -1.2850
26062SOL     OW78763   0.485   1.076   6.476 -0.0753 -0.1270  0.1358
26062SOL    HW178764   0.425   1.004   6.459  1.3683 -2.1873  2.8029
26062SOL    HW278765   0.570   1.044   6.446  0.6291  0.3427  1.5413
26063SOL     OW78766   6.600   7.107   0.294  0.1875 -0.3008  0.4363
26063SOL    HW178767   6.633   7.153   0.371 -3.5285 -0.2684  2.2319
26063SOL    HW278768   6.613   7.014   0.313 -0.7119 -0.2907  1.1457
26064SOL     OW78769   0.457   4.225   7.270 -0.3357 -0.2530 -0.0235
26064SOL    HW178770   0.414   4.305   7.302  0.7890  0.8315 -1.0993
26064SOL    HW278771   0.470   4.241   7.176 -0.5606 -1.9425 -0.3689
26065SOL     OW78772   6.485   2.957   8.546 -0.4996  0.1578  0.2229
26065SOL    HW178773   6.425   2.929   8.477 -2.1032  0.9112  1.2255
26065SOL    HW278774   6.489   2.883   8.606 -1.6352  0.6116  0.8929
26066SOL     OW78775   6.659   5.672   3.027  0.5350 -0.0804  0.3340
26066SOL    HW178776   6.595   5.615   2.986  0.9281 -0.3815  0.1292
26066SOL    HW278777   6.698   5.619   3.096  0.8473 -0.0389  0.1933
26067SOL     OW78778   2.869   6.117   2.560 -0.3489 -0.3296 -0.7918
26067SOL    HW178779   2.849   6.024   2.571  0.1255 -0.4888 -1.2474
26067SOL    HW278780   2.959   6.119   2.529 -1.1219  0.1394 -3.2481
26068SOL     OW78781   3.776   1.149   7.333 -1.0966  0.4710 -0.0683
26068SOL    HW178782   3.830   1.082   7.376 -0.2317 -0.1494 -1.9876
26068SOL    HW278783   3.686   1.124   7.354 -0.8417 -1.8142 -1.3128
26069SOL     OW78784   9.555   8.231   8.827 -0.2181  0.2855  0.4380
26069SOL    HW178785   9.460   8.246   8.825 -0.1660  0.6442  0.5527
26069SOL    HW278786   9.593   8.311   8.791 -0.0202 -0.6198 -1.4709
26070SOL     OW78787   2.707   5.037   3.033  0.1473  0.1926  0.0524
26070SOL    HW178788   2.690   5.118   3.080 -1.5524 -0.2955  0.3392
26070SOL    HW278789   2.657   5.045   2.952  0.3645 -0.3674 -0.1442
26071SOL     OW78790   9.669   3.176   7.956 -0.2995  0.0485 -0.0025
26071SOL    HW178791   9.594   3.146   7.905 -1.1160  1.9179  0.0082
26071SOL    HW278792   9.672   3.118   8.032 -1.1521 -0.6456 -0.4853
26072SOL     OW78793   5.099   6.038   8.497 -0.5694  0.2972 -0.3414
26072SOL    HW178794   5.005   6.035   8.477 -0.7177  1.5325  0.1041
26072SOL    HW278795   5.105   6.093   8.575  0.7512  2.3222 -1.7951
26073SOL     OW78796   5.802   4.878   4.088  0.3311  0.1451 -0.0216
26073SOL    HW178797   5.878   4.826   4.062 -0.0025 -1.5681  2.1654
26073SOL    HW278798   5.828   4.920   4.170 -0.8098  0.1210  0.3703
26074SOL     OW78799   6.130   0.707   7.524  0.1749 -0.4157 -0.4297
26074SOL    HW178800   6.080   0.653   7.585  0.5462  0.4245  0.6402
26074SOL    HW278801   6.196   0.749   7.578 -0.7565  1.9503 -1.0215
26075SOL     OW78802   3.371   9.328   7.190  0.7063 -0.5611 -0.3607
26075SOL    HW178803   3.366   9.234   7.205 -1.0730 -0.5912 -0.9490
26075SOL    HW278804   3.393   9.365   7.275 -0.5814 -1.3719  0.3593
26076SOL     OW78805   1.593   6.289   4.734 -0.3388 -1.0714  0.2133
26076SOL    HW178806   1.524   6.294   4.668  0.6391 -0.1491 -0.7794
26076SOL    HW278807   1.657   6.354   4.707 -0.3517  0.0637  2.6532
26077SOL     OW78808   5.819   1.086   1.333  0.1194 -0.1107  0.3241
26077SOL    HW178809   5.728   1.064   1.313  0.4637 -0.3026 -1.2205
26077SOL    HW278810   5.865   1.003   1.327  0.4520  0.0472  0.7058
26078SOL     OW78811   8.464   9.633   2.677 -0.0039 -0.0143  0.3121
26078SOL    HW178812   8.495   9.555   2.724 -0.5037  1.6669  3.7314
26078SOL    HW278813   8.431   9.599   2.594  3.8366 -2.8578 -0.3617
26079SOL     OW78814   7.554   6.787   4.961 -0.4254 -0.2693  0.1849
26079SOL    HW178815   7.626   6.770   5.021  0.2169 -0.1259 -0.5249
26079SOL    HW278816   7.510   6.703   4.952  0.5414 -0.7157 -0.4971
26080SOL     OW78817   2.716   3.871   2.639  0.0761 -0.3623 -0.1331
26080SOL    HW178818   2.794   3.873   2.584 -0.1282  1.1764 -0.4195
26080SOL    HW278819   2.683   3.961   2.636 -0.7346 -0.5841  1.3643
26081SOL     OW78820   2.918   0.045   5.176 -0.2890  0.1424  0.4584
26081SOL    HW178821   2.837   0.047   5.124  0.4131  1.9128 -0.6580
26081SOL    HW278822   2.889   0.063   5.265 -1.1421  0.8749  0.0515
26082SOL     OW78823   8.303   0.179   7.295 -0.0981 -0.4786 -0.9229
26082SOL    HW178824   8.276   0.133   7.375  1.1957  0.6615  0.2088
26082SOL    HW278825   8.227   0.232   7.272 -0.3006 -0.4146 -0.1494
26083SOL     OW78826   1.597   7.285   3.968 -0.3176  0.6704  0.8176
26083SOL    HW178827   1.650   7.364   3.951 -1.3244  1.0196 -0.9159
26083SOL    HW278828   1.659   7.224   4.007  1.4558  1.0351 -1.1992
26084SOL     OW78829   8.763   3.208   5.227  0.5481  0.0916  0.0214
26084SOL    HW178830   8.794   3.119   5.214  0.7945  0.4320 -2.0499
26084SOL    HW278831   8.728   3.234   5.141  1.4727  2.3576  0.2682
26085SOL     OW78832   5.311   9.243   5.579  0.7525  0.3480 -0.0763
26085SOL    HW178833   5.396   9.274   5.610  0.9214 -0.1176 -0.0775
26085SOL    HW278834   5.250   9.265   5.650  1.0973 -0.5149  0.5058
26086SOL     OW78835   3.485   1.688   6.840  0.1940 -0.4137 -0.4812
26086SOL    HW178836   3.436   1.758   6.797  0.5523  0.9057  1.1773
26086SOL    HW278837   3.499   1.623   6.771 -0.0700  1.1705 -2.0987
26087SOL     OW78838   0.320   0.155   6.463  0.3426 -0.1377  0.2159
26087SOL    HW178839   0.296   0.104   6.541 -0.6302 -1.5983 -0.9746
26087SOL    HW278840   0.307   0.246   6.489 -1.0367 -0.6395  1.4289
26088SOL     OW78841   4.507   8.695   8.509 -0.5392 -0.0706  0.2842
26088SOL    HW178842   4.534   8.615   8.554 -0.1370 -1.5762 -2.4488
26088SOL    HW278843   4.572   8.760   8.537 -0.3070 -0.9169  1.8350
26089SOL     OW78844   6.696   1.343   3.868  0.2784  0.3796  0.9138
26089SOL    HW178845   6.680   1.262   3.916  0.4455 -0.3291 -0.1750
26089SOL    HW278846   6.622   1.400   3.890 -1.3916 -1.1412 -0.4933
26090SOL     OW78847   1.591   5.874   5.362  0.4309  1.0143  0.0401
26090SOL    HW178848   1.595   5.779   5.367 -0.0430  0.9550 -0.5616
26090SOL    HW278849   1.553   5.901   5.445  0.2828  0.6538  0.0912
26091SOL     OW78850   0.552   4.033   9.014 -0.1905  0.1201  0.0029
26091SOL    HW178851   0.635   4.081   9.019 -0.2144  0.0996  0.7314
26091SOL    HW278852   0.547   4.003   8.924  0.3912  0.4893 -0.1582
26092SOL     OW78853   3.180   8.565   7.546 -0.3480  0.6582 -0.3405
26092SOL    HW178854   3.124   8.501   7.590 -0.5391  1.6162  0.8785
26092SOL    HW278855   3.250   8.584   7.609 -0.4713  1.8665 -0.5332
26093SOL     OW78856   5.102   0.524   7.250  0.0823  0.3224  0.1926
26093SOL    HW178857   5.164   0.467   7.295  1.1560  1.1945 -0.1372
26093SOL    HW278858   5.156   0.595   7.215 -0.9533  0.5567 -1.0063
26094SOL     OW78859   7.112   8.346   4.823  0.1330 -0.0299 -0.4483
26094SOL    HW178860   7.018   8.346   4.807  0.0821  1.4982 -0.2624
26094SOL    HW278861   7.150   8.376   4.741  0.1800  2.9776  0.5564
26095SOL     OW78862   2.113   7.419   7.337 -0.5305  0.1013 -0.4151
26095SOL    HW178863   2.022   7.392   7.343 -0.6062  0.4012 -0.2109
26095SOL    HW278864   2.131   7.421   7.243 -0.2754 -1.4699 -0.4380
26096SOL     OW78865   8.576   7.480   1.944  0.6086  0.3101  0.0299
26096SOL    HW178866   8.520   7.403   1.937  1.3368 -0.1820 -0.5586
26096SOL    HW278867   8.534   7.535   2.010 -0.5274 -0.0671 -0.3724
26097SOL     OW78868   2.463   9.880   9.686 -0.2830 -0.2882 -0.1142
26097SOL    HW178869   2.517   9.819   9.636 -1.0763  0.7389 -2.3209
26097SOL    HW278870   2.379   9.882   9.640 -1.6405 -0.4685  2.1811
26098SOL     OW78871   3.456   0.492   8.109 -0.0936  0.5033 -0.6930
26098SOL    HW178872   3.439   0.579   8.074 -0.4502  0.7232  0.0124
26098SOL    HW278873   3.548   0.475   8.088  0.2662  1.4613  0.0577
26099SOL     OW78874   9.983   4.175   5.608 -0.2153 -0.5625  0.2321
26099SOL    HW178875   9.977   4.249   5.668 -1.7604 -0.1004 -0.4267
26099SOL    HW278876   9.941   4.206   5.528 -2.5616 -2.6733  0.4988
26100SOL     OW78877   5.423   1.519   4.015  0.0498 -0.2275  0.7778
26100SOL    HW178878   5.397   1.447   4.072 -0.6982 -1.3332 -0.9092
26100SOL    HW278879   5.506   1.491   3.977  0.5392  0.5048  1.2566
26101SOL     OW78880   1.937   5.777   7.598  0.1229  0.1262  0.0092
26101SOL    HW178881   1.987   5.835   7.540  1.3616 -0.4243  0.4914
26101SOL    HW278882   2.003   5.739   7.656 -0.7917 -1.0612  0.3002
26102SOL     OW78883   0.462   7.513   5.712 -0.6614 -0.0656 -0.3345
26102SOL    HW178884   0.454   7.453   5.786  0.7293  0.5331  0.3343
26102SOL    HW278885   0.506   7.590   5.747 -0.5002  0.4756 -1.6502
26103SOL     OW78886   7.838   5.756   0.523 -0.2063 -0.0669  0.2309
26103SOL    HW178887   7.889   5.677   0.543  1.5326  0.8455 -0.3442
26103SOL    HW278888   7.838   5.761   0.427 -0.2029  0.6889  0.2634
26104SOL     OW78889   7.428   4.402   8.280  0.2431 -0.4946  0.3738
26104SOL    HW178890   7.357   4.466   8.284  0.4049 -0.0586 -2.1527
26104SOL    HW278891   7.450   4.384   8.372 -1.0723  1.6435  1.1660
26105SOL     OW78892   6.610   8.236   6.003 -0.4601  0.1289  0.1514
26105SOL    HW178893   6.535   8.219   6.061 -1.1617 -0.6909 -0.9431
26105SOL    HW278894   6.666   8.160   6.015  0.9945  1.4260  2.0865
26106SOL     OW78895   6.139   3.909   1.509  0.1482  0.2836  0.1578
26106SOL    HW178896   6.190   3.829   1.500  0.2645  0.2602  0.9153
26106SOL    HW278897   6.109   3.908   1.600 -2.0241 -0.1903 -0.5102
26107SOL     OW78898   8.395   0.351   3.498 -0.3857 -0.4520 -0.3392
26107SOL    HW178899   8.442   0.402   3.564  0.1653 -0.8253 -0.4408
26107SOL    HW278900   8.303   0.375   3.511 -0.1679  0.3197 -0.1720
26108SOL     OW78901   0.313   3.867   2.268  0.0875  0.5811 -0.0454
26108SOL    HW178902   0.315   3.957   2.299 -0.2324 -0.0121  1.7773
26108SOL    HW278903   0.222   3.840   2.277  0.2833 -0.1001 -0.0616
26109SOL     OW78904   6.763   3.834   2.439 -0.0607 -0.2851  0.8725
26109SOL    HW178905   6.668   3.834   2.430 -0.5433 -0.0507  4.4658
26109SOL    HW278906   6.781   3.899   2.507  2.7650  0.1367 -0.1402
26110SOL     OW78907   3.544   4.842   0.156  0.5351  0.2810 -0.1523
26110SOL    HW178908   3.509   4.883   0.235 -0.8783  0.3840 -0.8064
26110SOL    HW278909   3.516   4.751   0.162 -0.6621  0.5600 -1.1097
26111SOL     OW78910   7.557   1.978   5.939  0.1133  0.6167 -0.1084
26111SOL    HW178911   7.525   1.914   5.875  2.3741 -0.6558 -0.0720
26111SOL    HW278912   7.547   1.935   6.024  1.7145  0.2405 -0.0885
26112SOL     OW78913   0.406   4.780   4.598  0.3314 -0.0128  0.0817
26112SOL    HW178914   0.360   4.696   4.605 -0.2433  0.3354  0.6073
26112SOL    HW278915   0.462   4.782   4.676 -0.8710  0.7933  0.9673
26113SOL     OW78916   8.693   0.677   3.223 -0.6499  0.1910  0.0434
26113SOL    HW178917   8.647   0.595   3.240  0.1016 -0.1091  0.6262
26113SOL    HW278918   8.722   0.707   3.309  0.5328  0.2139 -0.3544
26114SOL     OW78919   0.923   2.067   5.048 -0.1033  0.1491  0.1729
26114SOL    HW178920   0.834   2.037   5.029 -0.1263 -0.6240  1.3731
26114SOL    HW278921   0.912   2.139   5.110  0.1164 -0.3141  0.7580
26115SOL     OW78922  -0.016   5.219   2.950  0.1624  0.1359 -0.1636
26115SOL    HW178923   0.052   5.195   2.886 -0.5900 -1.0851 -0.5522
26115SOL    HW278924   0.033   5.243   3.028  1.0674 -0.6703 -0.4496
26116SOL     OW78925   1.342   5.311   0.811 -0.0602  0.3127 -0.3632
26116SOL    HW178926   1.373   5.220   0.813 -1.1309 -0.0905  1.9241
26116SOL    HW278927   1.265   5.308   0.754 -1.4938 -0.8177  1.4881
26117SOL     OW78928   3.785   5.883   6.949  0.1556  0.5379 -0.5397
26117SOL    HW178929   3.800   5.887   7.043 -0.9966  0.4842 -0.3421
26117SOL    HW278930   3.719   5.815   6.938 -1.0738  1.7879 -1.1925
26118SOL     OW78931   5.436   0.416   8.399  0.1273  0.1678  0.3159
26118SOL    HW178932   5.446   0.353   8.328  1.1499 -0.3373  0.8889
26118SOL    HW278933   5.432   0.501   8.354 -0.1596 -0.2150 -0.3967
26119SOL     OW78934   3.625   9.016   2.528  0.3654 -0.4586  0.2582
26119SOL    HW178935   3.555   9.066   2.569 -0.6842 -2.2300  0.6760
26119SOL    HW278936   3.705   9.065   2.551 -0.6334  1.2503  0.2722
26120SOL     OW78937   4.462   7.589   7.353 -0.3518  0.2038 -0.6677
26120SOL    HW178938   4.551   7.623   7.361 -0.3780  0.2447 -0.5407
26120SOL    HW278939   4.438   7.605   7.262  0.7989 -2.3223 -1.5240
26121SOL     OW78940   1.284   1.525   3.975 -0.0298  0.4706  0.1978
26121SOL    HW178941   1.199   1.482   3.977 -0.5498  1.4827  1.0356
26121SOL    HW278942   1.346   1.455   3.957 -1.1844 -0.0223 -2.2173
26122SOL     OW78943   6.770   4.357   2.921 -0.0728 -0.0126 -0.3767
26122SOL    HW178944   6.799   4.349   2.830 -0.7191 -0.1961 -0.5725
26122SOL    HW278945   6.848   4.337   2.973  0.1581 -0.4526 -0.8869
26123SOL     OW78946   4.485   6.980   0.384 -0.0860  0.0837  0.1882
26123SOL    HW178947   4.393   6.953   0.386  0.0313 -0.6099 -1.4093
26123SOL    HW278948   4.507   6.981   0.290  1.5000  0.3496  0.5329
26124SOL     OW78949   3.741   8.319   8.096 -0.1416  0.1236 -0.5296
26124SOL    HW178950   3.834   8.305   8.077 -0.0305 -0.4349  0.3331
26124SOL    HW278951   3.729   8.413   8.089  0.5202  0.2083 -0.5658
26125SOL     OW78952   0.018   1.256   2.946 -0.2326 -0.8428  1.4012
26125SOL    HW178953  -0.066   1.223   2.978  0.2032 -1.0776  2.3653
26125SOL    HW278954   0.084   1.205   2.994  0.4851 -1.4748 -0.1689
26126SOL     OW78955   5.445   6.876   3.076  0.2891 -0.1548  0.3064
26126SOL    HW178956   5.350   6.876   3.062  0.2009 -0.7474  0.8349
26126SOL    HW278957   5.458   6.814   3.147  0.7694  1.9978  2.2422
26127SOL     OW78958   7.446   9.001   4.563 -0.2064  0.0009 -0.0358
26127SOL    HW178959   7.540   8.981   4.561 -0.3780 -0.7956 -0.5345
26127SOL    HW278960   7.442   9.096   4.571  0.6457  0.0760 -0.3748
26128SOL     OW78961   3.982   4.658   3.899 -0.4633  0.4238 -0.1447
26128SOL    HW178962   4.025   4.744   3.900 -0.4833  0.4407  0.8063
26128SOL    HW278963   3.933   4.656   3.981  0.2989 -0.8671  0.2966
26129SOL     OW78964   7.731   9.314   5.070  0.0484 -0.5064 -0.2567
26129SOL    HW178965   7.650   9.360   5.095  0.1464  0.5952 -1.8309
26129SOL    HW278966   7.750   9.258   5.145 -1.6608 -0.0903  0.5484
26130SOL     OW78967   7.776   5.705   4.539  0.0227 -0.4072  0.4390
26130SOL    HW178968   7.854   5.674   4.492 -1.0368 -0.4167 -1.4005
26130SOL    HW278969   7.741   5.626   4.582  1.3833 -0.2685  1.9087
26131SOL     OW78970   0.550   0.759   3.815  0.3465  0.5228  0.1965
26131SOL    HW178971   0.479   0.810   3.778  0.9071  1.2797  0.1383
26131SOL    HW278972   0.517   0.669   3.816 -0.3414  0.7576 -0.4660
26132SOL     OW78973   9.211   8.481   8.311 -0.5515 -0.0585  0.4630
26132SOL    HW178974   9.251   8.486   8.398  2.6582 -2.7300 -0.6300
26132SOL    HW278975   9.131   8.431   8.324 -1.4408  1.6664  2.1499
26133SOL     OW78976   3.390   0.916   0.721 -0.0653 -0.1820 -0.0557
26133SOL    HW178977   3.424   0.989   0.772 -1.6036 -0.2389  1.1038
26133SOL    HW278978   3.321   0.879   0.775 -0.2405 -1.6550 -1.2234
26134SOL     OW78979   7.348   6.235   4.079  0.0268 -0.3979  0.3976
26134SOL    HW178980   7.258   6.261   4.095 -0.0678 -0.7369  0.4112
26134SOL    HW278981   7.396   6.318   4.070 -0.5650 -0.1981 -1.2862
26135SOL     OW78982   2.268   1.939   2.960  0.6709  0.0344  0.0527
26135SOL    HW178983   2.290   2.031   2.948  0.0006  0.4232  1.6656
26135SOL    HW278984   2.173   1.935   2.951  0.5639 -0.2840  1.1468
26136SOL     OW78985   9.086   9.269   0.061  0.0473  0.1864 -0.3362
26136SOL    HW178986   9.164   9.223   0.092  0.1984 -0.5637 -1.7197
26136SOL    HW278987   9.072   9.234  -0.027 -0.1642  2.3862 -1.2350
26137SOL     OW78988   9.430   1.272   6.120 -0.7593 -0.0721  0.1383
26137SOL    HW178989   9.405   1.179   6.120  1.4611 -0.7713  1.7295
26137SOL    HW278990   9.441   1.294   6.027  0.8846 -2.1326 -0.2531
26138SOL     OW78991   9.274   1.270   5.211  0.4618  0.0491  0.5094
26138SOL    HW178992   9.336   1.320   5.158  1.0681  0.0362  1.1990
26138SOL    HW278993   9.229   1.214   5.148  0.9139  0.2948 -0.0432
26139SOL     OW78994   9.917   8.109   2.017 -0.3400 -0.3522  0.4057
26139SOL    HW178995   9.836   8.072   1.980 -0.0472 -0.4093 -0.1880
26139SOL    HW278996   9.974   8.123   1.941  0.2318 -0.3598  0.8287
26140SOL     OW78997   6.739   1.241   4.849  0.4516  0.3248 -0.5150
26140SOL    HW178998   6.745   1.337   4.852 -2.6807  0.6548 -1.5751
26140SOL    HW278999   6.678   1.219   4.919 -1.6893 -0.4839 -2.5272
26141SOL     OW79000   8.090   2.590   5.786  0.2577 -0.4240  0.2157
26141SOL    HW179001   8.038   2.524   5.832  0.1510  0.0699  0.8182
26141SOL    HW279002   8.155   2.618   5.850 -0.0114  0.4066  0.1274
26142SOL     OW79003   6.026   1.809   1.208 -1.0443  0.4133 -0.3559
26142SOL    HW179004   5.974   1.774   1.281 -2.7129  0.9852 -1.2061
26142SOL    HW279005   5.977   1.784   1.130 -0.8465  2.2807 -1.1250
26143SOL     OW79006   1.648   3.725   0.736  0.0412 -0.2466 -0.4892
26143SOL    HW179007   1.694   3.643   0.719  0.4686  0.2186 -1.6580
26143SOL    HW279008   1.600   3.709   0.817  1.7563 -0.9515  0.4452
26144SOL     OW79009   9.459   7.479   0.037 -0.0434  0.4263  0.0917
26144SOL    HW179010   9.511   7.509  -0.037  0.3337  1.0391  0.6006
26144SOL    HW279011   9.381   7.534   0.035  0.0041  0.4963  0.2018
26145SOL     OW79012   8.628   7.180   0.919  0.2478 -0.3446 -0.4901
26145SOL    HW179013   8.626   7.179   1.015  1.1756 -0.0160 -0.4562
26145SOL    HW279014   8.544   7.143   0.893  0.7735 -2.3429  0.4546
26146SOL     OW79015   6.174   5.905   0.162  0.0286 -0.3738 -0.1106
26146SOL    HW179016   6.266   5.884   0.177 -0.1599 -0.2970  1.3316
26146SOL    HW279017   6.172   5.945   0.076  1.4817  0.3789  0.1755
26147SOL     OW79018   9.949   1.780   8.893 -0.2285  0.6142 -0.9895
26147SOL    HW179019   9.910   1.693   8.895 -0.5593  0.7493 -1.4646
26147SOL    HW279020   9.985   1.789   8.805  0.8995  0.4860 -0.5616
26148SOL     OW79021   2.397   2.553   2.426 -0.6630  0.3068  0.2423
26148SOL    HW179022   2.352   2.475   2.459 -1.9603  0.8841 -0.0624
26148SOL    HW279023   2.326   2.610   2.397  0.2882  1.3587 -0.0835
26149SOL     OW79024   9.955   1.303   7.023  0.4801 -0.0900 -0.0298
26149SOL    HW179025  10.022   1.369   7.006 -0.5038  0.7924 -0.6419
26149SOL    HW279026   9.931   1.315   7.114 -0.3822  1.0990 -0.3868
26150SOL     OW79027   3.240   0.660   7.009  0.0854 -0.4998  0.5590
26150SOL    HW179028   3.223   0.584   7.064  1.4147 -2.0133 -1.0517
26150SOL    HW279029   3.270   0.727   7.071 -0.6052 -1.3952  1.9331
26151SOL     OW79030   6.560   6.751   9.320  0.5036  0.6714 -0.4005
26151SOL    HW179031   6.635   6.707   9.280  2.0046  2.2616  0.5122
26151SOL    HW279032   6.573   6.844   9.302 -0.8672  1.0663  0.4081
26152SOL     OW79033   6.434   5.843   0.523  0.2252  0.5703 -0.2891
26152SOL    HW179034   6.509   5.863   0.579  1.1319  0.7360 -1.5218
26152SOL    HW279035   6.360   5.889   0.565  0.7100  0.0681  1.1576
26153SOL     OW79036   6.171   3.432   0.443 -0.7412  0.6997 -0.4050
26153SOL    HW179037   6.253   3.482   0.446 -0.9698  1.0642  1.1484
26153SOL    HW279038   6.176   3.380   0.363  0.7104  1.2102 -0.6693
26154SOL     OW79039   1.749   5.721   4.823 -0.4460 -0.4826  0.4279
26154SOL    HW179040   1.787   5.779   4.758 -0.4227 -0.3035  0.6017
26154SOL    HW279041   1.752   5.634   4.782  0.5856 -0.5502  0.6205
26155SOL     OW79042   7.653   1.859   5.527  0.3543  0.1687 -0.4405
26155SOL    HW179043   7.582   1.815   5.574  0.0376  0.9540 -0.1589
26155SOL    HW279044   7.630   1.850   5.435  1.2608 -1.8599 -0.5024
26156SOL     OW79045   1.245   6.375   7.573  0.0735  0.3153  0.5710
26156SOL    HW179046   1.275   6.317   7.503 -0.8955  2.4711 -1.8027
26156SOL    HW279047   1.150   6.364   7.575  0.1614 -0.5076  2.3869
26157SOL     OW79048   6.840   3.198   6.285 -0.1133 -0.2691  0.0838
26157SOL    HW179049   6.748   3.201   6.260 -0.0320 -0.2258 -0.2074
26157SOL    HW279050   6.865   3.106   6.274 -0.1812 -0.3266  0.3839
26158SOL     OW79051   2.436   5.903   5.682 -0.2758 -0.1191  0.1564
26158SOL    HW179052   2.381   5.826   5.694 -1.7643  0.4734 -2.2319
26158SOL    HW279053   2.523   5.867   5.666 -0.4377 -1.1726  1.4251
26159SOL     OW79054   1.632   2.528   7.867 -0.1898 -0.1414 -0.0438
26159SOL    HW179055   1.704   2.523   7.804 -0.3312 -1.5324 -0.1208
26159SOL    HW279056   1.577   2.453   7.846  0.8479 -1.9016  3.0405
26160SOL     OW79057   5.917   6.076   7.236 -0.5157  1.0524  0.1528
26160SOL    HW179058   5.995   6.078   7.180 -0.8732  1.7730 -0.3329
26160SOL    HW279059   5.892   5.983   7.239  0.1790  0.8567  0.0632
26161SOL     OW79060   7.821   3.600   6.741 -0.3823  0.7717 -0.3293
26161SOL    HW179061   7.855   3.592   6.652 -0.3402  0.8576 -0.3214
26161SOL    HW279062   7.763   3.675   6.738  1.2767  2.1576  0.2003
26162SOL     OW79063   3.110   7.664   8.803 -0.5041  0.2885  0.4197
26162SOL    HW179064   3.075   7.738   8.852 -0.9542 -1.2182  2.5222
26162SOL    HW279065   3.038   7.600   8.801  0.3311 -0.6661 -0.0614
26163SOL     OW79066   9.919   6.141   4.124 -0.0902  0.3692  0.2059
26163SOL    HW179067   9.969   6.221   4.107 -0.6460  0.7454  0.3308
26163SOL    HW279068   9.830   6.162   4.096  0.3605 -1.2313 -2.8474
26164SOL     OW79069   9.477   3.585   8.404  0.8435 -0.1254 -0.0574
26164SOL    HW179070   9.555   3.621   8.446  0.6606  1.1564 -0.7634
26164SOL    HW279071   9.404   3.628   8.449  0.5126 -1.5493  0.8116
26165SOL     OW79072   1.900   0.558   8.434  0.2679  0.2400  0.4333
26165SOL    HW179073   1.891   0.616   8.510 -1.5443  1.8226 -0.8977
26165SOL    HW279074   1.920   0.617   8.361 -2.6278 -0.5973 -1.1614
26166SOL     OW79075   2.038   0.450   6.319 -0.1236 -0.1629  0.1212
26166SOL    HW179076   2.097   0.479   6.389  1.6523  0.8073 -1.7023
26166SOL    HW279077   1.996   0.530   6.287 -0.8783 -0.5918  0.0015
26167SOL     OW79078   2.892   8.759   3.710 -0.5644  0.3815  0.0406
26167SOL    HW179079   2.982   8.772   3.739 -0.9342  0.5895  1.1459
26167SOL    HW279080   2.861   8.684   3.761 -0.9029  0.0598 -0.6194
26168SOL     OW79081   6.643   0.092   7.087 -0.0704 -0.0285  0.0270
26168SOL    HW179082   6.603   0.106   7.173 -1.3124 -1.0961 -0.3507
26168SOL    HW279083   6.582   0.132   7.025 -0.5539 -1.5873 -0.5506
26169SOL     OW79084   3.641   5.140   9.626 -0.4439 -0.6210 -0.2250
26169SOL    HW179085   3.598   5.190   9.557  0.7633 -1.7352 -1.8795
26169SOL    HW279086   3.726   5.182   9.637 -1.2056  0.5214  1.7918
26170SOL     OW79087   8.469   0.429   4.065  0.0849 -0.1538  0.6995
26170SOL    HW179088   8.381   0.396   4.046 -0.1923  0.2484  1.2504
26170SOL    HW279089   8.469   0.519   4.031 -0.0708  0.2107  1.6526
26171SOL     OW79090   6.945   9.044   9.885  0.4016  0.2881  0.5546
26171SOL    HW179091   6.866   9.014   9.931 -0.4680 -0.3051 -1.2199
26171SOL    HW279092   6.936   9.139   9.882 -1.0547  0.1570 -0.8974
26172SOL     OW79093   6.666   2.061   2.377  0.4443  0.1095 -0.7736
26172SOL    HW179094   6.705   2.012   2.304  3.3787 -1.5789  1.6946
26172SOL    HW279095   6.687   2.152   2.357  1.3005 -0.3212 -2.0001
26173SOL     OW79096   5.880   7.232   3.684  0.2219  0.4512  0.5044
26173SOL    HW179097   5.804   7.189   3.722 -0.1528 -0.3757 -1.0740
26173SOL    HW279098   5.952   7.171   3.697  0.2856  0.5686  0.6950
26174SOL     OW79099   2.047   0.415   0.471  0.3688 -0.5325  0.3417
26174SOL    HW179100   2.038   0.365   0.390  1.3250  0.3524 -0.3193
26174SOL    HW279101   2.123   0.470   0.458 -0.5350  0.9728  1.1402
26175SOL     OW79102   3.862   5.122   4.965  0.2511 -0.0734  0.8870
26175SOL    HW179103   3.937   5.175   4.938  0.2764 -0.9121 -0.8547
26175SOL    HW279104   3.895   5.070   5.039  0.2078  2.2620  2.6751
26176SOL     OW79105   7.194   2.678   3.913 -0.1563 -0.3624 -0.2709
26176SOL    HW179106   7.196   2.768   3.945 -1.2203 -0.8421  1.2915
26176SOL    HW279107   7.196   2.686   3.817 -1.3349  1.3669 -0.1893
26177SOL     OW79108   8.075   7.464   2.490  0.2879 -0.3332 -0.6051
26177SOL    HW179109   8.028   7.382   2.478 -0.2177  0.1828 -2.4773
26177SOL    HW279110   8.156   7.453   2.439  0.4653  0.1359 -0.4286
26178SOL     OW79111   6.561   4.462   1.430  0.1485 -0.6037 -0.1514
26178SOL    HW179112   6.487   4.521   1.420  0.7545  0.1053 -0.5011
26178SOL    HW279113   6.528   4.392   1.487 -0.6735 -0.1085 -0.0050
26179SOL     OW79114   7.072   6.801   3.994 -0.2632 -0.8904 -0.3081
26179SOL    HW179115   7.115   6.839   4.071 -2.0759 -0.7873  0.6957
26179SOL    HW279116   7.094   6.862   3.923 -1.2043  0.8291  0.7937
26180SOL     OW79117   9.049   0.758   9.312  0.2024  0.7302 -0.1848
26180SOL    HW179118   9.098   0.677   9.298 -1.5239 -0.4800  0.4192
26180SOL    HW279119   9.092   0.822   9.256  1.7841 -0.5275 -0.4781
26181SOL     OW79120   6.979   0.972   8.051  0.0194  0.1514  0.0164
26181SOL    HW179121   6.956   0.885   8.083 -1.9872  0.4886 -0.3743
26181SOL    HW279122   6.939   1.033   8.113  0.0715  0.8064 -0.5712
26182SOL     OW79123   0.844   0.667   0.313 -0.8064 -0.1996  0.1010
26182SOL    HW179124   0.898   0.744   0.332 -1.6449  0.4506 -0.0990
26182SOL    HW279125   0.803   0.686   0.229 -0.4385 -1.2023 -0.3122
26183SOL     OW79126   9.489   5.925   6.122 -0.2804 -0.1151  0.7982
26183SOL    HW179127   9.547   5.884   6.187  1.2700 -2.2768 -1.7383
26183SOL    HW279128   9.412   5.868   6.119 -0.3614 -0.0037  0.7556
26184SOL     OW79129   0.385   2.649   0.144 -0.2710  0.1545  0.3190
26184SOL    HW179130   0.365   2.700   0.064  1.9009  0.9374  0.2249
26184SOL    HW279131   0.444   2.580   0.114 -0.2874 -0.1946  1.0862
26185SOL     OW79132   4.069   4.407   8.723  0.3823 -0.3003  0.2663
26185SOL    HW179133   4.150   4.373   8.761  0.9027 -0.3482 -0.8521
26185SOL    HW279134   4.008   4.334   8.727  1.2175 -1.1225 -1.2941
26186SOL     OW79135   5.527   8.531   1.396 -0.0828 -0.2802 -0.0517
26186SOL    HW179136   5.591   8.589   1.439 -1.6533  0.5742  1.2309
26186SOL    HW279137   5.474   8.497   1.468 -0.6069 -1.5777 -1.0159
26187SOL     OW79138   8.329   0.850   5.003  0.2112 -0.1937 -0.1485
26187SOL    HW179139   8.366   0.795   4.933 -0.0456  0.7947 -1.0786
26187SOL    HW279140   8.369   0.815   5.083  0.8525 -1.0709 -0.8186
26188SOL     OW79141   2.816   4.425   8.359 -0.4697  0.1242  0.0226
26188SOL    HW179142   2.786   4.512   8.332  1.4486  0.4149 -1.4101
26188SOL    HW279143   2.822   4.429   8.454 -1.9905  0.9894  0.1105
26189SOL     OW79144   2.436   0.830   7.344 -0.1401 -0.2805  0.1683
26189SOL    HW179145   2.485   0.885   7.405 -0.5680  1.2639 -0.8191
26189SOL    HW279146   2.429   0.883   7.265 -0.9300 -1.6179 -0.6917
26190SOL     OW79147   9.650   8.443   3.435  0.1739 -0.3026 -0.0912
26190SOL    HW179148   9.690   8.405   3.513  0.2946  0.5107  0.2530
26190SOL    HW279149   9.703   8.520   3.416 -0.9081  0.4959  0.0592
26191SOL     OW79150   3.244   1.539   5.462  0.1771  0.2629 -0.2105
26191SOL    HW179151   3.218   1.572   5.548  0.4316 -0.6152  0.2105
26191SOL    HW279152   3.195   1.457   5.452  0.6936 -0.0031 -0.5926
26192SOL     OW79153   3.377   7.805   9.962  0.1872 -0.3490  0.4377
26192SOL    HW179154   3.471   7.794   9.947 -0.0598 -0.5385 -1.1189
26192SOL    HW279155   3.338   7.725   9.926 -0.6493  0.2065  0.0764
26193SOL     OW79156   5.994   3.204   6.001 -0.2171  0.3545  0.1955
26193SOL    HW179157   5.947   3.122   5.990  0.7787  0.1410 -3.6717
26193SOL    HW279158   6.029   3.199   6.090  0.0771 -3.5445  0.0327
26194SOL     OW79159   8.131   8.304   2.191  0.4496  0.9241  0.1468
26194SOL    HW179160   8.081   8.368   2.241 -0.0545 -0.2184  1.1380
26194SOL    HW279161   8.191   8.265   2.254  1.8812  1.5083 -0.7897
26195SOL     OW79162   7.053   6.723   8.806 -1.0968 -0.4969 -0.5048
26195SOL    HW179163   6.963   6.692   8.814 -0.8472 -0.9575  0.7978
26195SOL    HW279164   7.047   6.803   8.755 -2.2261 -0.6212 -0.5799
26196SOL     OW79165   8.703   3.938   9.375  0.0063  0.3248  0.2224
26196SOL    HW179166   8.765   3.869   9.352 -0.8998 -1.4000  2.5539
26196SOL    HW279167   8.758   4.013   9.396  1.3701 -1.0075  1.7289
26197SOL     OW79168   4.731   0.727   0.728  0.2374 -0.0614 -0.6143
26197SOL    HW179169   4.715   0.724   0.633  0.0800 -1.1618 -0.5748
26197SOL    HW279170   4.820   0.692   0.738 -1.0624 -3.7312 -0.1394
26198SOL     OW79171   6.488   4.475   2.651 -0.0221  0.2550 -0.0282
26198SOL    HW179172   6.462   4.455   2.741  2.4127 -2.3473  0.2303
26198SOL    HW279173   6.559   4.538   2.660 -0.2549  0.5431 -0.1901
26199SOL     OW79174   2.366   6.297   3.875 -0.3240  0.0094  0.3142
26199SOL    HW179175   2.462   6.305   3.876 -0.2437 -0.7881  1.5605
26199SOL    HW279176   2.350   6.203   3.882 -1.2225 -0.1381 -2.6884
26200SOL     OW79177   0.467   5.106   3.834  0.4714  0.1723 -0.6238
26200SOL    HW179178   0.535   5.160   3.875  0.4279  0.2028 -0.5912
26200SOL    HW279179   0.389   5.121   3.887  1.2617 -2.5763  1.5683
26201SOL     OW79180   9.527   6.826   9.770  0.0483  0.1457 -0.5305
26201SOL    HW179181   9.474   6.902   9.745 -0.4595 -0.8017 -2.5372
26201SOL    HW279182   9.476   6.783   9.838 -0.0299  1.1785  0.0806
26202SOL     OW79183   7.987   1.719   5.162 -0.1166  0.1707  0.0033
26202SOL    HW179184   8.052   1.770   5.114 -1.0845  2.5825  1.1019
26202SOL    HW279185   8.035   1.679   5.234  0.3320  1.2418  0.3195
26203SOL     OW79186   6.962   5.027   6.818  0.5586  0.5693 -0.3460
26203SOL    HW179187   6.916   5.109   6.833  0.0535  0.5546 -1.6581
26203SOL    HW279188   6.959   5.015   6.723  2.0656 -0.1386 -0.3247
26204SOL     OW79189   9.574   8.888   1.165 -0.6846 -0.1315 -0.0781
26204SOL    HW179190   9.602   8.801   1.136 -0.4433  0.4268 -1.6266
26204SOL    HW279191   9.499   8.871   1.223  1.0063 -1.4959  1.8667
26205SOL     OW79192   3.761   6.085   0.083 -0.5433  0.0627  0.0790
26205SOL    HW179193   3.816   6.021   0.128 -0.5184 -0.7308 -1.0335
26205SOL    HW279194   3.817   6.162   0.071  0.6599 -1.0080 -1.7549
26206SOL     OW79195   7.227   9.476   6.507  0.7716  0.1131  0.6913
26206SOL    HW179196   7.216   9.453   6.415  1.9313  0.1177  0.5391
26206SOL    HW279197   7.258   9.395   6.549  1.8102  0.5252  0.7562
26207SOL     OW79198   7.151   8.942   1.615 -0.3128 -0.0397  0.2436
26207SOL    HW179199   7.171   8.918   1.525  0.2021 -0.1791  0.3898
26207SOL    HW279200   7.089   8.876   1.645  0.0713 -0.4182  0.2191
26208SOL     OW79201   6.520   5.062   1.565  0.2302 -0.2244 -0.1109
26208SOL    HW179202   6.499   5.089   1.654 -0.5440 -1.2777  0.0437
26208SOL    HW279203   6.615   5.069   1.560  0.4190 -1.4052  1.2402
26209SOL     OW79204   3.659   3.671   0.361 -0.0005  0.3188  0.1671
26209SOL    HW179205   3.745   3.644   0.329 -0.4962 -1.8747  0.4979
26209SOL    HW279206   3.604   3.672   0.283  0.0865  0.7002  0.1092
26210SOL     OW79207   3.665   2.142   0.411  0.6504  0.2179  0.0614
26210SOL    HW179208   3.737   2.121   0.470  0.7100 -0.6183 -0.2897
26210SOL    HW279209   3.671   2.237   0.397  1.6702  0.1585  0.0494
26211SOL     OW79210   5.759   6.542   2.589 -0.4652 -0.5034 -0.4612
26211SOL    HW179211   5.794   6.574   2.506  1.1026  0.1632  0.3932
26211SOL    HW279212   5.769   6.447   2.584  0.7642 -0.3880 -0.5873
26212SOL     OW79213   3.214   8.946   8.328  0.2472  0.0284  0.0534
26212SOL    HW179214   3.269   8.994   8.390 -0.0722 -1.6977  1.7731
26212SOL    HW279215   3.252   8.966   8.243  0.7229  2.4776  0.7430
26213SOL     OW79216   7.607   9.871   4.587  0.0035  0.3507 -0.4227
26213SOL    HW179217   7.667   9.943   4.608  0.8564  0.1392 -1.9762
26213SOL    HW279218   7.529   9.915   4.552 -0.2568  0.5780  0.4239
26214SOL     OW79219   5.493   6.254   5.448  0.1004  0.4652  0.2443
26214SOL    HW179220   5.495   6.214   5.361 -0.6436 -0.4747  0.6415
26214SOL    HW279221   5.486   6.348   5.431  0.5285  0.3419 -0.7069
26215SOL     OW79222   7.525   5.595   0.258  0.2994 -0.4024  0.2272
26215SOL    HW179223   7.453   5.618   0.317  0.4509  2.0497 -0.4294
26215SOL    HW279224   7.482   5.560   0.181 -0.2608  1.1071 -0.1854
26216SOL     OW79225   4.652   7.006   6.577 -0.5780 -0.1641 -0.2921
26216SOL    HW179226   4.723   6.963   6.529  0.8017  0.5159  1.0569
26216SOL    HW279227   4.590   7.033   6.509 -0.3593 -2.1740 -1.3769
26217SOL     OW79228   7.499   7.331   1.600  0.3285  0.1714 -0.1258
26217SOL    HW179229   7.580   7.280   1.606  0.6191  0.7151  0.6707
26217SOL    HW279230   7.481   7.335   1.506  2.1727  1.4756 -0.4803
26218SOL     OW79231   1.071   2.122   5.800 -0.1155  0.3016  0.0553
26218SOL    HW179232   1.112   2.131   5.887  1.0506  2.6073 -0.6492
26218SOL    HW279233   0.992   2.176   5.805  0.5242  1.3287 -0.6074
26219SOL     OW79234   1.992   7.224   6.978  0.1318 -0.1643 -0.2862
26219SOL    HW179235   2.031   7.303   7.017  1.1406  0.0682 -1.6730
26219SOL    HW279236   2.063   7.186   6.925 -0.6333 -1.4649 -0.4279
26220SOL     OW79237   9.788   1.584   1.520  0.1092 -0.2143 -0.3344
26220SOL    HW179238   9.787   1.566   1.426  0.7563 -0.5072 -0.2905
26220SOL    HW279239   9.832   1.508   1.559 -1.7934 -0.9949  0.4186
26221SOL     OW79240   5.709   9.258   8.154 -0.2186  0.8884  0.4152
26221SOL    HW179241   5.645   9.240   8.223 -1.3110 -1.7012 -1.1323
26221SOL    HW279242   5.782   9.198   8.173 -0.6719 -0.0818 -0.7929
26222SOL     OW79243   2.421   4.148   9.556  0.0095 -0.0607  0.1292
26222SOL    HW179244   2.373   4.069   9.530 -0.9695 -0.0822  1.8504
26222SOL    HW279245   2.387   4.217   9.497  0.8182 -0.8602 -1.3317
26223SOL     OW79246   6.399   5.168   0.929 -0.5278  0.3833 -0.0701
26223SOL    HW179247   6.322   5.205   0.885 -0.8487  2.0134  1.7471
26223SOL    HW279248   6.393   5.200   1.019  1.8887 -0.0684  0.3179
26224SOL     OW79249   0.803   7.632   8.491  0.4189 -0.1724  0.0644
26224SOL    HW179250   0.753   7.593   8.562  0.2309 -1.0902 -0.5496
26224SOL    HW279251   0.892   7.598   8.502 -0.1874 -2.6126 -1.6992
26225SOL     OW79252   7.955   2.552   4.380  0.6835 -0.8385  0.5727
26225SOL    HW179253   8.019   2.597   4.325 -0.6732 -0.1492 -0.5149
26225SOL    HW279254   7.937   2.614   4.451  0.6337 -0.6924  0.4332
26226SOL     OW79255   6.571   9.129   9.187 -0.1253  0.6851 -0.2496
26226SOL    HW179256   6.650   9.075   9.187 -1.2212 -1.0052  0.4899
26226SOL    HW279257   6.586   9.193   9.256  0.1036 -0.4444  0.7887
26227SOL     OW79258   7.875   8.922   1.014 -0.3498 -0.6350 -0.0714
26227SOL    HW179259   7.811   8.927   1.085 -0.4436 -2.2151 -0.0239
26227SOL    HW279260   7.853   8.996   0.957 -0.9329  0.0311  0.9766
26228SOL     OW79261   1.627   2.774   0.911 -0.2013  0.3411 -0.3755
26228SOL    HW179262   1.580   2.702   0.955  0.0255 -1.5299 -2.9669
26228SOL    HW279263   1.558   2.827   0.872 -0.3107  0.2233 -0.3444
26229SOL     OW79264   0.437   2.903   7.172 -0.3372  0.4895  0.4875
26229SOL    HW179265   0.365   2.841   7.156  0.1465 -0.5262  2.0341
26229SOL    HW279266   0.487   2.903   7.091  0.3196 -2.0888  0.8034
26230SOL     OW79267   9.527   2.821   4.097  0.1819  0.1054  0.1596
26230SOL    HW179268   9.433   2.812   4.078  0.0992 -0.1663  0.6624
26230SOL    HW279269   9.537   2.912   4.124  0.3680  0.6066 -1.4824
26231SOL     OW79270   2.252   7.044   3.492  0.1529  0.6803 -0.3641
26231SOL    HW179271   2.158   7.033   3.501  0.0991  1.1443 -0.3265
26231SOL    HW279272   2.282   6.964   3.450 -0.3827  0.9138 -1.2244
26232SOL     OW79273   4.364   2.039   1.520  0.3929 -0.2710 -0.3800
26232SOL    HW179274   4.432   1.972   1.514  1.5157  0.8680 -0.8899
26232SOL    HW279275   4.371   2.087   1.437 -0.7311  0.1783 -0.2379
26233SOL     OW79276   2.400  -0.005   2.982 -0.3671  0.0360 -0.3508
26233SOL    HW179277   2.466  -0.045   2.926  0.9798  2.2866 -0.5064
26233SOL    HW279278   2.449   0.059   3.035 -2.3823  1.8287 -0.4856
26234SOL     OW79279   2.200   9.888   8.666 -0.1465 -0.0730 -0.8324
26234SOL    HW179280   2.114   9.891   8.623 -0.3640  0.6029 -0.3608
26234SOL    HW279281   2.262   9.908   8.596 -0.3258 -0.9738 -1.2695
26235SOL     OW79282   4.588   1.473   7.292 -0.3947  0.3030  0.3642
26235SOL    HW179283   4.626   1.559   7.311 -0.3456  0.1097  1.2126
26235SOL    HW279284   4.499   1.491   7.265 -0.1340  0.6736 -0.2682
26236SOL     OW79285   7.407   3.862   1.093 -0.1947  0.0930  0.3777
26236SOL    HW179286   7.338   3.800   1.117 -2.3447  1.9164 -0.6998
26236SOL    HW279287   7.423   3.914   1.172  0.2395 -0.5679  0.7315
26237SOL     OW79288   9.115   5.336   1.785  0.2581  0.3890  0.1355
26237SOL    HW179289   9.163   5.320   1.866 -0.7225  1.5090  0.9687
26237SOL    HW279290   9.024   5.315   1.807 -0.0969  1.2119 -0.5153
26238SOL     OW79291   9.926   1.203   2.107 -0.4357 -0.1718  0.4190
26238SOL    HW179292   9.839   1.244   2.103 -0.1928  0.2608 -0.7875
26238SOL    HW279293   9.986   1.276   2.121 -0.1064 -0.2413 -0.5938
26239SOL     OW79294   3.651   1.367   8.941 -0.2680  0.2934  0.1278
26239SOL    HW179295   3.679   1.443   8.993 -0.5646 -0.2557  1.1346
26239SOL    HW279296   3.718   1.358   8.873  0.9800  0.1568  1.3231
26240SOL     OW79297   2.340   3.677   7.114 -0.1775 -0.2140 -0.1090
26240SOL    HW179298   2.427   3.649   7.144 -1.3143 -0.1336  3.9685
26240SOL    HW279299   2.328   3.764   7.153 -1.2573  0.8768 -2.6404
26241SOL     OW79300   1.870   9.352   0.061 -0.0527 -0.0088  0.4945
26241SOL    HW179301   1.940   9.418   0.064 -0.1985  0.3693 -1.9381
26241SOL    HW279302   1.808   9.379   0.128 -0.4863  2.8531 -0.9241
26242SOL     OW79303   6.026   8.017   2.707  0.2197  0.0485 -0.7615
26242SOL    HW179304   5.992   7.982   2.789  0.9899 -2.6687 -1.5001
26242SOL    HW279305   6.116   8.042   2.726  0.9290 -2.0934 -1.0853
26243SOL     OW79306   6.951   6.471   3.580 -0.1704 -0.0785 -0.2835
26243SOL    HW179307   7.012   6.425   3.636  1.6516 -0.0763 -2.1657
26243SOL    HW279308   6.871   6.479   3.633  1.6699  0.6716  2.5813
26244SOL     OW79309   8.760   8.683   2.171  0.6415 -0.0821 -0.2810
26244SOL    HW179310   8.702   8.756   2.149  0.8043 -0.1912 -1.0835
26244SOL    HW279311   8.817   8.674   2.095  2.0062  0.2878  0.6527
26245SOL     OW79312   0.636   1.219   0.248  0.3089 -0.2003  0.4218
26245SOL    HW179313   0.690   1.170   0.310 -1.2094  0.7435  2.6663
26245SOL    HW279314   0.650   1.311   0.272  0.5134  0.2817 -1.4167
26246SOL     OW79315   0.649   7.852   5.067 -0.3443 -0.0825 -0.0521
26246SOL    HW179316   0.684   7.766   5.091 -0.5968 -0.2236 -0.1830
26246SOL    HW279317   0.676   7.910   5.138  1.6893  0.2107 -0.9890
26247SOL     OW79318   2.763   0.528   0.956  0.3099  0.0452 -0.8591
26247SOL    HW179319   2.719   0.612   0.969  0.6619  0.2484 -0.9586
26247SOL    HW279320   2.720   0.468   1.017  1.3711  0.7872  0.6927
26248SOL     OW79321   0.998   0.789   2.891  0.0733  0.7175  0.3182
26248SOL    HW179322   1.024   0.698   2.903 -0.3752  0.3892 -1.0485
26248SOL    HW279323   0.961   0.792   2.802  1.3746  2.5261 -0.2082
26249SOL     OW79324   8.121   9.769   1.596 -0.0234  0.1717  0.7564
26249SOL    HW179325   8.048   9.723   1.553  1.3745 -1.1986 -0.2596
26249SOL    HW279326   8.160   9.703   1.653  0.9461  0.6133  0.6192
26250SOL     OW79327   9.043   7.244   5.177 -0.3036 -0.5627 -1.1200
26250SOL    HW179328   9.128   7.237   5.219 -1.2485  0.8563  1.2023
26250SOL    HW279329   9.060   7.293   5.096  0.7926  2.0237  0.5500
26251SOL     OW79330   4.383   8.050   5.992  0.6765  0.2570  0.3995
26251SOL    HW179331   4.368   8.079   6.082  0.7524 -0.3927  0.6230
26251SOL    HW279332   4.355   8.125   5.938  2.4313  1.4087  1.0038
26252SOL     OW79333   1.536   4.516   6.785 -0.4962 -0.4672 -0.4515
26252SOL    HW179334   1.610   4.502   6.843 -1.8532  2.8762  2.4623
26252SOL    HW279335   1.481   4.439   6.797  0.6606 -1.1754  0.4700
26253SOL     OW79336   1.145   9.298   6.585  0.3810 -0.7919  0.1796
26253SOL    HW179337   1.156   9.356   6.660  1.5285 -0.9376  0.1395
26253SOL    HW279338   1.103   9.353   6.519 -1.4957 -0.9200  1.2157
26254SOL     OW79339   3.117   8.399   8.239 -0.1690  0.0316 -0.0546
26254SOL    HW179340   3.158   8.483   8.261 -0.3853  0.3276 -0.7293
26254SOL    HW279341   3.190   8.338   8.231  0.1130  0.4531 -0.8105
26255SOL     OW79342   0.390   1.539   9.936 -0.0095  0.1254 -0.1093
26255SOL    HW179343   0.448   1.608   9.969  0.1848 -1.1695  2.5318
26255SOL    HW279344   0.382   1.557   9.842  2.6040  1.8243 -0.1076
26256SOL     OW79345   4.385   1.714   0.757 -0.3513  0.1614 -0.0903
26256SOL    HW179346   4.344   1.797   0.733 -2.7261 -0.9056  0.0263
26256SOL    HW279347   4.368   1.705   0.851 -0.3832 -0.5875 -0.1652
26257SOL     OW79348   3.919   0.734   1.727  0.6384 -0.2630 -0.0555
26257SOL    HW179349   3.994   0.763   1.674  0.7416 -0.3210  0.0591
26257SOL    HW279350   3.858   0.808   1.725 -0.4416 -1.1260 -2.2488
26258SOL     OW79351   8.213   9.902   0.261 -0.0327 -0.3299  0.1472
26258SOL    HW179352   8.155   9.903   0.336 -0.4666 -1.3322 -0.1549
26258SOL    HW279353   8.300   9.887   0.298 -0.3343 -1.5695  0.4252
26259SOL     OW79354   8.783   6.774   4.751 -0.2125 -0.0254 -0.0765
26259SOL    HW179355   8.712   6.829   4.720 -1.0601 -1.2300 -0.3305
26259SOL    HW279356   8.819   6.821   4.827 -1.4828  0.4485  0.2483
26260SOL     OW79357   3.871   8.961   3.564  0.0006 -0.7101  1.4933
26260SOL    HW179358   3.859   8.951   3.469 -0.0159 -0.3020  1.4540
26260SOL    HW279359   3.855   9.053   3.581 -0.7915 -0.9298  2.0113
26261SOL     OW79360   9.619   7.100   9.441 -0.4459  0.8799 -0.3189
26261SOL    HW179361   9.645   7.042   9.370  0.9169 -1.5651  1.9873
26261SOL    HW279362   9.565   7.045   9.498  0.0262  2.1406  1.4328
26262SOL     OW79363   0.906   7.540   0.201  0.6276 -0.1408 -0.3142
26262SOL    HW179364   0.908   7.449   0.170  2.9981 -0.5468  0.7748
26262SOL    HW279365   0.868   7.534   0.289  1.4925 -0.2193  0.0639
26263SOL     OW79366   8.612   4.340   4.712  0.5198  0.1014 -0.4001
26263SOL    HW179367   8.626   4.281   4.638  0.8365 -1.5012  0.8781
26263SOL    HW279368   8.700   4.370   4.736  0.6846 -1.1866  0.7102
26264SOL     OW79369   1.758   3.877   8.649  0.4987  0.0805 -0.1641
26264SOL    HW179370   1.776   3.811   8.716  0.0229 -1.7474 -1.7628
26264SOL    HW279371   1.663   3.890   8.653  0.0162 -2.1115 -2.2166
26265SOL     OW79372   2.220   9.358   3.163 -0.1818 -0.1752  0.0675
26265SOL    HW179373   2.161   9.338   3.090  0.8922 -0.6101 -0.7155
26265SOL    HW279374   2.232   9.274   3.208  0.5903 -0.3207 -0.3753
26266SOL     OW79375   4.874   0.496   5.106 -0.6949 -0.4020 -0.2836
26266SOL    HW179376   4.862   0.573   5.049 -2.5091 -0.7444 -0.4225
26266SOL    HW279377   4.855   0.421   5.050 -2.9806 -0.7318  0.7936
26267SOL     OW79378   5.919   7.487   7.295  0.3716 -0.5407 -0.1292
26267SOL    HW179379   5.838   7.538   7.295  0.5052 -0.2563  1.5953
26267SOL    HW279380   5.890   7.396   7.292  0.0408 -0.4234 -0.6624
26268SOL     OW79381   2.341   2.525   1.239  0.1136 -0.2515 -0.0223
26268SOL    HW179382   2.418   2.516   1.184  0.8898  1.0326  0.8006
26268SOL    HW279383   2.267   2.524   1.178  0.7113 -1.9202 -0.7924
26269SOL     OW79384   2.801   2.071   6.447  0.5150 -0.1753  0.1014
26269SOL    HW179385   2.804   2.151   6.499  1.2135 -0.6211  0.7616
26269SOL    HW279386   2.720   2.078   6.396  1.4147  1.7485 -1.1650
26270SOL     OW79387   8.584   2.677   9.664 -0.0458  0.0343 -0.5701
26270SOL    HW179388   8.592   2.772   9.675 -0.7884 -0.0868  1.3677
26270SOL    HW279389   8.500   2.655   9.704  0.9464 -1.6585  0.7134
26271SOL     OW79390   2.028   7.410   0.577 -0.0982 -0.2463 -0.6680
26271SOL    HW179391   2.113   7.371   0.559 -0.1009 -0.4362 -0.2954
26271SOL    HW279392   2.016   7.398   0.672  0.0637  1.0049 -0.4733
26272SOL     OW79393   0.488   9.775   0.983 -0.7333  0.6135  0.1698
26272SOL    HW179394   0.565   9.719   0.973 -2.1645 -1.2435 -1.3718
26272SOL    HW279395   0.512   9.858   0.942 -0.0117 -0.4457 -1.6383
26273SOL     OW79396   0.223   9.211   1.285  0.1424 -0.3235 -0.7432
26273SOL    HW179397   0.169   9.149   1.334  0.2248  0.7620  0.7901
26273SOL    HW279398   0.302   9.222   1.338  0.2886  0.7990 -1.1776
26274SOL     OW79399   4.542   7.392   8.736  0.2190  0.3378  0.5186
26274SOL    HW179400   4.479   7.439   8.791 -0.3389 -0.8079  0.8724
26274SOL    HW279401   4.609   7.361   8.796  0.5097  0.5407  0.3052
26275SOL     OW79402   9.840   1.786   3.492 -0.0839  0.0180  0.1196
26275SOL    HW179403   9.838   1.841   3.413 -0.0466 -0.7096 -0.4002
26275SOL    HW279404   9.790   1.708   3.467 -0.2839 -0.1093  0.9053
26276SOL     OW79405   7.500   1.627   8.364  0.0290  0.3402  0.8253
26276SOL    HW179406   7.564   1.604   8.296 -0.0734  2.4952 -0.0779
26276SOL    HW279407   7.415   1.607   8.324  0.0386 -1.5374  1.6352
26277SOL     OW79408   6.900   0.182   2.670  0.7245  0.6036 -0.2896
26277SOL    HW179409   6.823   0.136   2.702  1.1262 -0.7034 -1.1329
26277SOL    HW279410   6.931   0.234   2.744 -0.9595  1.1599  0.0563
26278SOL     OW79411   8.895   7.173   8.231  0.5329  0.2591 -0.1091
26278SOL    HW179412   8.808   7.212   8.235  0.3733 -0.1632  1.4737
26278SOL    HW279413   8.928   7.196   8.145 -1.8968 -1.2449 -1.5524
26279SOL     OW79414   8.077   6.324   0.725  0.2216  0.5873 -0.3688
26279SOL    HW179415   8.053   6.415   0.710  0.8129  0.5867 -1.3822
26279SOL    HW279416   8.170   6.327   0.747 -0.4358  0.5311  2.9210
26280SOL     OW79417   9.294   7.677   0.076 -0.1107 -0.5225  0.2026
26280SOL    HW179418   9.239   7.658   0.152  1.3894 -0.7917  1.2528
26280SOL    HW279419   9.277   7.769   0.057 -1.1078 -0.6639  0.3451
26281SOL     OW79420   8.806   0.734   7.254  0.3600 -0.1879 -0.2515
26281SOL    HW179421   8.794   0.688   7.171  1.1574 -0.2806 -0.3138
26281SOL    HW279422   8.894   0.771   7.250  0.2919  0.0750  0.4257
26282SOL     OW79423   7.712   1.540   7.547 -0.7152 -0.1805 -0.4680
26282SOL    HW179424   7.723   1.616   7.490 -0.8009  0.4039  0.2805
26282SOL    HW279425   7.769   1.558   7.621 -0.6665 -0.8984 -0.3315
26283SOL     OW79426   0.192   3.314   0.955  0.2184  0.3228  0.5468
26283SOL    HW179427   0.264   3.251   0.955  1.4073  1.6158  0.8116
26283SOL    HW279428   0.143   3.294   1.035  0.4586 -0.4041  0.5157
26284SOL     OW79429   8.853   4.991   1.995 -0.1280  0.1110 -0.1662
26284SOL    HW179430   8.947   4.976   2.006 -0.0560  0.4326 -0.3427
26284SOL    HW279431   8.818   4.980   2.083 -0.3981 -3.1470 -0.5297
26285SOL     OW79432   1.220   7.302   3.594  0.3272  0.9466  0.0376
26285SOL    HW179433   1.267   7.326   3.674  0.8175 -1.3135  0.5276
26285SOL    HW279434   1.281   7.323   3.523  1.4198 -0.3063  0.5535
26286SOL     OW79435   3.124   8.551   4.818  0.4092 -0.1296 -0.6783
26286SOL    HW179436   3.165   8.633   4.844  2.0283 -1.0145 -0.3557
26286SOL    HW279437   3.138   8.492   4.892 -0.3048 -0.8636 -1.1058
26287SOL     OW79438   9.247   5.216   1.601  0.3429  0.3259  0.3846
26287SOL    HW179439   9.295   5.299   1.600  1.1657 -0.1342  0.7832
26287SOL    HW279440   9.177   5.229   1.665  0.1444  0.8795  0.0649
26288SOL     OW79441   4.942   1.580   7.147 -0.8557 -0.4554 -0.1797
26288SOL    HW179442   4.874   1.647   7.137 -3.4338 -2.7133  0.8770
26288SOL    HW279443   4.971   1.587   7.238 -0.2233 -0.0211 -0.4065
26289SOL     OW79444   7.436   9.646   8.707 -0.1258  0.2426  0.1755
26289SOL    HW179445   7.451   9.556   8.735  1.1863  0.4193  0.0839
26289SOL    HW279446   7.342   9.651   8.692 -0.0303 -1.5491 -1.2959
26290SOL     OW79447   1.830   8.914   0.749 -0.0900  0.0461  0.0951
26290SOL    HW179448   1.818   9.009   0.743  1.1517  0.2440  0.4759
26290SOL    HW279449   1.742   8.880   0.764 -1.1708  0.8035 -3.5075
26291SOL     OW79450   4.418   4.566   7.360 -0.1221 -0.4504  0.3233
26291SOL    HW179451   4.476   4.575   7.436 -0.6391  0.4165  0.6290
26291SOL    HW279452   4.331   4.553   7.398 -0.2235 -1.1692 -0.1323
26292SOL     OW79453   8.362   5.232   6.601 -0.1151 -0.5386  0.0635
26292SOL    HW179454   8.371   5.164   6.535 -1.8277 -0.4479 -0.3087
26292SOL    HW279455   8.437   5.289   6.586  0.1833 -1.1804 -1.0199
26293SOL     OW79456   7.078   0.576   5.405  0.7685  0.1763  0.8868
26293SOL    HW179457   7.015   0.633   5.448 -0.6728 -2.2656  2.2308
26293SOL    HW279458   7.161   0.594   5.449  0.8804  2.7208 -0.2227
26294SOL     OW79459   0.475   4.987   1.713  0.4807  0.3996  0.3904
26294SOL    HW179460   0.386   4.979   1.749 -0.5098  0.3735 -1.8801
26294SOL    HW279461   0.498   5.079   1.726 -0.7942  0.9326 -0.9053
26295SOL     OW79462   0.923   4.493   7.055 -0.2734 -0.2987 -0.0156
26295SOL    HW179463   0.959   4.548   7.124 -1.6982  1.1984 -0.3881
26295SOL    HW279464   0.905   4.554   6.983 -0.3718 -1.5399 -1.0803
26296SOL     OW79465   9.640   2.818   3.778  0.8900  0.1466  0.9548
26296SOL    HW179466   9.712   2.873   3.809  0.9709  0.0769  0.8906
26296SOL    HW279467   9.571   2.831   3.843  1.6744 -1.3565  2.1535
26297SOL     OW79468   2.527   9.014   4.178 -0.1056 -0.3617 -0.3119
26297SOL    HW179469   2.572   8.951   4.234 -0.3965  0.7651  1.2320
26297SOL    HW279470   2.469   9.062   4.237  0.2820  1.5225 -1.3895
26298SOL     OW79471   6.632   6.575   7.395 -0.5059  0.2607 -0.5397
26298SOL    HW179472   6.548   6.551   7.433  0.4447 -1.3246  0.6895
26298SOL    HW279473   6.640   6.522   7.316  0.1091 -1.0127  0.3455
26299SOL     OW79474   3.660   2.814   1.594  0.0255  0.2875 -0.0960
26299SOL    HW179475   3.735   2.791   1.538  1.0785  0.1506  1.3009
26299SOL    HW279476   3.666   2.909   1.604 -0.0127  0.2827 -0.0269
26300SOL     OW79477   4.739   6.024   2.362 -0.3479  0.1846  0.7084
26300SOL    HW179478   4.665   6.052   2.307  0.2675 -0.7372 -0.6340
26300SOL    HW279479   4.799   5.981   2.301  0.1279 -1.3586  2.1978
26301SOL     OW79480   9.909   2.824   0.578 -0.2266  0.5830 -0.5370
26301SOL    HW179481   9.971   2.759   0.545 -0.8281 -0.3331  0.0718
26301SOL    HW279482   9.959   2.905   0.581  1.1342 -0.2432  0.4781
26302SOL     OW79483   9.709   7.623   5.895 -0.3365  0.0581 -0.3209
26302SOL    HW179484   9.771   7.583   5.833  0.1306 -1.3114  0.9687
26302SOL    HW279485   9.634   7.649   5.841  0.5094 -0.0934 -1.6110
26303SOL     OW79486   6.593   7.542   2.498 -0.4753  0.4381  0.1374
26303SOL    HW179487   6.687   7.533   2.483 -0.2504  1.5026  0.8223
26303SOL    HW279488   6.559   7.582   2.419 -0.0402  1.7449  0.5853
26304SOL     OW79489   3.688   7.052   5.633  0.3511  0.5885 -0.2889
26304SOL    HW179490   3.744   7.129   5.624  0.7360  0.3045 -0.3497
26304SOL    HW279491   3.749   6.979   5.638 -0.0198  0.2639 -0.4680
26305SOL     OW79492   5.598   8.986   7.804 -0.5192 -0.1663  0.0875
26305SOL    HW179493   5.686   8.962   7.778 -1.0045 -1.2366 -0.6141
26305SOL    HW279494   5.589   8.953   7.893 -1.2063 -2.8119 -0.8810
26306SOL     OW79495   8.923   6.652   6.764  0.0220  0.8783  0.0771
26306SOL    HW179496   8.865   6.666   6.839  0.2581 -0.5403  0.5548
26306SOL    HW279497   9.007   6.690   6.791 -0.0042  0.7273  0.3809
26307SOL     OW79498   1.904   3.773   1.437 -0.3389  0.3703 -0.3788
26307SOL    HW179499   1.932   3.730   1.518  1.3311 -0.2503 -1.2207
26307SOL    HW279500   1.905   3.866   1.457  1.4817  0.3158 -0.0547
26308SOL     OW79501   3.247   4.884   3.172 -0.1562  0.0462  0.4740
26308SOL    HW179502   3.290   4.908   3.254  0.3676  0.4394  0.0910
26308SOL    HW279503   3.280   4.947   3.108  0.3123 -0.9504 -0.2877
26309SOL     OW79504   4.296   1.361   3.737 -0.0100  0.1946 -0.0933
26309SOL    HW179505   4.211   1.396   3.711 -0.6404  0.9191  2.7118
26309SOL    HW279506   4.359   1.428   3.711 -0.6516  1.0589  0.5646
26310SOL     OW79507   9.332   2.026   2.071  0.8642 -0.3618 -0.9655
26310SOL    HW179508   9.293   2.091   2.013  0.9848 -1.1776 -2.0031
26310SOL    HW279509   9.423   2.055   2.082  0.8145 -0.1454 -1.1121
26311SOL     OW79510   0.503   4.808   9.158  1.0588  0.1991 -0.5159
26311SOL    HW179511   0.473   4.742   9.220  0.4534  0.8071 -0.1384
26311SOL    HW279512   0.538   4.878   9.214  1.3175  0.3728 -0.8937
26312SOL     OW79513   7.155   9.336   1.915 -0.1980 -0.1637  0.3552
26312SOL    HW179514   7.087   9.343   1.982 -0.1006  0.1510  0.4190
26312SOL    HW279515   7.208   9.262   1.944 -1.3555 -1.3507 -0.4490
26313SOL     OW79516   3.827   5.346   9.127 -0.1096 -0.1939 -0.4394
26313SOL    HW179517   3.916   5.375   9.110  0.1293 -0.9374 -0.4878
26313SOL    HW279518   3.822   5.258   9.089 -0.4995 -0.6483  0.6121
26314SOL     OW79519   4.932   6.298   2.428 -0.1664 -0.0328 -0.0720
26314SOL    HW179520   4.956   6.206   2.441 -1.5171 -0.6682 -1.7469
26314SOL    HW279521   5.010   6.337   2.389  0.7313 -0.2206  1.4554
26315SOL     OW79522   5.359   1.991   7.256 -0.3622 -0.3979  0.2205
26315SOL    HW179523   5.445   1.951   7.242  0.3825  0.9923  0.6835
26315SOL    HW279524   5.373   2.054   7.327 -1.4399  0.8769 -0.6611
26316SOL     OW79525   8.985   6.770   9.837  0.3552  0.3819 -0.0324
26316SOL    HW179526   8.943   6.855   9.841  0.0866  0.2319  0.4858
26316SOL    HW279527   9.075   6.786   9.868  0.3730  0.5140 -0.1516
26317SOL     OW79528   9.095   3.954   1.367 -0.2282  0.2932  0.0156
26317SOL    HW179529   9.108   4.040   1.325  0.4952 -0.9696 -2.5336
26317SOL    HW279530   9.002   3.953   1.390 -0.7470  1.0039 -1.8575
26318SOL     OW79531   6.845   4.650   8.874  0.0951  0.1561 -0.5224
26318SOL    HW179532   6.896   4.606   8.941  0.8308  0.6777 -0.7283
26318SOL    HW279533   6.807   4.726   8.918  0.0893  0.1693 -0.5499
26319SOL     OW79534   6.607   6.143   5.462 -0.0744  0.1365  0.3302
26319SOL    HW179535   6.611   6.068   5.522  1.5252  0.5057  0.7117
26319SOL    HW279536   6.684   6.135   5.407 -1.2212  0.1299 -1.3459
26320SOL     OW79537   0.361   2.526   3.568  0.3702  0.3498  0.8341
26320SOL    HW179538   0.373   2.508   3.662 -0.3625 -0.4980  0.7782
26320SOL    HW279539   0.269   2.505   3.551  0.3451  1.0590  0.0416
26321SOL     OW79540   9.681   3.124   5.996  0.2202  0.1347  0.3597
26321SOL    HW179541   9.684   3.156   5.906  0.9317 -0.6494  0.0928
26321SOL    HW279542   9.704   3.200   6.050 -0.0001  0.5538 -0.1307
26322SOL     OW79543   3.954   4.150   2.738  0.0540  0.3416  0.1111
26322SOL    HW179544   3.928   4.169   2.828 -1.8749 -2.1368  0.1858
26322SOL    HW279545   3.893   4.202   2.685  0.4038  0.8850  0.2386
26323SOL     OW79546   6.685   0.633   0.271  0.1183 -0.4656 -0.2472
26323SOL    HW179547   6.780   0.629   0.268  0.1980 -0.1020  0.9426
26323SOL    HW279548   6.666   0.713   0.320 -0.7546 -1.3671  0.9705
26324SOL     OW79549   5.423   2.325   3.740 -0.7062 -0.1995  0.3214
26324SOL    HW179550   5.510   2.319   3.702 -1.2446  0.2830 -1.0608
26324SOL    HW279551   5.398   2.234   3.758  0.7002 -0.2447  2.2684
26325SOL     OW79552   4.419   6.934   3.563  0.1108 -0.2605 -0.3099
26325SOL    HW179553   4.422   6.951   3.657  0.4511  1.7807 -0.6542
26325SOL    HW279554   4.479   6.861   3.550 -0.8219 -1.3581  1.1840
26326SOL     OW79555   6.106   4.738   1.342  0.0741 -0.1144  0.0150
26326SOL    HW179556   6.097   4.830   1.368 -0.6019 -0.8329  2.5602
26326SOL    HW279557   6.016   4.708   1.330  0.2056 -0.8257  0.7303
26327SOL     OW79558   5.578   6.259   0.722  0.9385  0.0552  0.0436
26327SOL    HW179559   5.652   6.198   0.722 -1.6207 -3.3307  0.2930
26327SOL    HW279560   5.568   6.285   0.813  0.3674 -1.5377  0.4764
26328SOL     OW79561   1.266   3.049   5.369  0.1788  0.2565 -0.2696
26328SOL    HW179562   1.361   3.039   5.363  0.0076 -2.0751 -0.3304
26328SOL    HW279563   1.245   3.023   5.459 -0.5366 -1.4827 -0.8804
26329SOL     OW79564   6.632   0.647   4.386 -0.0963  0.0371 -0.4217
26329SOL    HW179565   6.715   0.659   4.433 -0.5886 -0.9950  0.7641
26329SOL    HW279566   6.583   0.727   4.404 -0.3673 -0.4341  1.0554
26330SOL     OW79567   3.115   3.978   1.712  0.2601 -0.0900  0.3125
26330SOL    HW179568   3.080   3.944   1.795 -1.2295  0.0091 -0.2421
26330SOL    HW279569   3.139   4.069   1.731 -0.2600 -0.0074  0.5889
26331SOL     OW79570   5.353   8.646   9.867  0.3841  0.4077  0.2210
26331SOL    HW179571   5.373   8.719   9.925  2.2908 -1.1404  1.6585
26331SOL    HW279572   5.344   8.571   9.925 -1.7188 -0.5302 -1.1785
26332SOL     OW79573   6.738   3.595   2.822 -0.0434 -0.3898  0.0886
26332SOL    HW179574   6.824   3.582   2.783  1.5472  4.3713  1.2830
26332SOL    HW279575   6.680   3.608   2.747  0.8793 -0.8166 -0.7203
26333SOL     OW79576   1.958   8.230   5.878 -0.9433  0.1664 -0.0612
26333SOL    HW179577   1.886   8.292   5.891  0.0557  1.0203  1.7773
26333SOL    HW279578   1.970   8.189   5.963 -0.4307 -1.3001 -0.8172
26334SOL     OW79579   4.057   0.734   9.745 -0.7335  0.5227  0.6841
26334SOL    HW179580   4.091   0.790   9.815  2.9616 -1.5300  0.7761
26334SOL    HW279581   4.098   0.768   9.665 -0.1263 -0.7151  0.4478
26335SOL     OW79582   8.786   4.090   4.074 -0.1779 -0.6075  0.1734
26335SOL    HW179583   8.852   4.145   4.030  1.7952 -3.5858 -0.9187
26335SOL    HW279584   8.718   4.077   4.008  0.5345 -1.3582 -0.4379
26336SOL     OW79585   0.015   9.147   9.598  0.4064 -0.3619 -0.1319
26336SOL    HW179586   0.008   9.062   9.642 -0.7020  0.2591  0.9291
26336SOL    HW279587   0.087   9.191   9.643 -1.4371  0.7196  1.9461
26337SOL     OW79588   1.972   9.858   8.484  0.0521 -0.1270  0.1750
26337SOL    HW179589   1.898   9.918   8.476  0.6802  0.6555  0.0702
26337SOL    HW279590   2.025   9.875   8.406  0.6280 -0.2650  0.5311
26338SOL     OW79591   0.075   4.107   2.887  0.2322  0.1635 -0.6826
26338SOL    HW179592   0.098   4.161   2.963 -1.0695 -1.8578  1.2812
26338SOL    HW279593   0.154   4.053   2.872  0.1754 -0.0689 -0.1611
26339SOL     OW79594   6.674   9.277   7.787  0.6656  0.3234  0.1528
26339SOL    HW179595   6.730   9.210   7.748 -1.6892 -1.8396  0.2836
26339SOL    HW279596   6.606   9.293   7.722 -2.3086 -2.0605  2.4054
26340SOL     OW79597   3.275   1.158   7.897  0.2100  0.2184  0.3243
26340SOL    HW179598   3.188   1.136   7.864  0.6650  0.0862 -0.8367
26340SOL    HW279599   3.331   1.155   7.820  0.8964  2.2182  0.6920
26341SOL     OW79600   3.070   8.706   8.180  0.1883  0.3760 -0.0915
26341SOL    HW179601   3.115   8.627   8.151  1.8815  1.3394 -0.2206
26341SOL    HW279602   3.135   8.776   8.169 -1.5094  1.9285 -0.7568
26342SOL     OW79603   0.890   4.844   9.544  0.4778  0.5117 -0.1857
26342SOL    HW179604   0.975   4.875   9.511  0.6792  1.9399  1.4868
26342SOL    HW279605   0.912   4.795   9.623 -0.2553  1.7309  0.8242
26343SOL     OW79606   8.055   8.492   9.685 -0.5289 -0.0016  0.0286
26343SOL    HW179607   8.035   8.555   9.754  0.4088  0.5011 -0.1433
26343SOL    HW279608   8.031   8.536   9.604  0.6971  0.3893 -0.1368
26344SOL     OW79609   0.698   5.937   2.063  0.2031 -0.5385 -0.1921
26344SOL    HW179610   0.731   6.021   2.031  0.5993 -0.2660  0.8770
26344SOL    HW279611   0.767   5.874   2.043  0.6895 -0.2683  0.5891
26345SOL     OW79612   1.291   4.417   9.545 -0.2604 -0.3509  0.7479
26345SOL    HW179613   1.330   4.471   9.476 -0.9462 -0.5439  0.1927
26345SOL    HW279614   1.359   4.411   9.612 -0.2849  1.4833  0.9920
26346SOL     OW79615   8.781   6.729   5.541  0.3495  0.2086 -0.2898
26346SOL    HW179616   8.874   6.711   5.529  0.0163 -0.8819 -1.5339
26346SOL    HW279617   8.777   6.822   5.564  1.8138 -0.0393  1.1416
26347SOL     OW79618   6.181   1.608   3.272  0.2320 -0.7153  0.4161
26347SOL    HW179619   6.206   1.686   3.223  1.7082 -2.3146 -1.5665
26347SOL    HW279620   6.087   1.617   3.286  0.4579  1.6431  0.7486
26348SOL     OW79621   3.402   8.391   7.864  0.5068  0.3082  0.0997
26348SOL    HW179622   3.492   8.381   7.832  0.7221  0.2836  0.6913
26348SOL    HW279623   3.412   8.399   7.959 -0.1195  0.2911  0.1680
26349SOL     OW79624   7.805   3.099   8.143  0.6309  0.7381  0.0185
26349SOL    HW179625   7.751   3.178   8.149  1.0440  1.0130  0.2210
26349SOL    HW279626   7.890   3.126   8.178  0.3279 -0.2319  1.5833
26350SOL     OW79627   3.184   8.070   2.344  0.1795 -0.0860  0.1023
26350SOL    HW179628   3.188   8.080   2.439  1.3809  1.6065 -0.0890
26350SOL    HW279629   3.101   8.110   2.318 -0.2427 -0.7309  0.4471
26351SOL     OW79630   0.380   8.627   5.570  0.5113 -0.3747  0.0260
26351SOL    HW179631   0.390   8.623   5.475  2.1503 -0.9117  0.1964
26351SOL    HW279632   0.383   8.536   5.599 -2.5230 -0.4531  0.4227
26352SOL     OW79633   9.612   9.268   1.769 -0.2151 -0.3560 -0.0846
26352SOL    HW179634   9.584   9.198   1.828 -0.2381  0.3290  0.7480
26352SOL    HW279635   9.642   9.223   1.690 -1.2833 -1.2378 -0.0121
26353SOL     OW79636   6.670   5.301   0.645  0.7369  0.5831 -0.2411
26353SOL    HW179637   6.628   5.306   0.731 -1.0940  0.0067 -1.0514
26353SOL    HW279638   6.651   5.385   0.604  0.9259  0.5543 -0.3892
26354SOL     OW79639   1.274   4.104   2.675  0.1914  0.1209 -0.1699
26354SOL    HW179640   1.269   4.013   2.648 -3.8508  0.5377 -1.6507
26354SOL    HW279641   1.293   4.152   2.594 -0.0550  0.7209  0.1195
26355SOL     OW79642   5.509   8.120   9.781  0.3780 -0.1483  0.2097
26355SOL    HW179643   5.569   8.195   9.780  0.2258 -0.0241  0.3846
26355SOL    HW279644   5.533   8.072   9.860 -2.1156  1.8244  2.3272
26356SOL     OW79645   3.369   7.779   3.435 -0.0032 -0.4883  0.2976
26356SOL    HW179646   3.329   7.847   3.489 -0.2951 -0.5769  0.1932
26356SOL    HW279647   3.295   7.731   3.398  0.1332  0.5209 -1.4232
26357SOL     OW79648   2.880   2.173   7.456  0.6557 -0.3530 -0.7284
26357SOL    HW179649   2.929   2.123   7.521  1.0635  0.9638  0.0231
26357SOL    HW279650   2.808   2.212   7.505  0.6522  0.2240 -1.1809
26358SOL     OW79651   5.332   5.073   9.385 -0.2546 -0.3334  0.1169
26358SOL    HW179652   5.280   5.032   9.455 -1.1692 -0.2266 -0.4733
26358SOL    HW279653   5.398   5.124   9.431 -1.3326  0.3879  0.9300
26359SOL     OW79654   3.014   4.063   3.292 -0.5113 -0.2047  0.0064
26359SOL    HW179655   3.089   4.025   3.338  1.0599  0.0309 -2.2262
26359SOL    HW279656   2.950   3.991   3.288 -0.5948 -0.3258  2.1824
26360SOL     OW79657   9.842   0.705   1.049 -0.7032  0.2515 -0.9483
26360SOL    HW179658   9.895   0.756   1.110 -0.8411 -1.7253  0.9294
26360SOL    HW279659   9.892   0.706   0.967  0.5253  1.2632 -0.2089
26361SOL     OW79660   8.625   5.667   7.821 -0.1997 -0.8232 -0.0536
26361SOL    HW179661   8.556   5.702   7.764  0.3764 -1.3298 -1.0797
26361SOL    HW279662   8.612   5.572   7.818 -0.1722 -0.8519  0.6817
26362SOL     OW79663   1.981   3.638   2.150  0.3260  0.0416 -0.3861
26362SOL    HW179664   1.910   3.615   2.209 -0.1044  0.6090 -0.6794
26362SOL    HW279665   2.039   3.562   2.151 -0.2921 -0.4276 -0.1611
26363SOL     OW79666   3.963   4.259   6.966 -0.2267 -0.3570 -0.2646
26363SOL    HW179667   3.976   4.171   6.930 -1.4453 -0.0449 -1.5301
26363SOL    HW279668   3.899   4.248   7.035 -1.2346 -0.3188 -1.1744
26364SOL     OW79669   3.044   8.896   1.150 -0.9845 -0.3159 -0.3010
26364SOL    HW179670   3.082   8.984   1.153  0.1999 -0.7275 -1.7431
26364SOL    HW279671   2.964   8.906   1.098 -1.1105 -0.0075 -0.0471
26365SOL     OW79672   2.304   7.782   9.611  0.1404  0.3325 -0.0519
26365SOL    HW179673   2.268   7.802   9.698  1.2632 -1.1294  0.7953
26365SOL    HW279674   2.307   7.686   9.608  3.2711  0.3358 -0.2816
26366SOL     OW79675   0.214   6.622   2.740 -0.4214 -0.1669  0.3278
26366SOL    HW179676   0.309   6.622   2.729 -0.2095 -2.0834  1.6587
26366SOL    HW279677   0.201   6.648   2.832 -1.2104  0.4174  0.0608
26367SOL     OW79678   8.990   3.456   0.592 -0.6871  0.5245  0.0829
26367SOL    HW179679   9.066   3.399   0.584  0.4445  2.0435 -0.6598
26367SOL    HW279680   8.980   3.495   0.505 -1.9278  0.8390  0.3403
26368SOL     OW79681   7.907   9.769   2.691 -0.0234  0.4481 -0.0071
26368SOL    HW179682   7.915   9.814   2.775 -2.6614 -0.8787  1.0921
26368SOL    HW279683   7.930   9.835   2.626  1.2611  1.7680  1.7162
26369SOL     OW79684   5.379   7.957   9.151 -0.2603  0.5064  0.2345
26369SOL    HW179685   5.315   7.926   9.087 -2.2819 -1.0523  2.8109
26369SOL    HW279686   5.432   7.880   9.171 -0.1456  0.7727  0.9820
26370SOL     OW79687   9.365   5.162   8.346 -0.3592 -0.4418 -0.0288
26370SOL    HW179688   9.439   5.208   8.306  0.0017 -0.5906  0.4575
26370SOL    HW279689   9.304   5.231   8.372 -0.1912 -0.2916 -0.0372
26371SOL     OW79690   2.324   6.313   9.940  0.4674  0.0086  0.5134
26371SOL    HW179691   2.418   6.306   9.925  0.4695  0.6279  0.2053
26371SOL    HW279692   2.313   6.294  10.033  1.1689  2.0264  1.0751
26372SOL     OW79693   0.896   2.379   9.248  0.3141 -0.0634  0.2172
26372SOL    HW179694   0.816   2.339   9.282 -0.4596  0.8032 -0.4977
26372SOL    HW279695   0.904   2.345   9.159  1.7633 -1.5393  0.8636
26373SOL     OW79696   0.894   9.744   8.298 -0.0979 -0.3749  0.3606
26373SOL    HW179697   0.987   9.755   8.317 -0.2419 -0.0549  0.9171
26373SOL    HW279698   0.860   9.833   8.290 -0.7808 -0.3814  2.4279
26374SOL     OW79699   7.315   6.638   8.706 -0.0260 -0.5299  0.0614
26374SOL    HW179700   7.387   6.645   8.768 -1.0335  0.7693  1.1486
26374SOL    HW279701   7.239   6.673   8.753 -0.6753  1.3188 -2.1721
26375SOL     OW79702   7.080   4.893   5.749  0.2420 -0.2567  0.2467
26375SOL    HW179703   7.156   4.836   5.757 -0.5715 -1.2598  1.0917
26375SOL    HW279704   7.045   4.899   5.838 -0.5610  0.3412 -0.0972
26376SOL     OW79705   7.998   1.212   4.604  0.1423  0.0021  0.6517
26376SOL    HW179706   7.984   1.289   4.550  1.3437 -0.6937 -0.7192
26376SOL    HW279707   8.008   1.140   4.542  1.5194 -0.8415  1.7821
26377SOL     OW79708   8.006   8.161   8.095  0.3352 -0.3510 -0.0503
26377SOL    HW179709   7.983   8.154   8.188 -3.7877  0.5124 -0.8273
26377SOL    HW279710   8.025   8.071   8.068 -0.1907 -0.8785  1.2485
26378SOL     OW79711   1.835   1.411   6.075 -0.2004  0.8441 -0.0267
26378SOL    HW179712   1.919   1.409   6.120  0.1205  1.1702 -0.5923
26378SOL    HW279713   1.857   1.428   5.983 -0.6394 -2.1503 -0.8116
26379SOL     OW79714   5.887   2.167   8.955  0.2755 -0.8841 -0.8747
26379SOL    HW179715   5.887   2.118   9.037  0.5087 -0.3929 -0.5757
26379SOL    HW279716   5.795   2.190   8.941  0.1518 -1.4936 -1.0705
26380SOL     OW79717   9.096   6.917   1.143 -0.3109  0.2866  0.2008
26380SOL    HW179718   9.158   6.845   1.154  0.2942  0.7962  0.1972
26380SOL    HW279719   9.060   6.905   1.055 -1.1154 -0.6933  0.6488
26381SOL     OW79720   1.085   8.144   7.675  0.5152 -0.1270 -0.1743
26381SOL    HW179721   1.025   8.201   7.722 -0.8744 -1.4960 -0.2217
26381SOL    HW279722   1.093   8.184   7.588 -0.7494 -0.1958 -0.3376
26382SOL     OW79723   8.588   1.880   3.158  0.6004 -0.3382  0.3284
26382SOL    HW179724   8.513   1.825   3.133  0.5072 -0.4642  0.8841
26382SOL    HW279725   8.612   1.925   3.077  1.3579 -2.0073 -0.4292
26383SOL     OW79726   7.674   0.394   4.160  0.0486  0.1960 -0.0842
26383SOL    HW179727   7.589   0.411   4.119  0.6883  1.8917 -0.7617
26383SOL    HW279728   7.727   0.354   4.091  0.2828  0.5482 -0.1073
26384SOL     OW79729   1.025   8.634   4.844  0.0687  1.0284  0.4701
26384SOL    HW179730   1.073   8.706   4.804 -1.0099  2.2521  1.3087
26384SOL    HW279731   0.972   8.598   4.773  2.0396 -0.2638 -0.4379
26385SOL     OW79732   8.123   9.851   0.977 -0.0458  0.0996  0.0277
26385SOL    HW179733   8.185   9.843   1.050 -0.0376  2.2601  0.3258
26385SOL    HW279734   8.105   9.760   0.950  0.9443 -0.6922  1.8613
26386SOL     OW79735   2.765   2.563   1.793 -0.3718  0.4406 -0.1376
26386SOL    HW179736   2.754   2.657   1.780 -0.7597  0.2688 -1.1523
26386SOL    HW279737   2.849   2.543   1.751 -0.4714  0.2729 -0.2588
26387SOL     OW79738   0.903   0.713   6.515 -0.2411  0.1766 -0.7512
26387SOL    HW179739   0.918   0.783   6.451  0.8632 -0.5644 -1.3359
26387SOL    HW279740   0.942   0.636   6.475 -1.5934 -0.8354 -0.1952
26388SOL     OW79741   8.772   5.198   3.365 -0.0821 -0.0517  0.3645
26388SOL    HW179742   8.768   5.288   3.333 -1.9776  0.3979  1.6821
26388SOL    HW279743   8.843   5.158   3.315  1.7378  2.5299  0.6696
26389SOL     OW79744   5.433   1.062   3.974  0.1568 -0.4138  0.6372
26389SOL    HW179745   5.394   0.985   4.016  1.5157 -1.3263  0.2681
26389SOL    HW279746   5.524   1.038   3.957  0.5950  1.2371  0.4031
26390SOL     OW79747   5.406   4.752   1.800 -0.2665 -0.1542  0.2052
26390SOL    HW179748   5.437   4.720   1.715 -1.2433  1.5635 -0.8701
26390SOL    HW279749   5.355   4.680   1.836 -0.0673 -0.8181 -0.7942
26391SOL     OW79750   5.181   5.958   6.825 -0.1306  0.2358  0.2132
26391SOL    HW179751   5.125   6.026   6.863 -0.8175  0.8411 -1.7703
26391SOL    HW279752   5.230   6.003   6.757 -1.0467 -1.3418 -1.5682
26392SOL     OW79753   5.491   8.001   5.744 -0.0121  0.0969  0.6199
26392SOL    HW179754   5.529   7.993   5.657  2.6751 -0.3647  1.7029
26392SOL    HW279755   5.445   8.084   5.743 -2.2919 -1.0580 -1.9359
26393SOL     OW79756   1.563   4.054   9.569  0.1716  0.2701  0.2125
26393SOL    HW179757   1.609   4.108   9.505 -0.3073  1.4666  0.8505
26393SOL    HW279758   1.619   3.977   9.579  0.3624  0.1513 -1.4616
26394SOL     OW79759   2.008   7.614   1.187  0.3202 -0.6185 -0.3620
26394SOL    HW179760   1.932   7.669   1.207  1.1745  0.3419  0.4012
26394SOL    HW279761   2.079   7.653   1.238  1.5480 -0.9002 -1.7735
26395SOL     OW79762   4.837   1.396   8.595  0.6173  0.0895 -0.1808
26395SOL    HW179763   4.916   1.408   8.543  1.7382 -1.9590  0.9267
26395SOL    HW279764   4.780   1.341   8.540  0.9578 -0.3836 -0.0707
26396SOL     OW79765   0.126   0.601   4.269 -0.0177 -0.2653  0.4788
26396SOL    HW179766   0.218   0.573   4.266 -0.2950 -1.2268  0.8008
26396SOL    HW279767   0.130   0.694   4.247  0.9444 -0.4864 -0.3818
26397SOL     OW79768   0.739   6.563   2.098 -0.0134 -0.0488  0.5040
26397SOL    HW179769   0.735   6.545   2.004  0.0612  0.3872  0.4155
26397SOL    HW279770   0.688   6.642   2.110  1.1583  0.7229  0.6121
26398SOL     OW79771   8.078   3.461   9.194 -0.1685  0.2817  0.3035
26398SOL    HW179772   8.107   3.406   9.267  0.2345  0.7617  0.5059
26398SOL    HW279773   8.036   3.536   9.236 -0.0334  0.5062  0.0413
26399SOL     OW79774   1.431   4.988   8.596 -0.2442  0.1609  0.4580
26399SOL    HW179775   1.414   4.905   8.640  0.9393 -1.0959 -1.2763
26399SOL    HW279776   1.347   5.033   8.595 -1.6279 -2.2431 -0.9118
26400SOL     OW79777   4.993   7.241   8.826  0.2336 -0.4472 -0.6409
26400SOL    HW179778   4.938   7.266   8.751 -0.9531  1.3856  0.7433
26400SOL    HW279779   5.053   7.175   8.791 -0.9758 -0.4383 -2.9253
26401SOL     OW79780   3.656   8.162   9.843  0.4008 -0.3928  0.0621
26401SOL    HW179781   3.736   8.196   9.803  0.8499  0.3871  1.5428
26401SOL    HW279782   3.662   8.189   9.935 -0.3717 -2.4706  0.7805
26402SOL     OW79783   3.156   9.975   8.727 -0.2370 -0.4776  0.5282
26402SOL    HW179784   3.101   9.976   8.649 -0.4530 -0.4926  0.6806
26402SOL    HW279785   3.245   9.976   8.693 -0.3268 -0.9435  0.2738
26403SOL     OW79786   1.273   1.769   9.044  1.1085  0.2918 -0.3301
26403SOL    HW179787   1.181   1.746   9.054  0.9585  0.2695 -1.5568
26403SOL    HW279788   1.279   1.804   8.955  2.1526  0.9675 -0.0166
26404SOL     OW79789   4.586   7.068   5.976 -0.3962  0.1957 -0.2206
26404SOL    HW179790   4.532   7.040   6.050  0.4986  0.2001  0.4579
26404SOL    HW279791   4.567   7.004   5.907 -1.5507  0.4326 -0.1418
26405SOL     OW79792   7.604   4.126   7.708  0.2518 -0.0474 -0.4319
26405SOL    HW179793   7.559   4.058   7.759  1.4540  0.0505  0.8259
26405SOL    HW279794   7.693   4.128   7.744  0.8911  0.6546 -1.9683
26406SOL     OW79795   3.565   6.921   5.435 -0.3581  0.1848 -0.2874
26406SOL    HW179796   3.490   6.889   5.485 -0.6305  0.1657 -0.7021
26406SOL    HW279797   3.618   6.969   5.499  1.1991 -2.8682  0.8919
26407SOL     OW79798   7.055   4.654   2.849 -0.4172  0.2105  0.0470
26407SOL    HW179799   7.007   4.673   2.930  1.0710  0.0600  0.9974
26407SOL    HW279800   7.026   4.567   2.824  0.5204 -0.5682  1.5278
26408SOL     OW79801   2.992   9.272   2.967 -0.0497 -0.4079  0.2957
26408SOL    HW179802   2.966   9.361   2.989  2.0772  0.3516 -0.0837
26408SOL    HW279803   3.031   9.238   3.048 -0.0433 -0.6896  0.1747
26409SOL     OW79804   0.762   8.887   2.455 -0.0470 -0.4077 -0.0614
26409SOL    HW179805   0.851   8.893   2.490  0.8300 -3.8052 -1.2895
26409SOL    HW279806   0.762   8.945   2.380  1.3126 -0.6585 -0.2824
26410SOL     OW79807   3.848   0.378   0.545 -0.1499 -0.1602  0.1122
26410SOL    HW179808   3.758   0.402   0.527  0.2390  1.3639  0.0781
26410SOL    HW279809   3.878   0.335   0.464 -0.9797 -1.1744  0.3230
26411SOL     OW79810   5.208   5.702   4.283 -0.2416 -0.1807  0.0516
26411SOL    HW179811   5.198   5.729   4.374  1.2350  2.6007 -0.5341
26411SOL    HW279812   5.293   5.735   4.256 -1.6009  1.2271 -3.0175
26412SOL     OW79813   5.322   1.485   2.013  0.3203  0.3025  0.0588
26412SOL    HW179814   5.278   1.568   2.027  0.2474  0.4331 -0.8403
26412SOL    HW279815   5.323   1.474   1.917  1.2957 -0.1994  0.1051
26413SOL     OW79816   5.642   3.653   3.207  0.3847 -0.8640 -0.1787
26413SOL    HW179817   5.710   3.675   3.270  1.1333 -0.7676 -0.9928
26413SOL    HW279818   5.690   3.621   3.131 -0.4906 -0.8975 -0.7299
26414SOL     OW79819   3.207   8.610   2.141 -0.1749  0.5321  0.9155
26414SOL    HW179820   3.226   8.593   2.234  1.0612  1.8190  0.9340
26414SOL    HW279821   3.289   8.589   2.096  0.0276  2.1685  0.4359
26415SOL     OW79822   2.391   3.976   6.313  0.2138 -0.6167  0.4805
26415SOL    HW179823   2.443   4.056   6.299 -0.1902 -0.3304  0.6025
26415SOL    HW279824   2.449   3.905   6.284  0.2893 -0.2249 -0.3564
26416SOL     OW79825   5.364   5.827   3.807  0.4338 -0.3551 -0.1830
26416SOL    HW179826   5.400   5.865   3.887  1.0285 -1.1238 -0.0692
26416SOL    HW279827   5.431   5.766   3.777 -0.2619 -0.9181 -0.6471
26417SOL     OW79828   8.381   0.997   4.721 -0.3750  0.2788 -0.0765
26417SOL    HW179829   8.334   0.937   4.663 -0.3360  0.2597 -0.0884
26417SOL    HW279830   8.469   0.960   4.728 -1.1251 -1.3092  2.2161
26418SOL     OW79831   8.426   1.574   1.243  0.0809 -0.3262  0.4059
26418SOL    HW179832   8.446   1.661   1.276 -2.0731  0.8792 -1.1328
26418SOL    HW279833   8.507   1.544   1.202  0.0705  2.4806 -2.0184
26419SOL     OW79834   6.525   4.545   5.788  0.4752 -0.6240 -0.0956
26419SOL    HW179835   6.483   4.541   5.702  0.1657 -0.7628  0.0595
26419SOL    HW279836   6.603   4.599   5.774 -0.1951  0.3524 -0.2077
26420SOL     OW79837   5.395   4.639   9.329  0.4164  0.1056  0.0767
26420SOL    HW179838   5.471   4.660   9.273 -0.7291 -1.2162 -2.1051
26420SOL    HW279839   5.324   4.693   9.294 -0.7057 -1.8595 -0.8255
26421SOL     OW79840   4.223   6.742   6.821  0.3643 -0.3097 -0.2831
26421SOL    HW179841   4.299   6.799   6.825  1.2700 -1.5046  0.3592
26421SOL    HW279842   4.259   6.653   6.823 -1.0659 -0.9441  1.8348
26422SOL     OW79843   5.143   5.427   3.215 -0.1376 -0.6095 -0.1739
26422SOL    HW179844   5.171   5.499   3.158 -0.3387 -1.2265 -1.0500
26422SOL    HW279845   5.223   5.400   3.260 -0.1546  0.5204  0.5972
26423SOL     OW79846   2.395   7.231   1.748 -0.4122 -0.0551  0.4103
26423SOL    HW179847   2.411   7.325   1.759 -0.5903  0.0038  0.1571
26423SOL    HW279848   2.424   7.212   1.659 -0.7996 -0.1542  0.3056
26424SOL     OW79849   3.299   9.916   4.058  0.1827 -0.0610 -0.4535
26424SOL    HW179850   3.233   9.979   4.087 -1.4643 -1.5311 -0.7853
26424SOL    HW279851   3.248   9.840   4.030  2.0785 -1.6615  0.2035
26425SOL     OW79852   2.124   5.270   0.999  0.1226 -0.7492 -0.0830
26425SOL    HW179853   2.174   5.191   1.020 -0.9916 -1.7387 -0.9765
26425SOL    HW279854   2.073   5.288   1.077  2.5409  0.8795  1.2321
26426SOL     OW79855   8.206   0.867   2.228 -0.2733 -1.1201 -0.3741
26426SOL    HW179856   8.113   0.885   2.215  0.2431  2.8724  0.4504
26426SOL    HW279857   8.246   0.884   2.142 -0.0178 -0.2338 -0.0875
26427SOL     OW79858   7.404   4.392   6.984  0.3413  0.5087 -0.3210
26427SOL    HW179859   7.352   4.344   6.921  0.8032  0.0181 -0.3383
26427SOL    HW279860   7.438   4.326   7.044 -0.9685  1.0828  1.1079
26428SOL     OW79861   7.983   8.073   8.372  0.0964  0.3373 -0.7996
26428SOL    HW179862   7.940   8.059   8.457 -1.5254 -0.2147 -1.6751
26428SOL    HW279863   8.030   8.156   8.382  0.3090  0.0560  0.7753
26429SOL     OW79864   4.941   9.841   7.635 -0.3009 -0.9717 -0.4375
26429SOL    HW179865   4.855   9.819   7.670  0.7165 -4.0249  0.3712
26429SOL    HW279866   4.939   9.811   7.544 -0.1891 -0.7285 -0.5223
26430SOL     OW79867   4.284   0.302   6.795  0.3178  0.4055 -0.0620
26430SOL    HW179868   4.330   0.353   6.728 -1.2568  0.6963 -0.9808
26430SOL    HW279869   4.220   0.363   6.832  0.8040  0.0908  1.3612
26431SOL     OW79870   3.519   7.249   8.778  0.0015  0.0547 -0.4064
26431SOL    HW179871   3.434   7.219   8.743  0.6198 -0.7714 -1.2480
26431SOL    HW279872   3.583   7.188   8.741  0.8289 -0.2474  1.3991
26432SOL     OW79873   2.824   8.709   8.279 -0.4381  0.2251  0.0475
26432SOL    HW179874   2.913   8.707   8.243 -1.0364 -2.6373 -1.5656
26432SOL    HW279875   2.837   8.714   8.374  1.5348 -1.0738 -0.0862
26433SOL     OW79876   9.823   0.159   0.143 -0.2257  0.4998  0.3515
26433SOL    HW179877   9.737   0.150   0.184  0.4242 -0.2288  1.6040
26433SOL    HW279878   9.804   0.182   0.052 -1.7045  2.4863  1.1088
26434SOL     OW79879   8.957   8.398   6.751  0.2650  0.2448  0.8527
26434SOL    HW179880   8.961   8.389   6.655 -0.5142  1.1947  0.7190
26434SOL    HW279881   8.982   8.312   6.784 -0.3578 -0.3720 -0.2230
26435SOL     OW79882   4.874   1.115   4.246 -0.1350  0.2161 -0.2509
26435SOL    HW179883   4.874   1.111   4.151  0.3240 -0.8099 -0.2231
26435SOL    HW279884   4.859   1.025   4.274 -2.4108  0.8055  0.6656
26436SOL     OW79885   1.083   6.856   2.431 -0.2349  0.4232  0.2604
26436SOL    HW179886   1.043   6.776   2.463  1.6894 -1.1643 -1.0550
26436SOL    HW279887   1.024   6.887   2.362  0.2360 -1.3837 -1.0418
26437SOL     OW79888   7.935   3.572   4.839 -1.0527  0.2899  0.2775
26437SOL    HW179889   7.933   3.545   4.931 -0.1662  0.3578  0.3284
26437SOL    HW279890   7.912   3.664   4.840 -2.7002 -0.0850  0.2478
26438SOL     OW79891   8.904   0.849   7.753 -0.1057  0.7140  0.7378
26438SOL    HW179892   8.956   0.911   7.702  0.3336 -0.3321 -0.1019
26438SOL    HW279893   8.886   0.777   7.693 -1.8780  0.6828  1.2360
26439SOL     OW79894   7.712   2.374   7.299 -0.3162 -0.4292 -0.8385
26439SOL    HW179895   7.800   2.400   7.273  0.5498 -0.5839  1.6981
26439SOL    HW279896   7.654   2.431   7.248  1.2255 -0.0840 -2.2969
26440SOL     OW79897   1.574   1.611   2.002  0.2777 -0.0598 -0.4815
26440SOL    HW179898   1.565   1.537   1.942  0.4060 -0.4036 -0.0849
26440SOL    HW279899   1.502   1.670   1.978 -1.6825 -1.6480  1.0575
26441SOL     OW79900   4.669   3.303   7.320  0.2004  0.0764  0.3780
26441SOL    HW179901   4.710   3.269   7.399 -0.0058  0.0179  0.4603
26441SOL    HW279902   4.715   3.385   7.302  0.7014 -0.2381  0.1795
26442SOL     OW79903   5.364   1.691   1.637 -0.2679  0.2613 -0.3862
26442SOL    HW179904   5.372   1.596   1.638 -3.1722 -0.1423 -2.6483
26442SOL    HW279905   5.451   1.722   1.612  1.1697 -1.6116  1.9001
26443SOL     OW79906   2.301   0.219   9.905 -0.0989  0.1281  0.1232
26443SOL    HW179907   2.391   0.190   9.888  0.3727  1.2043  0.7301
26443SOL    HW279908   2.292   0.300   9.855 -0.7909 -0.0587 -0.0634
26444SOL     OW79909   3.847   3.779   9.784 -0.1443  0.0714 -0.2386
26444SOL    HW179910   3.759   3.785   9.822  0.4999  1.0654  1.2258
26444SOL    HW279911   3.889   3.707   9.831  1.0010  1.9573  1.8376
26445SOL     OW79912   5.392   5.598   6.689 -0.6025  0.1542 -0.1644
26445SOL    HW179913   5.421   5.506   6.684  0.8028  0.6375 -3.4045
26445SOL    HW279914   5.445   5.636   6.759 -0.8488 -1.3542  0.8949
26446SOL     OW79915   3.585   3.320   4.281  0.2913 -0.3264 -0.5322
26446SOL    HW179916   3.585   3.261   4.206  0.2462 -0.6414 -0.2907
26446SOL    HW279917   3.528   3.276   4.345  0.4172 -0.1152 -0.2762
26447SOL     OW79918   5.404   7.064   8.795 -0.4154 -0.0926  0.2601
26447SOL    HW179919   5.487   7.029   8.828 -1.6457 -0.6522  3.0464
26447SOL    HW279920   5.426   7.150   8.761  1.3088 -0.2190  0.9439
26448SOL     OW79921   3.756   1.432   5.618 -0.3616  0.0604 -0.2333
26448SOL    HW179922   3.805   1.459   5.540  0.2566  0.8072  0.3966
26448SOL    HW279923   3.672   1.476   5.611  0.1316  1.0925  0.0949
26449SOL     OW79924   3.447   9.608   5.280  0.0049  0.1172 -0.1769
26449SOL    HW179925   3.374   9.587   5.338  2.0005  1.4970  3.1407
26449SOL    HW279926   3.410   9.668   5.216 -1.8958  0.4312  1.1262
26450SOL     OW79927   8.831   2.200   9.430  0.5169 -0.3293 -0.0752
26450SOL    HW179928   8.767   2.238   9.370  0.0069  1.3731  1.4811
26450SOL    HW279929   8.788   2.121   9.463 -1.7367  1.7084  2.3456
26451SOL     OW79930   4.543   1.001   9.827  0.0216  0.7268 -0.2800
26451SOL    HW179931   4.512   1.060   9.897 -1.2313  3.2006 -2.7330
26451SOL    HW279932   4.490   0.922   9.837 -0.8732  1.4414  0.9063
26452SOL     OW79933   0.390   7.133   4.258  0.2723  0.0162 -0.2506
26452SOL    HW179934   0.450   7.059   4.255 -1.2626 -1.2924  0.1292
26452SOL    HW279935   0.322   7.112   4.194 -1.5998 -0.2260  1.6936
26453SOL     OW79936   5.159   3.151   5.147 -0.2865  0.3822 -0.7463
26453SOL    HW179937   5.115   3.071   5.175 -1.5040  0.4609 -2.3151
26453SOL    HW279938   5.252   3.134   5.161 -0.5711 -1.1109 -0.5800
26454SOL     OW79939   1.315   6.136   6.446 -0.1495 -0.3150 -0.1974
26454SOL    HW179940   1.329   6.184   6.365  0.6183 -1.4759 -0.7694
26454SOL    HW279941   1.299   6.204   6.512  3.7333  0.9586 -0.3658
26455SOL     OW79942   7.671   6.021   1.843 -0.3947 -0.1761  0.0593
26455SOL    HW179943   7.717   5.948   1.800  1.0992 -0.2643  1.6864
26455SOL    HW279944   7.686   6.006   1.936  0.8299  2.7375  0.4288
26456SOL     OW79945   9.875   2.268   6.172  0.0003  0.6386  0.8287
26456SOL    HW179946   9.824   2.325   6.115 -0.0629 -0.8737 -0.7010
26456SOL    HW279947   9.966   2.291   6.154 -0.0443  0.7594  0.7611
26457SOL     OW79948   8.190   7.235   1.648  0.1744  0.1600  0.0241
26457SOL    HW179949   8.270   7.183   1.651  0.9092  1.2847  1.6023
26457SOL    HW279950   8.138   7.196   1.578  1.5617 -1.3762 -0.2048
26458SOL     OW79951   5.996   2.048   5.400  0.7918  0.4616  0.6596
26458SOL    HW179952   5.976   2.128   5.352  0.7979 -0.4506 -0.9161
26458SOL    HW279953   6.062   2.003   5.347  0.1202 -1.0328  1.0296
26459SOL     OW79954   9.145   0.404   5.612 -0.1646 -0.5157  0.5129
26459SOL    HW179955   9.124   0.484   5.661  1.0750 -0.9751  1.8540
26459SOL    HW279956   9.064   0.383   5.566 -0.3878  1.7727 -0.2832
26460SOL     OW79957   7.287   9.303   3.395  0.0094 -0.1857 -0.0960
26460SOL    HW179958   7.307   9.331   3.485 -2.0691  0.6089  0.1727
26460SOL    HW279959   7.196   9.275   3.399  0.1685 -1.0536 -1.7885
26461SOL     OW79960   2.330   3.045   9.422  0.0474  0.2188 -0.1769
26461SOL    HW179961   2.351   2.962   9.465  3.1607  0.2017 -1.4256
26461SOL    HW279962   2.388   3.109   9.464  1.9017  0.5314 -2.9131
26462SOL     OW79963   1.454   4.015   7.169 -0.6680  0.3368 -0.0341
26462SOL    HW179964   1.436   3.922   7.153 -3.1836  0.6537  0.5663
26462SOL    HW279965   1.525   4.014   7.234  0.7761 -1.0780 -1.5390
26463SOL     OW79966   1.570   1.991   4.137  0.0800 -0.3640  0.2875
26463SOL    HW179967   1.487   1.972   4.181 -1.0209  1.7120 -0.7259
26463SOL    HW279968   1.558   2.079   4.101  0.5791 -1.9894 -4.6466
26464SOL     OW79969   7.348   2.529   9.034  0.3680  0.6007 -0.8441
26464SOL    HW179970   7.325   2.546   8.943  1.7347 -0.4846 -1.4213
26464SOL    HW279971   7.443   2.523   9.035  0.3650  0.2867  0.5979
26465SOL     OW79972   1.367   2.547   7.348  1.2860  0.1880 -0.4086
26465SOL    HW179973   1.353   2.615   7.415 -2.1442  1.6177 -2.3165
26465SOL    HW279974   1.426   2.588   7.285 -1.2603  1.8911 -1.8810
26466SOL     OW79975   5.164   2.031   9.969  0.3738 -0.0919 -0.0438
26466SOL    HW179976   5.142   2.003   9.880 -3.7859  0.3599  0.6628
26466SOL    HW279977   5.174   1.949  10.017 -2.2597 -0.4907 -0.0090
26467SOL     OW79978   0.918   2.006   8.344 -0.0815  0.2354  0.7504
26467SOL    HW179979   0.959   1.942   8.286  0.1373  0.3674  0.7616
26467SOL    HW279980   0.905   1.959   8.426  0.6335  0.3876  0.9519
26468SOL     OW79981   0.819   1.662   9.154  0.1968  0.2362  0.2688
26468SOL    HW179982   0.856   1.597   9.213  1.9390  2.1145  1.3635
26468SOL    HW279983   0.747   1.616   9.110  0.0020 -1.7862  2.4909
26469SOL     OW79984   2.261   5.373   3.641 -0.1628 -0.3912  0.2404
26469SOL    HW179985   2.211   5.296   3.669  2.7980 -2.7150 -0.3084
26469SOL    HW279986   2.292   5.351   3.553 -0.9051  2.3977 -0.8096
26470SOL     OW79987   8.117   9.914   8.627  0.1613 -0.2107 -0.4423
26470SOL    HW179988   8.047   9.903   8.562 -0.6862 -0.9875  0.5799
26470SOL    HW279989   8.187   9.958   8.578 -0.1553 -1.4345 -2.1051
26471SOL     OW79990   2.528   7.930   0.551  0.8834  0.2289 -0.6573
26471SOL    HW179991   2.500   7.989   0.480  2.3072  3.4718  1.2235
26471SOL    HW279992   2.599   7.879   0.512 -0.3170 -0.2540 -2.3427
26472SOL     OW79993   3.787   8.915   8.371 -0.4554  0.3687 -0.0512
26472SOL    HW179994   3.853   8.858   8.330  0.3905  1.4878 -0.2875
26472SOL    HW279995   3.810   8.916   8.464 -1.7180 -1.2891  0.3350
26473SOL     OW79996   6.373   7.154   1.222 -0.2667  0.3208 -0.0464
26473SOL    HW179997   6.338   7.205   1.295  0.3535  2.9247 -1.4239
26473SOL    HW279998   6.468   7.161   1.231 -0.1726 -0.2252 -0.5288
26474SOL     OW79999   0.763   8.789   4.287 -0.6457  0.4868  0.7457
26474SOL    HW180000   0.715   8.866   4.256 -1.7227 -1.0278 -1.6965
26474SOL    HW280001   0.709   8.754   4.358 -0.1980  1.9019  1.8013
26475SOL     OW80002   7.969   3.715   5.864 -0.5717  0.5216  0.7707
26475SOL    HW180003   7.937   3.625   5.870  1.1888 -0.5536 -2.8331
26475SOL    HW280004   7.895   3.766   5.831 -0.4947 -0.5744 -1.2410
26476SOL     OW80005   9.182   1.702   8.449  0.2545 -0.1320 -0.3816
26476SOL    HW180006   9.270   1.731   8.425 -0.0603  0.6720 -0.6322
26476SOL    HW280007   9.156   1.643   8.379 -0.5794  2.0446 -2.0404
26477SOL     OW80008   4.811   1.599   3.783  0.9702 -0.8602  0.4917
26477SOL    HW180009   4.789   1.648   3.862 -1.1280 -0.9863  0.0451
26477SOL    HW280010   4.906   1.610   3.773  0.8429  1.5214  1.4268
26478SOL     OW80011   0.363   7.806   5.120 -0.4751 -0.0802 -0.1602
26478SOL    HW180012   0.403   7.811   5.207 -0.7629 -2.0111  0.1276
26478SOL    HW280013   0.427   7.846   5.062  1.0813 -1.4058  0.5466
26479SOL     OW80014   4.215   5.584   0.795 -0.1115  0.3138  0.1089
26479SOL    HW180015   4.143   5.539   0.751 -0.8882 -1.1841  2.6999
26479SOL    HW280016   4.186   5.675   0.799 -1.3063 -0.0379  0.0216
26480SOL     OW80017   3.835   7.758   6.724 -0.3522  0.5129 -0.3814
26480SOL    HW180018   3.917   7.757   6.773 -0.2208  2.0755 -0.5197
26480SOL    HW280019   3.783   7.687   6.762  0.0513  1.1728  1.5002
26481SOL     OW80020   0.415   5.219   5.183 -0.0992 -0.1848  0.0006
26481SOL    HW180021   0.506   5.236   5.157 -0.2074  0.0687 -0.2126
26481SOL    HW280022   0.418   5.132   5.222  0.1087 -0.4930 -0.6782
26482SOL     OW80023   5.428   6.686   6.221 -0.4562  0.6993 -0.0213
26482SOL    HW180024   5.437   6.593   6.240 -0.8026  0.3097 -1.5918
26482SOL    HW280025   5.379   6.721   6.296  0.4007 -0.1952  0.9851
26483SOL     OW80026   2.972   6.149   0.354 -0.4449  0.4650 -0.0497
26483SOL    HW180027   2.916   6.220   0.384 -1.7267 -1.0114  1.2510
26483SOL    HW280028   2.928   6.116   0.275 -0.4000  0.4950 -0.0869
26484SOL     OW80029   4.654   4.717   7.425 -0.3783  0.3458  0.1972
26484SOL    HW180030   4.726   4.762   7.381  0.8031 -0.8214  0.8733
26484SOL    HW280031   4.609   4.786   7.474  0.8001  0.9565  0.4478
26485SOL     OW80032   5.540   5.333   6.481  0.4828  0.3528  0.5111
26485SOL    HW180033   5.621   5.338   6.430  0.4783  0.8992  0.5558
26485SOL    HW280034   5.567   5.356   6.570  0.7772 -1.9905  1.0946
26486SOL     OW80035   4.926   3.264   8.395  0.0306  0.2320  0.6902
26486SOL    HW180036   5.019   3.278   8.413  0.2364 -1.5128  1.1501
26486SOL    HW280037   4.913   3.170   8.408 -1.7528  0.4076  0.3997
26487SOL     OW80038   6.385   1.446   4.887  0.2122 -0.5897  0.4745
26487SOL    HW180039   6.355   1.534   4.864 -0.6443 -1.0151 -0.0847
26487SOL    HW280040   6.477   1.458   4.910  0.3969  0.2860 -0.6230
26488SOL     OW80041   2.591   6.304   7.435  0.0728  0.5105  0.4534
26488SOL    HW180042   2.625   6.219   7.404  0.4475  0.5196  0.8345
26488SOL    HW280043   2.496   6.291   7.441  0.1464  0.0624  0.6768
26489SOL     OW80044   2.997   2.033   6.257 -0.2804 -0.2531  0.4363
26489SOL    HW180045   2.977   2.050   6.165 -1.1704 -2.6923  0.1064
26489SOL    HW280046   2.913   2.039   6.301  0.2530  1.6542  1.2782
26490SOL     OW80047   1.818   2.813   7.750 -0.5813  0.3252 -0.1342
26490SOL    HW180048   1.834   2.729   7.706  0.2982 -0.8385  2.2544
26490SOL    HW280049   1.766   2.790   7.827 -2.4124  2.3497 -0.6845
26491SOL     OW80050   1.216   6.411   6.597  0.1174  0.1972  0.4806
26491SOL    HW180051   1.155   6.393   6.526 -1.0054 -0.1154  1.4839
26491SOL    HW280052   1.241   6.503   6.584 -2.1466  0.9927  1.1371
26492SOL     OW80053   6.275   0.492   8.907 -0.1619  0.1127 -0.1001
26492SOL    HW180054   6.217   0.416   8.904  1.3392 -1.0448 -1.7260
26492SOL    HW280055   6.363   0.455   8.898  0.8195  1.8721  1.6055
26493SOL     OW80056   0.614   3.826   5.375  0.1155 -0.4380 -0.4970
26493SOL    HW180057   0.607   3.918   5.349 -0.8368 -0.0077  1.1890
26493SOL    HW280058   0.690   3.822   5.432 -1.2152 -0.1737  1.3811
26494SOL     OW80059   7.811   1.976   8.322 -0.3455  0.4399  1.1418
26494SOL    HW180060   7.817   1.910   8.391 -1.1731 -0.3458  0.4787
26494SOL    HW280061   7.718   1.981   8.300 -0.1121  0.7298  0.1425
26495SOL     OW80062   0.984   9.346   1.993 -0.2543 -0.2648 -0.4907
26495SOL    HW180063   1.025   9.268   2.030 -0.1452  0.2444  0.4985
26495SOL    HW280064   0.892   9.339   2.017  0.0144  0.6179  0.9016
26496SOL     OW80065   3.927   7.388   5.157  0.0559 -0.4445 -0.3710
26496SOL    HW180066   3.889   7.309   5.196 -1.6149 -0.1467 -1.2732
26496SOL    HW280067   3.852   7.447   5.145  0.8331  0.2744 -2.0495
26497SOL     OW80068   6.915   0.553   4.018 -0.2638 -0.2528  0.3538
26497SOL    HW180069   6.871   0.527   4.098  1.3850 -0.8663  1.1051
26497SOL    HW280070   6.962   0.474   3.990 -0.2629  0.1492 -0.8488
26498SOL     OW80071   5.106   1.405   9.943  0.6711 -0.0925 -0.0136
26498SOL    HW180072   5.088   1.491   9.906  1.4094 -0.1912 -0.6306
26498SOL    HW280073   5.144   1.355   9.870 -0.2029 -1.0944  0.1905
26499SOL     OW80074   5.717   5.059   2.073  0.2700 -0.7810  0.0075
26499SOL    HW180075   5.622   5.066   2.086  0.3134 -1.7734  1.0821
26499SOL    HW280076   5.752   5.141   2.106 -0.1731 -0.6439  0.1463
26500SOL     OW80077   9.361   6.259   4.051 -0.0733  0.0318  0.2972
26500SOL    HW180078   9.342   6.346   4.015  0.6540  0.9376  2.0000
26500SOL    HW280079   9.376   6.204   3.974  1.0656  1.7916 -0.7947
26501SOL     OW80080   0.357   7.116   5.893  0.0127 -0.1352 -0.7326
26501SOL    HW180081   0.364   7.022   5.911 -0.4354 -0.3217 -1.4918
26501SOL    HW280082   0.297   7.122   5.819 -0.3284  0.7894 -0.3932
26502SOL     OW80083   7.237   8.629   9.204  0.1802 -0.0540  0.1931
26502SOL    HW180084   7.142   8.622   9.208  0.3262 -3.0836  1.3848
26502SOL    HW280085   7.254   8.718   9.175 -2.9643  1.2552  1.9273
26503SOL     OW80086   6.817   9.362   2.580 -0.5760  0.0147  0.3492
26503SOL    HW180087   6.890   9.422   2.565 -0.8711  0.5936  1.1770
26503SOL    HW280088   6.801   9.366   2.674 -2.2434  0.5695  0.0703
26504SOL     OW80089   4.831   7.384   6.279  0.1293  0.5018  0.0232
26504SOL    HW180090   4.902   7.340   6.325 -0.1282  1.4018  1.3581
26504SOL    HW280091   4.864   7.473   6.264  0.0058  0.3716 -1.1004
26505SOL     OW80092   2.250   9.869   3.596  0.0242 -0.1565  0.2289
26505SOL    HW180093   2.235   9.787   3.644  1.1852 -0.1139  0.7005
26505SOL    HW280094   2.300   9.842   3.519 -1.0417 -0.0961 -0.5134
26506SOL     OW80095   8.156   1.483   6.973  0.2958 -0.2974  0.3484
26506SOL    HW180096   8.225   1.421   6.997 -0.5868 -1.0280  1.0537
26506SOL    HW280097   8.087   1.429   6.935  0.2294  0.4623 -0.6656
26507SOL     OW80098   4.925   3.442   7.916 -0.0353 -0.2758  0.0154
26507SOL    HW180099   4.961   3.455   8.003  1.5197 -1.1340 -0.4632
26507SOL    HW280100   4.988   3.483   7.857  0.3591 -2.0630 -0.8685
26508SOL     OW80101   0.321   4.743   5.741 -0.4566 -0.2390 -0.3287
26508SOL    HW180102   0.332   4.820   5.685 -0.3644 -0.1623 -0.2068
26508SOL    HW280103   0.246   4.696   5.705 -0.9702  0.2892  0.0308
26509SOL     OW80104   1.077   5.330   2.491 -0.2166  0.3476 -0.3018
26509SOL    HW180105   1.017   5.260   2.469  0.2725 -0.2667  0.2644
26509SOL    HW280106   1.138   5.290   2.553  2.8344 -0.0576 -3.2663
26510SOL     OW80107   7.196   4.017   4.140 -0.1827  0.0417  0.3328
26510SOL    HW180108   7.259   4.053   4.078  0.2611  2.4025  2.0043
26510SOL    HW280109   7.130   3.974   4.085  1.5825 -0.3969 -1.5804
26511SOL     OW80110   2.201   1.002   3.044  0.4984 -0.5069 -0.4124
26511SOL    HW180111   2.147   0.945   2.989 -0.2162 -0.1708 -0.0705
26511SOL    HW280112   2.189   0.968   3.133 -0.0002  0.2211 -0.1936
26512SOL     OW80113   5.848   0.727   3.219 -0.7846  0.0453 -0.0831
26512SOL    HW180114   5.850   0.632   3.207  0.5783 -0.0955  0.9272
26512SOL    HW280115   5.878   0.762   3.135 -2.2147 -0.3507 -0.7842
26513SOL     OW80116   6.150   1.839   6.381 -0.1426  0.0279  0.5084
26513SOL    HW180117   6.062   1.814   6.354  0.2777 -0.1732 -0.7454
26513SOL    HW280118   6.143   1.855   6.475 -1.0696 -1.9449  0.8181
26514SOL     OW80119   9.073   8.094   5.462  0.1163 -0.0538  0.3358
26514SOL    HW180120   9.039   8.045   5.536  0.7541 -1.9185 -0.5582
26514SOL    HW280121   9.000   8.100   5.400  0.9422 -3.2063 -1.1555
26515SOL     OW80122   8.647   9.810   0.126  0.1076  0.7027 -0.4245
26515SOL    HW180123   8.661   9.726   0.081  2.4601 -0.1850  1.7683
26515SOL    HW280124   8.711   9.869   0.086  1.2889  0.2721  0.7667
26516SOL     OW80125   8.506   2.697   1.516  0.4478 -0.1844  0.7449
26516SOL    HW180126   8.485   2.694   1.422  1.4344  1.9418  0.3864
26516SOL    HW280127   8.575   2.763   1.522 -1.2160  1.4805  3.2352
26517SOL     OW80128   3.629   0.471   5.707 -0.0150 -0.1568 -0.3667
26517SOL    HW180129   3.573   0.525   5.650 -0.1501  0.0662 -0.0252
26517SOL    HW280130   3.587   0.386   5.708  0.1995 -0.2776 -0.9129
26518SOL     OW80131   0.841   7.292   2.469 -0.4981  0.3814 -0.4871
26518SOL    HW180132   0.829   7.348   2.546  1.1483  0.1903 -0.0528
26518SOL    HW280133   0.885   7.349   2.405  0.4781 -0.1684 -0.3278
26519SOL     OW80134   7.820   4.400   1.192 -0.1492 -0.1959  0.1469
26519SOL    HW180135   7.786   4.348   1.120 -0.8212 -0.7952  0.8784
26519SOL    HW280136   7.754   4.393   1.261  0.3720  0.5374  0.7490
26520SOL     OW80137   3.959   8.249   4.564  0.3045 -0.1713 -0.1284
26520SOL    HW180138   4.023   8.238   4.635  0.8063 -1.2044 -0.7254
26520SOL    HW280139   3.945   8.344   4.560  2.5393  0.2192 -0.5851
26521SOL     OW80140   0.789   0.912   0.952  0.1992  0.5481  0.4377
26521SOL    HW180141   0.834   0.995   0.935  2.1279 -0.7420 -1.4281
26521SOL    HW280142   0.838   0.848   0.899 -1.2996 -1.7496  1.6727
26522SOL     OW80143   4.338   8.234   0.142 -0.7305 -0.4259  0.3871
26522SOL    HW180144   4.322   8.251   0.049 -0.1720 -0.6877  0.2369
26522SOL    HW280145   4.397   8.305   0.169  1.3302 -1.8448 -0.1561
26523SOL     OW80146   7.750   0.640   6.738 -0.1914  0.5434  0.0951
26523SOL    HW180147   7.743   0.695   6.659 -1.4404  0.4547  0.1135
26523SOL    HW280148   7.832   0.593   6.727  1.2358  2.8322  0.3720
26524SOL     OW80149   1.112   3.222   2.075 -0.3418 -0.2875 -0.2913
26524SOL    HW180150   1.117   3.147   2.016  0.6237  1.3072 -2.3654
26524SOL    HW280151   1.186   3.210   2.135 -0.1920 -0.9710 -0.6008
26525SOL     OW80152   3.830   7.295   2.307 -0.6727 -0.0285 -0.0765
26525SOL    HW180153   3.895   7.359   2.337 -2.2332  0.5594  2.3300
26525SOL    HW280154   3.865   7.211   2.335 -0.0353  0.0690 -0.5593
26526SOL     OW80155   0.226   1.088   3.954 -0.3726 -0.1409 -0.0583
26526SOL    HW180156   0.313   1.075   3.990 -0.9023  0.2871  1.4647
26526SOL    HW280157   0.203   1.003   3.915  1.1818  0.1053 -1.6294
26527SOL     OW80158   3.146   4.171   4.216  0.0729  0.7512 -0.6949
26527SOL    HW180159   3.053   4.160   4.237  0.4251 -0.7490  0.2598
26527SOL    HW280160   3.176   4.241   4.275 -0.2663  0.6504 -0.4045
26528SOL     OW80161   3.120   1.037   1.945 -0.4370 -0.3274  0.4740
26528SOL    HW180162   3.160   1.025   1.859 -1.2388 -0.9643  0.1821
26528SOL    HW280163   3.109   1.132   1.952  0.0159 -0.2367  0.0576
26529SOL     OW80164   0.763   7.071   2.349  0.4142  0.1732 -0.1261
26529SOL    HW180165   0.778   7.159   2.384  1.3005 -0.7664  1.9553
26529SOL    HW280166   0.823   7.065   2.274 -0.4637  1.6959 -1.0089
26530SOL     OW80167   3.315   2.818   4.061  0.0781  0.1232 -0.4352
26530SOL    HW180168   3.310   2.913   4.051 -0.6708  0.0685 -0.6444
26530SOL    HW280169   3.359   2.789   3.981  0.5216  0.3079 -0.2640
26531SOL     OW80170   9.868   3.952   7.313 -0.4426 -0.0715 -0.6353
26531SOL    HW180171   9.858   3.938   7.407 -3.7568  0.7250 -0.7463
26531SOL    HW280172   9.871   3.863   7.276 -0.4745 -0.3860  0.0994
26532SOL     OW80173   3.329   8.588   5.509  0.5319  0.0066  0.2403
26532SOL    HW180174   3.289   8.607   5.594 -0.4759  0.8504 -0.3960
26532SOL    HW280175   3.363   8.499   5.518 -1.6277 -0.8401  0.8080
26533SOL     OW80176   6.799   9.455   0.445  0.3541  0.2706 -0.4805
26533SOL    HW180177   6.802   9.364   0.473 -1.0171  0.2339 -0.3922
26533SOL    HW280178   6.793   9.505   0.527  0.1466  0.3860 -0.5667
26534SOL     OW80179   2.722   7.731   2.102  0.5299 -0.7182 -0.5214
26534SOL    HW180180   2.697   7.815   2.140 -0.4980  0.5649 -3.7006
26534SOL    HW280181   2.792   7.699   2.159 -0.5392  1.1678  2.0621
26535SOL     OW80182   1.464   8.769   1.550  0.0439 -0.0552 -0.0267
26535SOL    HW180183   1.400   8.791   1.483 -1.2034  1.3452  1.5471
26535SOL    HW280184   1.546   8.808   1.519 -0.5788  0.8023 -0.6313
26536SOL     OW80185   8.449   7.398   7.372  0.0788  0.7386  0.2254
26536SOL    HW180186   8.537   7.367   7.351 -0.0156  1.2188 -0.9901
26536SOL    HW280187   8.450   7.409   7.467  1.6142  1.5448  0.1622
26537SOL     OW80188   7.763   5.944   6.001  0.4834 -0.3941  0.1388
26537SOL    HW180189   7.697   5.882   5.970 -1.2997  1.2281  0.4280
26537SOL    HW280190   7.839   5.929   5.945 -1.0541 -0.6016 -2.0134
26538SOL     OW80191   6.820   4.355   8.477 -0.2670  0.4599 -0.2947
26538SOL    HW180192   6.848   4.417   8.544  0.1118  1.0755 -1.0018
26538SOL    HW280193   6.876   4.375   8.402 -0.8617 -0.0348 -0.8786
26539SOL     OW80194   0.197   1.525   7.776 -0.6548 -0.5070  0.1790
26539SOL    HW180195   0.166   1.539   7.866 -0.5833 -1.5344  0.3782
26539SOL    HW280196   0.211   1.613   7.742 -0.4284 -0.1007  1.2662
26540SOL     OW80197   9.594   6.939   5.280  0.3506  0.2458  0.7070
26540SOL    HW180198   9.500   6.953   5.267  0.2852 -0.2568  0.6250
26540SOL    HW280199   9.600   6.855   5.326  0.7968 -0.2686 -0.2438
26541SOL     OW80200   8.960   0.162   0.505  1.2603  0.3327  0.0693
26541SOL    HW180201   9.021   0.114   0.450  1.8000  0.0285  0.9159
26541SOL    HW280202   9.014   0.227   0.550  0.5948  1.5341 -0.8054
26542SOL     OW80203   6.304   7.411   7.951 -0.1589 -0.1173 -0.1406
26542SOL    HW180204   6.270   7.325   7.974 -1.0644 -0.8901 -3.6749
26542SOL    HW280205   6.382   7.392   7.898  0.0361  1.2347 -0.3828
26543SOL     OW80206   2.637   7.865   5.348 -0.1497  0.0240  0.3268
26543SOL    HW180207   2.640   7.811   5.269  2.8038  0.5002  0.0044
26543SOL    HW280208   2.651   7.954   5.317 -1.2982  0.5247  1.1968
26544SOL     OW80209   1.576   7.462   0.722  0.6565  0.3121 -0.0822
26544SOL    HW180210   1.622   7.383   0.692 -0.8917 -0.9961  0.8835
26544SOL    HW280211   1.491   7.431   0.751  1.0826  1.8379  3.2408
26545SOL     OW80212   6.384   5.032   8.991  0.1711 -0.2888  0.4451
26545SOL    HW180213   6.343   4.986   9.064 -0.2751  1.8226  1.5923
26545SOL    HW280214   6.462   5.072   9.029  0.7180 -0.3276 -0.5986
26546SOL     OW80215   3.413   8.340   3.095 -0.4177 -0.4946 -0.4411
26546SOL    HW180216   3.445   8.338   3.005 -0.3435  0.5602 -0.4465
26546SOL    HW280217   3.318   8.328   3.087 -0.4132 -0.3879 -0.6556
26547SOL     OW80218   7.906   2.721   0.344  0.2010  0.0448  0.0566
26547SOL    HW180219   7.939   2.810   0.351  1.7972 -0.4819 -0.2318
26547SOL    HW280220   7.862   2.704   0.428 -0.6983  1.2991 -0.1425
26548SOL     OW80221   1.231   5.591   4.133  0.2460  0.3144  0.4278
26548SOL    HW180222   1.320   5.560   4.118  0.2444  0.2278  0.6038
26548SOL    HW280223   1.215   5.652   4.061 -0.8952 -2.4494 -1.8639
26549SOL     OW80224   6.870   0.734   5.479 -0.3047 -0.2733  0.4720
26549SOL    HW180225   6.816   0.797   5.527  0.1471  0.5931 -0.1432
26549SOL    HW280226   6.816   0.655   5.475  0.0342 -0.7552  3.3082
26550SOL     OW80227   4.236   3.018   5.653  0.5458 -0.0467  0.0672
26550SOL    HW180228   4.330   3.028   5.637  0.9426 -1.0687  1.4876
26550SOL    HW280229   4.228   2.930   5.690 -0.8672  0.3169  0.6867
26551SOL     OW80230   8.496   9.631   5.261  0.0796  0.2873 -0.1204
26551SOL    HW180231   8.505   9.567   5.332  0.0884  1.7201  1.2315
26551SOL    HW280232   8.573   9.615   5.205  0.3645 -0.5157  0.4774
26552SOL     OW80233   3.816   1.868   1.435  0.1550  0.2708  0.7307
26552SOL    HW180234   3.778   1.955   1.447  0.5791  0.2586  2.3713
26552SOL    HW280235   3.911   1.883   1.435  0.2469  0.0656 -1.3848
26553SOL     OW80236   2.006   2.567   9.847  0.4627  0.2353  0.7890
26553SOL    HW180237   2.068   2.599   9.782 -1.0749  1.2102 -0.2748
26553SOL    HW280238   1.972   2.486   9.810 -0.0158  0.5075  0.6248
26554SOL     OW80239   8.476   4.243   9.520  0.2184 -1.0065  0.3444
26554SOL    HW180240   8.461   4.148   9.521  1.6064 -1.2692 -0.7416
26554SOL    HW280241   8.497   4.264   9.611 -0.2471 -1.7141  0.6286
26555SOL     OW80242   7.204   0.761   2.577 -0.6179 -0.2726  0.0355
26555SOL    HW180243   7.139   0.690   2.573 -0.1626 -0.7223  0.4545
26555SOL    HW280244   7.195   0.795   2.666  0.2367 -0.8452  0.3574
26556SOL     OW80245   5.505   8.509   7.495 -0.3218 -0.2568 -0.5039
26556SOL    HW180246   5.419   8.546   7.511  0.6288  2.1729 -0.6026
26556SOL    HW280247   5.542   8.492   7.582 -0.1631  0.5509 -0.4111
26557SOL     OW80248   0.845   5.123   8.145 -0.4126 -0.6528  0.2308
26557SOL    HW180249   0.814   5.110   8.235 -2.2293  0.4144 -0.1807
26557SOL    HW280250   0.926   5.173   8.154  0.6702 -2.5263  1.3307
26558SOL     OW80251   8.531   5.759   9.783  0.7073  0.3275  0.8040
26558SOL    HW180252   8.475   5.683   9.785  0.5107  0.4567  0.4221
26558SOL    HW280253   8.619   5.724   9.765  0.3803  0.2907 -0.9618
26559SOL     OW80254   5.856   1.032   5.446  0.2688  0.0231  0.0286
26559SOL    HW180255   5.825   1.019   5.356 -0.3785 -0.2308  0.2847
26559SOL    HW280256   5.864   1.126   5.455 -1.2698  0.1535  0.2269
26560SOL     OW80257   4.889   8.600   0.589  0.0770 -0.0395  0.3683
26560SOL    HW180258   4.813   8.547   0.566 -0.4549  0.7658  0.2023
26560SOL    HW280259   4.962   8.539   0.590 -0.4532 -0.6994 -0.1991
26561SOL     OW80260   9.245   9.304   8.178 -0.1188 -0.0072  0.1211
26561SOL    HW180261   9.313   9.333   8.118 -0.0567  0.1309  0.2578
26561SOL    HW280262   9.163   9.314   8.129 -0.1939  1.2562  0.4675
26562SOL     OW80263   0.859   9.574   0.640 -0.2381 -0.2283 -0.0630
26562SOL    HW180264   0.946   9.614   0.646 -0.1942 -0.0406 -1.6175
26562SOL    HW280265   0.798   9.645   0.660 -0.0668 -0.2781  0.6912
26563SOL     OW80266   8.355   2.485   7.266 -0.0939  0.1835 -0.3196
26563SOL    HW180267   8.418   2.418   7.240 -0.4566  0.2468 -1.4445
26563SOL    HW280268   8.396   2.531   7.339  1.4781  0.6792 -1.4734
26564SOL     OW80269   9.577   0.168   4.247 -0.7203 -0.2437  0.3388
26564SOL    HW180270   9.515   0.150   4.318 -0.1614 -0.7108  0.7178
26564SOL    HW280271   9.533   0.233   4.192 -0.8751  0.6648  1.5052
26565SOL     OW80272   8.035   0.225   6.054  0.0206  0.4636  0.3722
26565SOL    HW180273   8.083   0.188   5.980  0.6284  0.8184  0.5858
26565SOL    HW280274   8.062   0.173   6.129 -0.5529  0.1414  0.3588
26566SOL     OW80275   2.516   8.993   0.928 -0.0142  0.3153 -0.1444
26566SOL    HW180276   2.566   8.955   0.856 -0.3936 -0.7286  0.1312
26566SOL    HW280277   2.511   8.923   0.993 -2.7600 -0.0357 -0.5959
26567SOL     OW80278   5.583   3.426   4.818 -0.1546 -0.2836  0.3755
26567SOL    HW180279   5.539   3.341   4.809 -1.1189  0.0032  1.9815
26567SOL    HW280280   5.570   3.450   4.909 -0.1352  1.7423 -0.1131
26568SOL     OW80281   4.753   3.134   5.475 -0.0214  0.0106 -0.1533
26568SOL    HW180282   4.658   3.121   5.484 -0.0823  1.1962  1.3441
26568SOL    HW280283   4.764   3.229   5.468  1.0520 -0.1116 -0.3112
26569SOL     OW80284   4.674   5.942   3.422  0.0569  0.2375 -0.3747
26569SOL    HW180285   4.685   5.873   3.488  2.2720  0.5972 -0.2925
26569SOL    HW280286   4.726   6.015   3.454  1.0391  0.5059 -2.3828
26570SOL     OW80287   4.501   6.497   1.639 -0.2125  0.0719  0.5511
26570SOL    HW180288   4.511   6.409   1.674  0.5586  0.1408  0.5092
26570SOL    HW280289   4.538   6.554   1.705 -0.6006  0.3638  0.5237
26571SOL     OW80290   7.447   9.239   0.475 -0.1748 -0.5113 -0.6140
26571SOL    HW180291   7.522   9.179   0.482  1.6562  1.5318 -1.2678
26571SOL    HW280292   7.458   9.300   0.548 -0.6301  0.3950 -1.2799
26572SOL     OW80293   4.115   8.636   5.919 -0.2145 -0.2872  0.0784
26572SOL    HW180294   4.098   8.700   5.988  0.5023  1.1698 -1.0386
26572SOL    HW280295   4.185   8.581   5.955 -1.0860 -0.7012  1.1953
26573SOL     OW80296   3.370   8.522   1.532  0.1937 -0.1507  0.0727
26573SOL    HW180297   3.360   8.505   1.438  1.7547  0.1013 -0.1684
26573SOL    HW280298   3.313   8.597   1.548  0.2113  0.0632 -0.7717
26574SOL     OW80299   1.621   5.950   8.931 -0.0203  0.3434  0.2104
26574SOL    HW180300   1.562   5.970   8.858  1.4581  0.9015 -0.8642
26574SOL    HW280301   1.708   5.949   8.893  0.7874  0.4244  1.9380
26575SOL     OW80302   7.963   0.641   7.975  0.0901  0.4671 -0.3722
26575SOL    HW180303   7.955   0.736   7.973  1.3358  0.6021 -0.0163
26575SOL    HW280304   7.873   0.608   7.976 -0.3457  1.6416 -0.3889
26576SOL     OW80305   1.274   6.977   5.652  0.8482 -0.0022  0.0706
26576SOL    HW180306   1.235   6.968   5.566 -1.4134 -3.2403  1.2501
26576SOL    HW280307   1.230   7.053   5.691  0.7563  0.5125 -0.9942
26577SOL     OW80308   7.638   4.093   2.066  0.0695  0.3749 -0.0496
26577SOL    HW180309   7.594   4.135   2.139 -0.0907  0.8802 -0.4300
26577SOL    HW280310   7.729   4.083   2.094 -0.0900  0.1567  0.3891
26578SOL     OW80311   6.573   0.192   1.119  0.0146 -0.3763 -0.2580
26578SOL    HW180312   6.592   0.226   1.206 -0.3224 -0.0633 -0.3046
26578SOL    HW280313   6.652   0.210   1.068  0.6925 -1.6473  0.2892
26579SOL     OW80314   4.377   0.791   4.397 -0.1831  0.5250  0.3542
26579SOL    HW180315   4.473   0.787   4.393 -0.2286 -0.6346  0.0752
26579SOL    HW280316   4.359   0.873   4.443  0.8612  2.5271 -2.4616
26580SOL     OW80317   7.091   6.440   5.985  0.0148 -0.1686  0.1771
26580SOL    HW180318   7.072   6.369   5.925  0.4463 -0.4894  0.4179
26580SOL    HW280319   7.006   6.464   6.023 -0.2655  0.0646 -0.5831
26581SOL     OW80320   0.230   7.770   2.628 -0.1046  0.2435 -0.2186
26581SOL    HW180321   0.226   7.856   2.586 -2.7494  0.3669  0.1098
26581SOL    HW280322   0.173   7.778   2.704 -0.3671 -1.7989 -0.1473
26582SOL     OW80323   7.828   8.173   7.333 -0.0777  0.1331  0.1770
26582SOL    HW180324   7.867   8.229   7.401  0.3813  0.6875 -0.5259
26582SOL    HW280325   7.857   8.085   7.356  1.9514  0.5576 -0.5162
26583SOL     OW80326   8.421   1.761   1.966  0.8992  0.2960  0.0053
26583SOL    HW180327   8.471   1.842   1.970 -0.2727  1.0246  0.5007
26583SOL    HW280328   8.420   1.738   1.873  0.9575  1.0338 -0.1859
26584SOL     OW80329   9.377   8.389   6.684 -0.0321 -0.4158  0.4889
26584SOL    HW180330   9.368   8.364   6.776 -1.1679  0.5320  0.6502
26584SOL    HW280331   9.433   8.467   6.686  1.7644 -1.6369  0.1606
26585SOL     OW80332   3.528   1.401   7.077 -0.2315  0.0741  0.2368
26585SOL    HW180333   3.497   1.382   7.166 -5.2909 -2.0300 -1.5480
26585SOL    HW280334   3.513   1.495   7.066  0.6643  0.4091  1.6098
26586SOL     OW80335   5.802   7.840   5.353  0.3831  0.0255  0.2149
26586SOL    HW180336   5.789   7.822   5.260  2.2357 -3.2398  0.4411
26586SOL    HW280337   5.873   7.904   5.356 -0.0428  0.5482 -0.5906
26587SOL     OW80338   2.371   4.720   7.033  0.3832  0.2082  0.0013
26587SOL    HW180339   2.368   4.790   6.968  0.7900 -0.7643 -1.1086
26587SOL    HW280340   2.290   4.671   7.018  0.0262  0.5155  0.8734
26588SOL     OW80341   9.313   5.725   1.698 -0.1638  0.0130 -0.0842
26588SOL    HW180342   9.336   5.800   1.752  0.1672 -0.4726  0.4598
26588SOL    HW280343   9.368   5.733   1.620  0.0694  0.1817  0.0976
26589SOL     OW80344   0.040   2.718   1.516 -0.0232 -0.7175 -0.2331
26589SOL    HW180345   0.100   2.792   1.523 -0.6715  0.1366 -2.6173
26589SOL    HW280346  -0.035   2.744   1.571 -0.3277  0.5222 -1.1819
26590SOL     OW80347   2.257   5.528   2.478  0.0290 -0.0849 -0.2197
26590SOL    HW180348   2.317   5.552   2.548  0.3025 -0.1515 -0.4300
26590SOL    HW280349   2.192   5.599   2.476 -0.4272 -0.4629  0.6081
26591SOL     OW80350   3.291   8.268   2.005 -0.1477  0.4043  0.6091
26591SOL    HW180351   3.232   8.193   2.009  2.0503 -1.5453 -0.8005
26591SOL    HW280352   3.319   8.271   1.913  1.4264  1.6745  1.0946
26592SOL     OW80353   7.420   3.010   8.372  0.5151 -0.4186  0.0077
26592SOL    HW180354   7.512   3.009   8.400  0.5537 -0.2027 -0.1088
26592SOL    HW280355   7.416   3.080   8.308  0.7156 -1.7651 -1.5321
26593SOL     OW80356   4.586   6.575   1.240  0.0923 -0.3974  0.3612
26593SOL    HW180357   4.567   6.505   1.302 -0.7187  0.9205  1.6567
26593SOL    HW280358   4.677   6.560   1.214  0.1771 -1.4725  1.2112
26594SOL     OW80359   7.626   7.265   6.119  0.2911 -0.0126 -0.0380
26594SOL    HW180360   7.692   7.335   6.126 -0.2356  0.9849 -3.3187
26594SOL    HW280361   7.648   7.204   6.189  2.1353  2.3433  1.5920
26595SOL     OW80362   2.066   1.079   5.217  0.4735  0.5501 -0.7618
26595SOL    HW180363   2.104   1.154   5.171  0.6805  0.2655 -1.0650
26595SOL    HW280364   1.993   1.115   5.267  0.6044  0.9604 -0.8638
26596SOL     OW80365   9.445   8.475   5.763 -0.5876 -0.5428 -0.8737
26596SOL    HW180366   9.391   8.554   5.757 -0.6501 -0.5566 -0.5222
26596SOL    HW280367   9.424   8.438   5.849  0.4242 -0.2309 -0.4752
26597SOL     OW80368   4.930   2.471   2.327  0.0963 -0.1145 -0.4567
26597SOL    HW180369   4.954   2.498   2.415 -0.1298 -0.2381 -0.3542
26597SOL    HW280370   4.858   2.529   2.303 -0.3151 -0.5386 -0.2792
26598SOL     OW80371   5.581   7.811   0.496  0.0009  0.2441  0.1057
26598SOL    HW180372   5.592   7.834   0.589 -1.4302  0.7602  0.1610
26598SOL    HW280373   5.598   7.892   0.449  1.2086 -0.1297 -0.1478
26599SOL     OW80374   3.733   8.237   5.592 -0.1479  0.0026 -0.1375
26599SOL    HW180375   3.718   8.182   5.670  1.4892 -2.3036 -1.3402
26599SOL    HW280376   3.669   8.308   5.602  0.5382  0.3358  3.7180
26600SOL     OW80377   6.965   5.858   3.066 -0.6012 -0.4871  0.0787
26600SOL    HW180378   6.910   5.929   3.034 -1.0117 -1.7296 -2.1844
26600SOL    HW280379   7.054   5.890   3.058 -0.8311  0.2732  0.4560
26601SOL     OW80380   6.508   2.269   7.161  0.4553  0.8590 -0.1288
26601SOL    HW180381   6.502   2.185   7.115 -1.1957  2.1196 -2.4533
26601SOL    HW280382   6.592   2.265   7.208  1.1568 -1.4584 -1.4175
26602SOL     OW80383   5.919   3.143   2.415 -0.1460 -0.2727  0.4388
26602SOL    HW180384   5.836   3.119   2.375  0.3918 -1.4714 -0.0078
26602SOL    HW280385   5.903   3.140   2.509  0.0975 -3.4396  0.4817
26603SOL     OW80386   7.779   2.116   1.086  0.1812 -0.3237 -0.0887
26603SOL    HW180387   7.849   2.165   1.043 -0.5608 -1.6077 -2.9506
26603SOL    HW280388   7.709   2.181   1.099  1.4012  0.6916  1.7427
26604SOL     OW80389   1.252   8.615   7.658  0.2893 -0.5365 -0.7826
26604SOL    HW180390   1.238   8.674   7.733  1.5377  0.4692 -1.2985
26604SOL    HW280391   1.176   8.557   7.659 -0.7522  0.7630  0.0591
26605SOL     OW80392   0.402   9.980   6.024  0.2555  0.5565  0.5506
26605SOL    HW180393   0.475   9.958   6.083  1.3073  0.5355 -0.7289
26605SOL    HW280394   0.348   9.901   6.024 -0.2219  0.8471  2.1180
26606SOL     OW80395   4.096   7.800   6.396  0.1354 -0.0487 -0.2702
26606SOL    HW180396   4.005   7.814   6.369 -0.2901  0.9403  1.4898
26606SOL    HW280397   4.124   7.722   6.347 -2.1624 -1.3116  0.2680
26607SOL     OW80398   7.170   8.155   3.546  0.2084 -0.1777 -0.2428
26607SOL    HW180399   7.146   8.154   3.454 -0.0573 -0.8029 -0.1747
26607SOL    HW280400   7.227   8.231   3.556 -1.1058  0.8742 -0.5715
26608SOL     OW80401   1.491   5.488   4.088 -0.0693 -0.0958  0.4085
26608SOL    HW180402   1.584   5.468   4.080  0.2138  0.4597  2.0089
26608SOL    HW280403   1.457   5.420   4.146 -0.6696 -0.3034 -0.1777
26609SOL     OW80404   3.604   8.398   0.524  0.3336  0.2321  0.3535
26609SOL    HW180405   3.690   8.357   0.537  0.7969 -0.4332 -3.5488
26609SOL    HW280406   3.541   8.331   0.548  0.9926 -0.5473 -0.0402
26610SOL     OW80407   6.234   6.082   9.798  0.2912  0.3883  0.2395
26610SOL    HW180408   6.304   6.066   9.861  0.1325 -0.0681  0.3001
26610SOL    HW280409   6.171   6.012   9.813  0.5187 -0.0532 -0.7964
26611SOL     OW80410   7.995   2.407   7.675 -0.2277  0.2452 -0.5513
26611SOL    HW180411   8.072   2.388   7.622 -0.1144  0.8383 -0.6032
26611SOL    HW280412   8.028   2.459   7.749 -0.5594  0.4035 -0.5125
26612SOL     OW80413   7.128   8.258   3.863  0.3148  0.3737  0.0614
26612SOL    HW180414   7.109   8.173   3.903  2.4282 -0.2042 -0.0786
26612SOL    HW280415   7.108   8.245   3.771  2.8544 -0.7890 -0.4078
26613SOL     OW80416   4.084   8.699   4.552  0.0947 -0.1553  0.2040
26613SOL    HW180417   4.135   8.722   4.630  0.0589  0.8428 -0.0513
26613SOL    HW280418   4.080   8.780   4.502 -0.9161 -0.4774 -0.2546
26614SOL     OW80419   3.549   9.059   1.142  0.4391  0.0231 -0.5631
26614SOL    HW180420   3.526   8.967   1.132  2.0069 -0.7044  1.7094
26614SOL    HW280421   3.469   9.106   1.117 -0.8369 -1.9958 -0.5424
26615SOL     OW80422   7.778   4.023   6.528 -0.5986  0.0549 -0.1129
26615SOL    HW180423   7.815   4.087   6.468  0.6540 -0.3784  0.1770
26615SOL    HW280424   7.745   3.953   6.471 -2.3575  1.1134 -0.4546
26616SOL     OW80425   6.158   9.183   0.062 -0.4318  0.2518 -0.3262
26616SOL    HW180426   6.098   9.222   0.125  0.8782 -0.4839  1.4846
26616SOL    HW280427   6.231   9.245   0.055 -0.8240  0.6091 -1.6333
26617SOL     OW80428   1.244   9.378   1.201 -0.2965  0.2174  0.0984
26617SOL    HW180429   1.154   9.349   1.214  0.9541 -4.2981  0.3747
26617SOL    HW280430   1.276   9.397   1.290  0.1152 -2.4763  0.6190
26618SOL     OW80431   7.799   7.743   7.594 -0.0833  0.8194  0.6172
26618SOL    HW180432   7.784   7.660   7.639 -0.7889  1.5191  1.7299
26618SOL    HW280433   7.740   7.740   7.519  1.1449 -0.3854 -0.3590
26619SOL     OW80434   9.408   9.714   3.417 -0.1943 -0.2713 -0.5009
26619SOL    HW180435   9.322   9.679   3.438  0.3293 -2.1683 -1.2911
26619SOL    HW280436   9.413   9.710   3.321  0.1059  1.5447 -0.5933
26620SOL     OW80437   2.550   6.661   9.464  0.1512 -0.1853  0.4563
26620SOL    HW180438   2.485   6.629   9.526 -0.4271  0.3388  0.1358
26620SOL    HW280439   2.628   6.608   9.480 -0.1213 -0.3207  1.3507
26621SOL     OW80440   7.496   7.766   1.718 -0.4264 -0.5510 -0.0194
26621SOL    HW180441   7.481   7.854   1.753 -0.7659 -1.0460  1.1533
26621SOL    HW280442   7.468   7.771   1.627  1.9417  1.2069 -0.7354
26622SOL     OW80443   9.023   8.955   8.712 -0.0817  0.3793  0.6442
26622SOL    HW180444   9.068   9.033   8.680 -0.0722 -0.1838 -0.7621
26622SOL    HW280445   9.094   8.893   8.731 -0.0716  0.7558  1.9863
26623SOL     OW80446   9.250   9.226   2.392  0.6004 -0.2050  0.1363
26623SOL    HW180447   9.201   9.217   2.310  1.5812 -0.0884 -0.4933
26623SOL    HW280448   9.339   9.246   2.363  0.7885  0.6658  1.2584
26624SOL     OW80449   2.217   0.049   4.905 -0.1725 -0.0671 -0.0652
26624SOL    HW180450   2.181   0.019   4.821 -0.7707  1.4299 -0.3820
26624SOL    HW280451   2.154   0.115   4.935  1.8011  1.9638 -0.1696
26625SOL     OW80452   5.762   8.616   9.274 -0.1322 -0.2352 -0.1443
26625SOL    HW180453   5.770   8.580   9.362  0.8625  1.9171  0.7381
26625SOL    HW280454   5.746   8.541   9.217 -1.7651 -1.5810  1.9665
26626SOL     OW80455   7.583   0.609   0.704 -0.4055  0.5515 -0.2429
26626SOL    HW180456   7.616   0.526   0.670  0.9135  0.9175  0.1063
26626SOL    HW280457   7.505   0.585   0.755  0.2242 -0.5241  0.2350
26627SOL     OW80458   8.709   4.767   7.128  0.2029  0.4061 -0.0847
26627SOL    HW180459   8.781   4.758   7.066  0.1148 -0.3819 -0.0841
26627SOL    HW280460   8.699   4.861   7.140  0.5365  0.5495 -0.8942
26628SOL     OW80461   2.759   3.640   0.897  0.1680 -0.5842 -0.1935
26628SOL    HW180462   2.683   3.591   0.929 -0.0554 -0.1760 -0.0941
26628SOL    HW280463   2.825   3.630   0.965 -0.1974  0.0186  0.2666
26629SOL     OW80464   6.657   3.727   1.302 -0.3067 -0.3234 -0.6645
26629SOL    HW180465   6.627   3.670   1.373  0.4790  0.0068 -0.0390
26629SOL    HW280466   6.752   3.712   1.298  0.1737  1.9186  0.4589
26630SOL     OW80467   1.634   6.793   1.702 -1.2314  0.0645 -0.3878
26630SOL    HW180468   1.647   6.707   1.743  0.3080  0.4736  0.0529
26630SOL    HW280469   1.578   6.775   1.626  1.0659 -1.7963 -1.7862
26631SOL     OW80470   8.778   9.094   6.894  0.5834 -0.1323 -0.5098
26631SOL    HW180471   8.774   9.173   6.841  0.9573  1.2157  1.3748
26631SOL    HW280472   8.861   9.052   6.869  0.1800 -0.1880 -1.8168
26632SOL     OW80473   5.346   5.858   5.063  0.1561  0.1206 -0.3444
26632SOL    HW180474   5.437   5.828   5.069  0.5099  1.3604  1.4389
26632SOL    HW280475   5.307   5.804   4.994  1.8129 -1.5187 -0.0808
26633SOL     OW80476   3.804   7.704   1.018  0.5127  0.3378 -0.1730
26633SOL    HW180477   3.725   7.666   0.978  1.3053 -0.6838 -0.8101
26633SOL    HW280478   3.808   7.792   0.982  1.2123 -0.5527 -2.4570
26634SOL     OW80479   9.213   1.810   4.636 -0.1661  0.1915 -0.0447
26634SOL    HW180480   9.225   1.733   4.580  1.3583 -0.0841  0.6182
26634SOL    HW280481   9.211   1.883   4.574  0.4703 -0.1992 -0.5381
26635SOL     OW80482   2.469   5.927   8.846 -0.3370 -0.2325 -0.2106
26635SOL    HW180483   2.454   5.860   8.912  0.1841 -0.4571 -0.3156
26635SOL    HW280484   2.391   5.983   8.850  0.1417  0.3740  1.3029
26636SOL     OW80485   6.713   1.767   3.845 -0.1570  0.0469  0.0644
26636SOL    HW180486   6.781   1.830   3.821  0.7990 -1.0867 -0.2743
26636SOL    HW280487   6.758   1.683   3.851 -1.3326 -0.5618  0.8851
26637SOL     OW80488   2.444   1.987   6.569  0.3806 -0.4106  0.4752
26637SOL    HW180489   2.516   1.944   6.523  0.1802 -1.2229  0.9055
26637SOL    HW280490   2.485   2.025   6.647  0.5251  0.0331  0.1867
26638SOL     OW80491   2.471   9.914   8.802  0.2794  0.7451 -0.2552
26638SOL    HW180492   2.465   9.819   8.792  1.7142  0.5750  0.2801
26638SOL    HW280493   2.401   9.948   8.747  0.4523 -0.5937 -1.3658
26639SOL     OW80494   8.282   7.397   4.236  0.0467  0.4720  0.6610
26639SOL    HW180495   8.354   7.417   4.296  0.2245  1.3146  0.1887
26639SOL    HW280496   8.226   7.474   4.239  0.5096  0.9082 -0.8841
26640SOL     OW80497   8.057   5.034   8.910 -0.3339 -0.6749 -0.0110
26640SOL    HW180498   8.026   5.108   8.963  3.7969  0.0032  1.8181
26640SOL    HW280499   8.074   4.965   8.974 -2.1489 -2.5838 -1.4687
26641SOL     OW80500   5.729   8.945   9.807 -0.2668  0.2212  0.7031
26641SOL    HW180501   5.734   8.999   9.885 -0.7144 -2.3287  2.6443
26641SOL    HW280502   5.808   8.890   9.810  0.3738  0.9321 -1.3856
26642SOL     OW80503   9.868   5.843   9.791 -0.6023  0.6379 -0.0948
26642SOL    HW180504   9.939   5.834   9.854 -0.9736 -3.9988  0.0184
26642SOL    HW280505   9.908   5.888   9.717  1.5823  0.8891  1.1482
26643SOL     OW80506   3.836   8.319   0.580 -0.3225 -0.5364  0.2202
26643SOL    HW180507   3.861   8.253   0.645  0.6418  0.0798  0.5104
26643SOL    HW280508   3.920   8.357   0.552 -0.8315  0.2432 -0.2754
26644SOL     OW80509   3.465   5.903   6.688  0.4457  0.0482 -0.8092
26644SOL    HW180510   3.437   5.811   6.692  0.0555  0.2217  0.5334
26644SOL    HW280511   3.424   5.945   6.763  2.0641  0.9263 -0.3692
26645SOL     OW80512   7.228   6.796   3.693 -0.1507 -0.4023 -0.2451
26645SOL    HW180513   7.292   6.838   3.750  1.0360 -2.2329 -0.1454
26645SOL    HW280514   7.251   6.703   3.695 -2.3799 -1.0325 -0.7957
26646SOL     OW80515   1.373   2.524   0.511 -0.3267  0.1229  0.1398
26646SOL    HW180516   1.396   2.475   0.432 -0.8695 -1.1303  0.7350
26646SOL    HW280517   1.421   2.607   0.503 -1.1666  0.4709 -1.9979
26647SOL     OW80518   6.216   9.375   3.894 -0.3855 -0.1870 -0.3162
26647SOL    HW180519   6.144   9.396   3.953  0.4306  1.2351  0.2135
26647SOL    HW280520   6.207   9.437   3.822  0.9733  0.7990  0.3354
26648SOL     OW80521   9.442   7.564   5.230  0.3472 -0.6262 -0.2330
26648SOL    HW180522   9.477   7.652   5.220 -1.1592 -0.1045 -1.2948
26648SOL    HW280523   9.351   7.571   5.202 -0.3876 -2.1001  1.5693
26649SOL     OW80524   8.577   9.339   1.883 -0.0904  0.1740  0.2746
26649SOL    HW180525   8.490   9.306   1.861  0.2461 -0.7382  0.2571
26649SOL    HW280526   8.583   9.331   1.978  0.6770 -1.6167  0.1040
26650SOL     OW80527   5.351   4.882   5.882  0.8777  0.0885  0.1622
26650SOL    HW180528   5.337   4.884   5.977 -0.4781 -0.7485  0.0111
26650SOL    HW280529   5.309   4.801   5.854  0.5464  0.7373 -1.2626
26651SOL     OW80530   8.455   8.689   6.570 -1.2636 -0.2824 -0.7064
26651SOL    HW180531   8.532   8.685   6.626  0.3199  0.4363 -2.7102
26651SOL    HW280532   8.381   8.686   6.631  0.3037 -1.4006  1.2585
26652SOL     OW80533   7.215   4.720   7.632 -0.1618  0.2017  0.1315
26652SOL    HW180534   7.137   4.708   7.686 -0.0833 -0.6526  0.0748
26652SOL    HW280535   7.281   4.662   7.670  0.6518  1.3571  0.5415
26653SOL     OW80536   0.481   1.722   9.504 -0.0496 -0.7181  0.1214
26653SOL    HW180537   0.503   1.815   9.496  1.5814 -0.9560  1.3614
26653SOL    HW280538   0.434   1.701   9.423 -1.9906  1.5707  0.5535
26654SOL     OW80539   6.199   7.498   0.648  0.0445 -0.2424  0.3253
26654SOL    HW180540   6.223   7.578   0.694  1.4730 -0.2487 -0.3368
26654SOL    HW280541   6.282   7.465   0.614 -0.5885 -1.7575  0.1874
26655SOL     OW80542   0.237   3.639   5.187 -0.3500 -0.9199  0.0266
26655SOL    HW180543   0.142   3.637   5.195 -0.2778  0.8741  2.2813
26655SOL    HW280544   0.253   3.709   5.124 -0.5103 -0.4617  0.4892
26656SOL     OW80545   8.319   3.865   5.750  0.2291  0.1451 -0.6184
26656SOL    HW180546   8.313   3.958   5.727 -1.2179  0.6766  1.5394
26656SOL    HW280547   8.228   3.837   5.760  0.6748 -1.0128  0.4765
26657SOL     OW80548   9.759   4.204   6.110  0.3588  0.1138  0.2923
26657SOL    HW180549   9.765   4.126   6.055  2.1097  0.1748  0.3387
26657SOL    HW280550   9.833   4.197   6.170 -1.7888 -0.2903  3.1748
26658SOL     OW80551   8.142   4.402   1.413 -0.3451 -0.5311 -0.4738
26658SOL    HW180552   8.090   4.357   1.347  0.5101 -1.7392 -0.3476
26658SOL    HW280553   8.078   4.428   1.480 -1.5278  2.2950 -2.4988
26659SOL     OW80554   5.346   7.320   1.118 -0.2268 -0.4719 -0.2691
26659SOL    HW180555   5.335   7.410   1.086  0.5847  0.3357  1.5874
26659SOL    HW280556   5.393   7.329   1.201  0.3005 -2.6611 -0.2685
26660SOL     OW80557   0.829   8.927   9.820  0.0141  0.1181  0.8724
26660SOL    HW180558   0.919   8.950   9.797 -0.2089 -0.3718 -0.6661
26660SOL    HW280559   0.800   8.996   9.879  1.2987  0.4425  1.1506
26661SOL     OW80560   4.679   8.075   2.232 -0.2890  0.4893 -0.0884
26661SOL    HW180561   4.587   8.059   2.254 -0.4127  1.1137 -0.1432
26661SOL    HW280562   4.676   8.138   2.160  0.1444 -0.5939 -1.0897
26662SOL     OW80563   4.663   6.277   4.476  0.4443 -0.2206 -0.6334
26662SOL    HW180564   4.634   6.314   4.393  1.4851 -1.1504 -1.4464
26662SOL    HW280565   4.693   6.188   4.454  2.0469 -0.0006  0.4622
26663SOL     OW80566   1.327   5.637   0.132 -0.4948 -0.1566 -0.2945
26663SOL    HW180567   1.314   5.665   0.041 -1.2711  0.6032  0.0358
26663SOL    HW280568   1.319   5.717   0.183 -0.0053 -0.5690  0.4485
26664SOL     OW80569   2.220   6.476   4.045  0.1407  0.0137 -0.1268
26664SOL    HW180570   2.263   6.562   4.037  0.7182 -0.0921  1.5399
26664SOL    HW280571   2.236   6.434   3.960  1.5208  0.7971 -0.2890
26665SOL     OW80572   3.999   5.251   8.115  0.5473 -0.0412  0.2372
26665SOL    HW180573   3.979   5.336   8.077 -0.8505 -0.8516 -0.9479
26665SOL    HW280574   4.061   5.211   8.053  2.7894  0.8190  1.7849
26666SOL     OW80575   3.121   1.750   9.742  0.0331 -0.3289  0.2505
26666SOL    HW180576   3.140   1.656   9.736 -0.1009 -0.3605  0.3257
26666SOL    HW280577   3.032   1.755   9.778  0.2082 -0.1638  0.6678
26667SOL     OW80578   1.670   1.751   5.033 -0.1490  0.5547  0.6334
26667SOL    HW180579   1.733   1.778   4.967 -0.4966  1.3469  0.6256
26667SOL    HW280580   1.589   1.737   4.985 -0.0243 -0.3662  0.6603
26668SOL     OW80581   8.045   6.087   4.679  0.4630 -0.2407  0.0645
26668SOL    HW180582   8.065   6.115   4.590  0.8905 -0.7464 -0.0000
26668SOL    HW280583   8.021   5.995   4.670  1.5678 -0.5979  0.6131
26669SOL     OW80584   9.316   2.434   2.218  1.0422 -0.1108 -0.2003
26669SOL    HW180585   9.250   2.398   2.277  2.3472 -0.1649  1.3044
26669SOL    HW280586   9.266   2.470   2.144 -0.5351 -1.5169  0.1321
26670SOL     OW80587   6.970   0.932   7.253  0.9730  0.5084  0.2483
26670SOL    HW180588   6.881   0.966   7.244  0.4174 -0.2306  2.3307
26670SOL    HW280589   7.024   1.010   7.263  0.5512  0.9596 -0.9165
26671SOL     OW80590   8.048   5.105   8.560 -0.2224 -0.1223  0.4957
26671SOL    HW180591   7.991   5.168   8.603  1.8138  1.4489  1.0499
26671SOL    HW280592   8.126   5.102   8.615  0.1433 -2.4508 -0.0441
26672SOL     OW80593   3.915   1.053   4.694 -0.5300 -0.3580  0.2202
26672SOL    HW180594   3.941   1.048   4.602 -0.0320 -0.6672  0.3790
26672SOL    HW280595   3.914   1.147   4.714  0.9466 -0.3614  0.3519
26673SOL     OW80596   9.155   4.035   1.933 -0.3589  0.3318 -0.1517
26673SOL    HW180597   9.094   3.971   1.895 -3.0623  2.5701  0.0682
26673SOL    HW280598   9.130   4.118   1.893  1.8226  1.5530  0.8797
26674SOL     OW80599   2.767   5.935   5.988 -0.7045  0.3180 -0.3435
26674SOL    HW180600   2.837   5.895   5.936  0.1712  1.5707 -0.1875
26674SOL    HW280601   2.687   5.893   5.958  0.0879 -1.0230 -0.6638
26675SOL     OW80602   6.006   4.191   5.866  0.0290  0.1434  0.4441
26675SOL    HW180603   5.994   4.096   5.860 -2.1306  0.3196  0.8921
26675SOL    HW280604   5.916   4.225   5.865  0.7866  2.2279 -0.3550
26676SOL     OW80605   6.349   5.266   5.656  0.4344  0.3675 -0.7392
26676SOL    HW180606   6.313   5.253   5.743  1.5341  0.2996 -0.2749
26676SOL    HW280607   6.319   5.353   5.630  0.9299  0.8151  0.1382
26677SOL     OW80608   1.300   1.080   1.478  0.5996  0.2460 -0.1525
26677SOL    HW180609   1.319   1.151   1.418  0.2187  0.6319  0.1837
26677SOL    HW280610   1.386   1.041   1.496  0.6780 -0.1032 -1.2173
26678SOL     OW80611   8.529   7.714   5.365 -0.4662 -0.1682 -0.3499
26678SOL    HW180612   8.599   7.774   5.342  0.9280 -1.0971  1.2669
26678SOL    HW280613   8.539   7.699   5.459 -3.0008 -0.1572  0.0051
26679SOL     OW80614   9.747   6.568   5.617  0.7039  0.5980  0.8214
26679SOL    HW180615   9.813   6.531   5.675 -0.2503  1.2356  2.4098
26679SOL    HW280616   9.664   6.548   5.661 -0.0316  1.4232 -0.1595
26680SOL     OW80617   2.744   2.261   4.029 -0.1293 -0.2729 -0.3697
26680SOL    HW180618   2.661   2.217   4.009 -0.7066  0.5700  0.0720
26680SOL    HW280619   2.734   2.289   4.120  0.0094  1.1782 -0.7755
26681SOL     OW80620   5.422   9.605   7.669 -0.0975 -0.5266 -0.0990
26681SOL    HW180621   5.470   9.639   7.745  0.3302  0.6736 -0.8778
26681SOL    HW280622   5.489   9.590   7.603 -0.4826 -1.4643 -0.2913
26682SOL     OW80623   1.020   0.589   2.475  0.1499  0.2039  0.1180
26682SOL    HW180624   1.060   0.660   2.425 -0.2889  0.3536 -0.0239
26682SOL    HW280625   1.020   0.514   2.415 -1.1247  0.6049 -0.4072
26683SOL     OW80626   4.835   9.351   6.966 -0.1108  0.0071 -0.3977
26683SOL    HW180627   4.926   9.343   6.995 -0.7968 -0.6520  1.7612
26683SOL    HW280628   4.833   9.430   6.913  1.6785  0.1333 -0.3223
26684SOL     OW80629   2.748   1.861   7.365  0.8252  0.1202  0.3507
26684SOL    HW180630   2.812   1.790   7.358 -1.0469 -1.6359  0.2055
26684SOL    HW280631   2.685   1.843   7.296 -0.3399  1.2490  1.0907
26685SOL     OW80632   8.403   6.990   8.904 -0.0437  0.1087  0.2163
26685SOL    HW180633   8.394   7.083   8.926 -0.0318 -0.1186  1.1959
26685SOL    HW280634   8.445   6.951   8.980 -1.9439 -1.0814  0.7231
26686SOL     OW80635   4.307   4.356   0.043 -0.1301  0.3891  0.6462
26686SOL    HW180636   4.381   4.366  -0.017  0.9839 -1.1625  1.6729
26686SOL    HW280637   4.302   4.440   0.088  0.5996  0.7433  0.0990
26687SOL     OW80638   1.187   7.019   9.438  0.1543 -0.2876  0.0979
26687SOL    HW180639   1.118   6.956   9.459  0.0871  0.4607  2.3762
26687SOL    HW280640   1.189   7.079   9.513  3.2325 -0.2480  0.1331
26688SOL     OW80641   9.278   4.434   3.934 -0.1766 -0.0707  0.0657
26688SOL    HW180642   9.326   4.440   3.851  0.2575  0.0500  0.3220
26688SOL    HW280643   9.201   4.381   3.913  0.7633 -1.4590 -0.0543
26689SOL     OW80644   3.613   6.193   4.991  0.2292 -0.2344  0.3078
26689SOL    HW180645   3.541   6.216   5.049  0.0785 -0.6449  0.2867
26689SOL    HW280646   3.617   6.265   4.928 -0.1932 -0.2351  0.2798
26690SOL     OW80647   0.747   6.540   1.794  0.4661  0.2498  0.0595
26690SOL    HW180648   0.809   6.468   1.792 -0.0257 -0.2391  1.3527
26690SOL    HW280649   0.801   6.618   1.804  0.8976 -0.1685  1.1577
26691SOL     OW80650   9.473   0.263   2.266  0.2721  0.1848 -0.0589
26691SOL    HW180651   9.511   0.349   2.251 -0.8685  0.5839 -0.7601
26691SOL    HW280652   9.380   0.274   2.250 -0.2224 -0.7077  1.8806
26692SOL     OW80653   2.133   2.133   1.432 -0.4113 -0.3848  0.0470
26692SOL    HW180654   2.046   2.164   1.458 -0.4156  0.8863 -1.3883
26692SOL    HW280655   2.192   2.169   1.499 -0.6592  1.1525 -0.5278
26693SOL     OW80656   7.410   6.158   6.038 -0.6302 -0.1352  0.0186
26693SOL    HW180657   7.478   6.208   5.994 -1.1789 -0.2367 -0.9796
26693SOL    HW280658   7.359   6.222   6.086  0.4042 -0.1081  1.1103
26694SOL     OW80659   9.722   8.895   8.618 -0.2502  0.4674 -0.3295
26694SOL    HW180660   9.779   8.905   8.694  0.5205 -0.8390 -0.6846
26694SOL    HW280661   9.764   8.948   8.550  1.4937 -1.6546 -1.0350
26695SOL     OW80662   7.489   5.069   2.084 -0.2261 -0.5651 -0.3469
26695SOL    HW180663   7.399   5.084   2.113  0.0128 -0.2572  0.2520
26695SOL    HW280664   7.530   5.024   2.157 -0.0689 -1.3106 -0.8873
26696SOL     OW80665   1.263   2.159   7.771 -0.6292  0.5279 -0.0095
26696SOL    HW180666   1.218   2.168   7.855 -2.0325 -2.2671 -0.3512
26696SOL    HW280667   1.239   2.237   7.722 -1.2133  1.3697  1.5501
26697SOL     OW80668   3.136   9.415   7.098 -0.4157  0.4111 -0.3775
26697SOL    HW180669   3.138   9.425   7.003 -1.1049 -0.4858 -0.5082
26697SOL    HW280670   3.219   9.374   7.121 -0.5001  0.0739 -0.6728
26698SOL     OW80671   9.381   0.986   3.969 -0.3476  0.0058  0.5830
26698SOL    HW180672   9.296   0.996   3.927 -0.4286  0.2083  0.7952
26698SOL    HW280673   9.395   1.069   4.016 -0.3349 -0.2840  1.0943
26699SOL     OW80674   5.468   3.510   9.885 -0.1514 -0.0258  0.1727
26699SOL    HW180675   5.519   3.574   9.934 -0.5194  0.1199  0.3732
26699SOL    HW280676   5.434   3.559   9.810 -0.4954  0.0360  0.3666
26700SOL     OW80677   3.168   0.799   3.582 -0.3858  1.3274  0.1291
26700SOL    HW180678   3.088   0.746   3.590 -2.2971  3.2418 -3.4654
26700SOL    HW280679   3.150   0.877   3.634 -1.8610  2.6018 -2.1082
26701SOL     OW80680   8.303   6.315   1.977  0.3703 -0.7821 -0.1485
26701SOL    HW180681   8.221   6.364   1.980 -0.0281 -1.3666 -1.0042
26701SOL    HW280682   8.306   6.279   1.888  1.5854 -0.7212 -0.1466
26702SOL     OW80683   4.083   6.820   2.331 -0.2253 -0.6044 -0.6397
26702SOL    HW180684   4.043   6.734   2.322  0.7056 -1.2370  0.7949
26702SOL    HW280685   4.150   6.808   2.399 -1.4072  1.6907  1.0714
26703SOL     OW80686   3.031   3.497   7.488  0.8255  0.4957  0.9599
26703SOL    HW180687   3.045   3.531   7.399 -0.6671 -1.2248 -0.0157
26703SOL    HW280688   3.117   3.466   7.516  1.1943  0.4128 -0.2036
26704SOL     OW80689   3.642   6.246   6.618  0.3327  0.1684 -0.0383
26704SOL    HW180690   3.601   6.175   6.568 -0.9208  1.5426 -1.0464
26704SOL    HW280691   3.638   6.217   6.709 -1.1619 -0.5892 -0.3155
26705SOL     OW80692   2.790   5.106   3.931 -0.5389  0.4569  0.3385
26705SOL    HW180693   2.831   5.170   3.990 -1.0883  0.1137  1.1165
26705SOL    HW280694   2.728   5.157   3.880 -0.6874  0.6248  0.6798
26706SOL     OW80695   0.240   0.811   0.194  0.1677  0.4399 -0.1009
26706SOL    HW180696   0.237   0.903   0.169 -0.6383  0.5341  0.3029
26706SOL    HW280697   0.180   0.768   0.134  2.2271 -0.2436 -1.8168
26707SOL     OW80698   7.159   6.475   8.226  0.0453 -0.3659 -0.2500
26707SOL    HW180699   7.182   6.515   8.310 -3.8677  0.3982  0.6518
26707SOL    HW280700   7.130   6.386   8.249 -2.9931  0.4913 -0.3153
26708SOL     OW80701   3.719   7.454   1.329 -0.4429 -0.2919  0.3786
26708SOL    HW180702   3.715   7.540   1.371  0.0751 -0.6307  1.1522
26708SOL    HW280703   3.797   7.458   1.274  0.1572 -0.5781  1.1774
26709SOL     OW80704   4.638   2.696   0.750  0.3159 -0.1349  0.2536
26709SOL    HW180705   4.663   2.780   0.789  0.1551  0.4332 -0.8339
26709SOL    HW280706   4.705   2.635   0.781  0.6563  0.4730  0.7515
26710SOL     OW80707   7.401   6.226   9.530  0.3362  0.2675  0.0366
26710SOL    HW180708   7.334   6.184   9.584 -1.9727  1.1651 -1.9802
26710SOL    HW280709   7.461   6.155   9.507 -0.2116 -0.6836  1.4182
26711SOL     OW80710   6.410   2.774   8.226  0.2166 -0.2184 -0.1366
26711SOL    HW180711   6.407   2.831   8.149  0.3372  0.7888  0.5835
26711SOL    HW280712   6.503   2.759   8.242  0.2784  0.9394  0.7623
26712SOL     OW80713   4.248   2.332   5.836 -0.0251 -0.3259 -0.2268
26712SOL    HW180714   4.198   2.384   5.772 -1.0337  1.4236  1.8554
26712SOL    HW280715   4.198   2.251   5.846 -0.0622 -0.4552 -1.3418
26713SOL     OW80716   6.703   0.570   4.867 -0.4192  0.3064  0.2854
26713SOL    HW180717   6.723   0.483   4.902 -2.3922 -0.8964 -1.3457
26713SOL    HW280718   6.786   0.601   4.830 -0.1375 -1.8397 -1.0128
26714SOL     OW80719   7.344   6.752   0.484 -0.0765  0.7109  0.1294
26714SOL    HW180720   7.338   6.761   0.579 -0.5386  0.6462  0.1052
26714SOL    HW280721   7.295   6.672   0.464  0.2643  0.5629 -0.1331
26715SOL     OW80722   6.351   4.660   9.872 -0.3521  0.7447  0.8106
26715SOL    HW180723   6.342   4.753   9.849 -3.1875  0.4162  0.2287
26715SOL    HW280724   6.377   4.617   9.791  0.6193  0.9591  0.9973
26716SOL     OW80725   0.653   0.217   8.646 -0.1639 -0.4882  0.4634
26716SOL    HW180726   0.671   0.135   8.600  1.9391  0.7864 -1.2076
26716SOL    HW280727   0.739   0.252   8.668 -0.8598  2.1615 -0.6238
26717SOL     OW80728   4.137   5.907   2.411 -0.1428 -0.0118 -0.2635
26717SOL    HW180729   4.070   5.851   2.449  0.4070 -0.0116  0.7328
26717SOL    HW280730   4.106   5.925   2.322 -1.8692  0.6689  0.4437
26718SOL     OW80731   5.043   3.181   8.732  0.3796  0.3960  0.0292
26718SOL    HW180732   5.137   3.163   8.728  0.1949 -0.3428 -1.2116
26718SOL    HW280733   5.001   3.099   8.706 -0.5637  1.2512 -1.2770
26719SOL     OW80734   1.374   1.236   1.295 -0.5721 -0.1200  0.2828
26719SOL    HW180735   1.433   1.230   1.219 -0.7794  1.3767 -0.0376
26719SOL    HW280736   1.289   1.258   1.257 -0.8460 -0.1125  0.8979
26720SOL     OW80737   0.880   3.434   6.654 -0.1011 -0.1211  0.1397
26720SOL    HW180738   0.867   3.529   6.658 -0.2402 -0.0088 -1.7859
26720SOL    HW280739   0.963   3.418   6.698 -0.3982  0.7956  1.0650
26721SOL     OW80740   6.570   7.459   0.022  0.0754  0.3670 -0.5491
26721SOL    HW180741   6.583   7.365   0.008  0.7359  0.5938 -1.5895
26721SOL    HW280742   6.626   7.480   0.096 -1.2801 -0.3325  0.7429
26722SOL     OW80743   6.340   4.521   8.302 -0.4622 -0.0597  0.0072
26722SOL    HW180744   6.432   4.492   8.301 -0.3741  0.1344 -2.0662
26722SOL    HW280745   6.338   4.590   8.368  2.0951  3.3689 -3.0670
26723SOL     OW80746   9.561   8.708   5.301 -0.5115  0.1091 -0.0462
26723SOL    HW180747   9.555   8.634   5.240  0.2667  0.6565 -0.8275
26723SOL    HW280748   9.560   8.786   5.244  0.0703  0.6412  0.6490
26724SOL     OW80749   5.165   1.294   3.704 -0.4447 -0.0823  0.0673
26724SOL    HW180750   5.169   1.328   3.615  0.7336  0.0313  0.1488
26724SOL    HW280751   5.073   1.303   3.729 -0.2346  2.9733  0.0522
26725SOL     OW80752   9.481   0.491   9.366 -0.2171 -0.0287  0.3928
26725SOL    HW180753   9.473   0.574   9.320  0.0103 -0.2715 -0.0942
26725SOL    HW280754   9.460   0.512   9.457  0.7966  0.7642  0.4645
26726SOL     OW80755   3.824   3.457   5.464  0.6812 -0.3832  0.3270
26726SOL    HW180756   3.848   3.492   5.378  3.7709 -0.3140  1.0859
26726SOL    HW280757   3.889   3.390   5.482 -1.2210 -1.9737  1.7207
26727SOL     OW80758   8.401   1.152   6.577 -0.3102 -0.1464 -0.1019
26727SOL    HW180759   8.365   1.126   6.661 -0.4658  0.9593  0.1857
26727SOL    HW280760   8.325   1.167   6.521 -0.3304  1.8483  0.4033
26728SOL     OW80761   9.100   5.952   0.127  0.1481  0.6951 -0.4110
26728SOL    HW180762   9.086   5.920   0.038 -0.6558  2.9802 -1.1563
26728SOL    HW280763   9.195   5.951   0.137  0.2236 -3.0870  0.1596
26729SOL     OW80764   1.565   6.774   7.674  0.3463 -0.6758 -0.0403
26729SOL    HW180765   1.476   6.772   7.710  0.0763 -0.5043 -0.6990
26729SOL    HW280766   1.609   6.699   7.716 -0.4740 -1.5362 -0.6790
26730SOL     OW80767   9.681   8.556   4.678  0.0091  0.3996  0.3303
26730SOL    HW180768   9.745   8.486   4.679 -0.4880 -0.2663 -3.0513
26730SOL    HW280769   9.729   8.634   4.707  2.0565 -0.3155 -0.9410
26731SOL     OW80770   1.443   0.520   8.411  0.0551 -0.3211  0.2793
26731SOL    HW180771   1.383   0.486   8.478  0.4847 -1.6217  0.0324
26731SOL    HW280772   1.386   0.559   8.346 -0.4910 -0.8144  0.4500
26732SOL     OW80773   1.119   6.793   8.505  0.6438 -0.0994 -0.0816
26732SOL    HW180774   1.078   6.780   8.591 -1.1343  2.9694 -0.3176
26732SOL    HW280775   1.213   6.790   8.522  0.3436 -1.0497  1.6583
26733SOL     OW80776   5.859   0.116   7.864  0.6539  0.0816 -0.6507
26733SOL    HW180777   5.830   0.116   7.773 -1.6084 -2.1449 -0.0631
26733SOL    HW280778   5.919   0.042   7.870 -0.8681 -1.1378  0.0543
26734SOL     OW80779   7.359   0.838   1.858 -0.0170  0.2053 -0.1106
26734SOL    HW180780   7.418   0.870   1.926  0.7165  0.5589 -0.8994
26734SOL    HW280781   7.393   0.874   1.777 -0.2570 -1.0552 -0.8060
26735SOL     OW80782   4.123   6.760   7.996  0.1238  0.5477  0.3337
26735SOL    HW180783   4.165   6.813   8.063 -0.9537 -1.4707  2.7915
26735SOL    HW280784   4.033   6.791   7.993  0.1021  0.4586 -0.0250
26736SOL     OW80785   7.233   3.391   8.112 -0.1061  0.1132  0.3769
26736SOL    HW180786   7.172   3.319   8.098 -1.2798  0.8915  1.3149
26736SOL    HW280787   7.299   3.356   8.172  0.6569 -0.8659 -0.9870
26737SOL     OW80788   1.649   2.160   6.480  0.7833  0.1350 -0.0315
26737SOL    HW180789   1.687   2.104   6.414 -1.7064  0.7079 -2.1220
26737SOL    HW280790   1.692   2.245   6.468 -0.2125  0.4666 -1.5884
26738SOL     OW80791   9.343   6.094   8.545  0.3633 -0.4604 -0.2626
26738SOL    HW180792   9.267   6.123   8.496  1.3174 -0.1743 -1.6247
26738SOL    HW280793   9.415   6.148   8.513  1.0403 -0.2674  1.4560
26739SOL     OW80794   6.714   1.307   2.814 -0.1798  0.2139  0.4456
26739SOL    HW180795   6.621   1.327   2.827 -0.8629 -2.1276 -0.3394
26739SOL    HW280796   6.742   1.368   2.746 -1.5787 -0.0473 -0.4193
26740SOL     OW80797   3.237   4.392   1.586  0.9215 -0.1859 -0.0221
26740SOL    HW180798   3.221   4.346   1.668 -0.1892  0.0798 -0.0736
26740SOL    HW280799   3.330   4.382   1.570  0.7972 -1.9482  0.2462
26741SOL     OW80800   9.261   7.449   6.094  0.5913 -0.2431  0.0689
26741SOL    HW180801   9.246   7.390   6.021  0.4762  0.5902 -0.5940
26741SOL    HW280802   9.354   7.469   6.091  0.4360  0.4511 -0.3761
26742SOL     OW80803   7.205   5.855   0.476  0.2535 -0.3790  0.1459
26742SOL    HW180804   7.243   5.938   0.449  2.6311 -0.7295  2.0168
26742SOL    HW280805   7.182   5.868   0.568 -1.4243 -1.1555 -0.1311
26743SOL     OW80806   1.467   5.701   1.593 -0.0936 -0.1378 -0.0255
26743SOL    HW180807   1.432   5.710   1.505 -1.1514  3.3429  0.5794
26743SOL    HW280808   1.553   5.744   1.590  0.1732 -0.6128  0.4906
26744SOL     OW80809   3.238   3.478   9.921 -0.0781 -0.0137  0.2612
26744SOL    HW180810   3.237   3.413   9.850  0.5695  0.8062 -0.5152
26744SOL    HW280811   3.273   3.430   9.997 -0.4199 -0.7929 -0.0610
26745SOL     OW80812   4.421   6.585   3.348  0.2938 -0.3457  0.2238
26745SOL    HW180813   4.329   6.612   3.348  0.3010 -0.2999 -0.5340
26745SOL    HW280814   4.418   6.490   3.359  0.2000 -0.2464  1.1482
26746SOL     OW80815   1.462   7.490   2.594  0.2543  0.0033  0.0359
26746SOL    HW180816   1.539   7.457   2.640  0.3622  2.1677  1.5833
26746SOL    HW280817   1.390   7.435   2.625  0.9437 -1.1980 -0.4259
26747SOL     OW80818   7.524   5.076   6.314 -0.3428  0.1766  0.0881
26747SOL    HW180819   7.610   5.082   6.272  0.2548 -0.7585  1.1013
26747SOL    HW280820   7.543   5.043   6.402 -1.6708  0.8017  0.6373
26748SOL     OW80821   4.203   0.195   9.376 -0.0138  0.3551 -0.7762
26748SOL    HW180822   4.152   0.249   9.436  2.7673  1.3983  0.8739
26748SOL    HW280823   4.198   0.107   9.413 -0.5932  0.4509 -0.6190
26749SOL     OW80824   4.179   8.632   0.503  0.0503  0.1357  0.2827
26749SOL    HW180825   4.147   8.547   0.535 -1.6214 -0.0833 -1.7770
26749SOL    HW280826   4.219   8.613   0.419 -1.0091  1.4636 -0.5623
26750SOL     OW80827   2.270   1.986   7.508  0.8384  0.3936  0.8461
26750SOL    HW180828   2.332   1.958   7.575  0.7028 -1.1738  0.3633
26750SOL    HW280829   2.226   2.062   7.546  0.2726 -0.8481  2.8431
26751SOL     OW80830   1.201   6.292   1.140  0.0349  0.4091  0.2136
26751SOL    HW180831   1.295   6.306   1.152 -0.2681  1.5661  1.4385
26751SOL    HW280832   1.196   6.213   1.086  1.7160  0.8730 -0.7002
26752SOL     OW80833   4.159   3.533   2.098 -0.2160 -0.1321 -0.1873
26752SOL    HW180834   4.072   3.550   2.136 -1.1603 -1.0257 -1.8368
26752SOL    HW280835   4.183   3.614   2.055 -0.4096 -0.0041 -0.0552
26753SOL     OW80836   7.362   5.309   3.484 -0.5992  0.0334 -0.1643
26753SOL    HW180837   7.313   5.377   3.437 -0.1229 -0.4811 -1.4429
26753SOL    HW280838   7.298   5.239   3.498 -0.7452  0.1903 -0.0387
26754SOL     OW80839   3.333   6.997   3.302 -0.3068  0.1673 -0.0506
26754SOL    HW180840   3.397   6.974   3.370 -0.0605  0.2134 -0.2623
26754SOL    HW280841   3.382   6.986   3.220 -1.2409 -2.1213 -0.3863
26755SOL     OW80842   7.637   2.114   7.158  0.1016 -0.2798  0.1761
26755SOL    HW180843   7.683   2.193   7.186 -0.7706 -0.3309  1.8813
26755SOL    HW280844   7.544   2.135   7.171 -0.3229 -0.7003 -1.7863
26756SOL     OW80845   0.118   7.712   3.221 -0.0319 -0.3119 -0.2172
26756SOL    HW180846   0.130   7.621   3.194 -0.9036 -0.4235 -0.2684
26756SOL    HW280847   0.081   7.756   3.143 -1.1134 -0.2873  0.2900
26757SOL     OW80848   8.124   6.423   3.174  0.3891  0.1991  0.3290
26757SOL    HW180849   8.195   6.450   3.233  0.7993 -1.8527  0.8627
26757SOL    HW280850   8.150   6.337   3.143 -1.3630 -0.1292 -0.3499
26758SOL     OW80851   8.070   6.023   6.130  0.7844 -0.2128  0.5402
26758SOL    HW180852   8.159   6.016   6.166 -0.0995  0.3210  2.9835
26758SOL    HW280853   8.013   6.003   6.204 -1.1725  0.4557 -0.7331
26759SOL     OW80854   1.440   9.198   5.160 -0.4237 -0.0768  0.1590
26759SOL    HW180855   1.362   9.190   5.215  0.3234  0.9503  1.4373
26759SOL    HW280856   1.498   9.127   5.190  0.7191  1.5327  2.0721
26760SOL     OW80857   6.590   3.734   5.451 -0.1088  0.2679  0.2863
26760SOL    HW180858   6.558   3.653   5.492 -1.2239  1.6377  2.2652
26760SOL    HW280859   6.684   3.721   5.443  0.3532  0.1665  4.1339
26761SOL     OW80860   2.149   9.691   2.133 -0.0381 -0.3748 -0.5589
26761SOL    HW180861   2.093   9.617   2.158  0.5054 -0.4239  0.5917
26761SOL    HW280862   2.186   9.721   2.216  1.7583 -0.4359 -1.2950
26762SOL     OW80863   3.975   2.842   4.730 -0.1758  0.1045 -0.3576
26762SOL    HW180864   3.973   2.933   4.703 -1.0199 -0.0621 -0.8839
26762SOL    HW280865   3.941   2.793   4.655 -0.1557 -0.6008  0.0795
26763SOL     OW80866   3.925   7.924   8.370  0.3102 -0.3625 -0.2420
26763SOL    HW180867   3.831   7.942   8.372  0.2026 -0.8604 -0.5347
26763SOL    HW280868   3.935   7.846   8.425  0.7265  0.4093  0.7993
26764SOL     OW80869   0.071   0.704   0.866 -0.1199 -0.1177 -0.4229
26764SOL    HW180870   0.064   0.610   0.848  1.3035 -0.4036  0.3579
26764SOL    HW280871   0.162   0.716   0.894 -0.6040  1.2973  0.6283
26765SOL     OW80872   3.423   9.208   0.549 -0.0761  0.0460  0.4782
26765SOL    HW180873   3.467   9.222   0.633  0.2466 -0.5417  0.4147
26765SOL    HW280874   3.331   9.227   0.566  0.3156  2.3154  0.3641
26766SOL     OW80875   6.086   3.094   4.658  0.1517  0.0198 -0.4972
26766SOL    HW180876   6.055   3.025   4.716  2.6539 -0.7177  0.1115
26766SOL    HW280877   6.129   3.157   4.717 -0.3393  1.0802 -1.2426
26767SOL     OW80878   8.165   4.586   2.010 -0.1351  0.4980  0.0713
26767SOL    HW180879   8.114   4.537   2.074  0.3992  0.7660  0.7071
26767SOL    HW280880   8.100   4.618   1.947 -0.7042  0.4908  0.6432
26768SOL     OW80881   7.979   1.831   4.552 -0.4261 -0.0275 -0.2488
26768SOL    HW180882   7.980   1.766   4.622  1.5307 -0.8526 -0.9640
26768SOL    HW280883   8.018   1.909   4.591 -0.3106 -0.1465 -0.1276
26769SOL     OW80884   5.849   9.659   7.446 -0.3809  0.1188  0.6221
26769SOL    HW180885   5.909   9.696   7.381  0.7159 -1.0163  0.9511
26769SOL    HW280886   5.905   9.607   7.503 -1.9361 -3.0380 -0.4876
26770SOL     OW80887   2.292   7.971   8.918 -0.0909  0.3622  0.2563
26770SOL    HW180888   2.302   7.952   8.824 -1.3062  0.0101  0.1814
26770SOL    HW280889   2.198   7.981   8.930 -0.1386 -1.4750  1.7892
26771SOL     OW80890   5.557   5.489   1.163 -0.4263  0.1053 -0.0071
26771SOL    HW180891   5.481   5.528   1.119  0.6508  1.8039 -0.4565
26771SOL    HW280892   5.628   5.550   1.146  0.9140 -1.1332  0.9340
26772SOL     OW80893   7.632   5.677   1.174  0.5323  0.0245  0.9992
26772SOL    HW180894   7.711   5.623   1.176 -0.2876 -1.2555  0.6142
26772SOL    HW280895   7.561   5.614   1.188 -0.5720  0.7384 -0.9884
26773SOL     OW80896   1.156   1.273   0.858 -0.1202 -0.2364  0.4158
26773SOL    HW180897   1.224   1.209   0.839 -1.3642 -1.3782 -0.3783
26773SOL    HW280898   1.143   1.265   0.953  1.4128  0.6151  0.7274
26774SOL     OW80899   4.725   2.379   4.850  0.2501  0.1291  0.1093
26774SOL    HW180900   4.772   2.369   4.933  0.2491 -1.1079 -0.0242
26774SOL    HW280901   4.761   2.460   4.812  0.7307  0.3474  0.9932
26775SOL     OW80902   4.668   1.089   8.286 -0.5798  0.1630  0.1787
26775SOL    HW180903   4.684   1.113   8.378  0.0129  0.2741  0.0451
26775SOL    HW280904   4.743   1.123   8.239  0.7361 -2.6620  0.0627
26776SOL     OW80905   9.035   8.191   7.232  0.4358 -0.6313 -0.7611
26776SOL    HW180906   9.090   8.268   7.219  0.6158 -0.8080 -1.0452
26776SOL    HW280907   9.096   8.119   7.245  0.3579 -1.2291 -3.2043
26777SOL     OW80908   9.572   4.281   1.776  0.4189  0.1658 -0.2419
26777SOL    HW180909   9.619   4.364   1.770  0.8305  0.4428  3.8442
26777SOL    HW280910   9.483   4.305   1.799 -0.1767 -0.5457 -1.6646
26778SOL     OW80911   9.038   1.116   7.133  0.1905  0.4350  0.0998
26778SOL    HW180912   9.074   1.049   7.191  0.7895 -0.3979 -1.1957
26778SOL    HW280913   8.944   1.100   7.133 -0.1638  1.9914  2.7123
26779SOL     OW80914   8.622   7.390   4.626  0.4096  0.0505 -0.0705
26779SOL    HW180915   8.627   7.301   4.662 -1.1478 -0.6038 -1.3288
26779SOL    HW280916   8.551   7.432   4.677  2.1649  1.1798  1.6059
26780SOL     OW80917   9.360   2.799   5.141  0.8819 -0.3949  0.3306
26780SOL    HW180918   9.309   2.808   5.061  0.9997  1.9045  0.4603
26780SOL    HW280919   9.325   2.720   5.183 -1.5230  0.2486 -0.3265
26781SOL     OW80920   7.407   9.640   7.083  0.1729 -0.2218 -0.0160
26781SOL    HW180921   7.433   9.611   6.996  0.7801  0.2078  0.0141
26781SOL    HW280922   7.415   9.562   7.138  0.9114 -0.2142 -0.1129
26782SOL     OW80923   8.751   7.095   6.426 -0.6267  0.2418  0.0343
26782SOL    HW180924   8.681   7.128   6.369 -0.9254  0.3734  0.4722
26782SOL    HW280925   8.806   7.172   6.442 -0.3554  0.1277 -0.3478
26783SOL     OW80926   5.147   8.852   3.954  0.8322  0.6010 -0.1872
26783SOL    HW180927   5.110   8.934   3.988 -0.2213  0.5069 -1.0675
26783SOL    HW280928   5.113   8.845   3.865  0.7076 -0.9238 -0.0456
26784SOL     OW80929   3.613   3.443   2.307  0.0769 -0.9369  0.1991
26784SOL    HW180930   3.653   3.366   2.347 -0.2076 -0.5017  1.3470
26784SOL    HW280931   3.554   3.477   2.374 -1.1514 -0.7355 -0.9455
26785SOL     OW80932   0.697   4.644   2.165  0.6500  0.1238  0.0350
26785SOL    HW180933   0.768   4.693   2.207  2.0234  0.0596 -2.0817
26785SOL    HW280934   0.729   4.554   2.161  0.1525 -0.0395 -0.2944
26786SOL     OW80935   7.428   2.473   4.961  0.3601 -0.0373  0.4911
26786SOL    HW180936   7.440   2.509   5.049  2.3129  2.5160 -0.6942
26786SOL    HW280937   7.362   2.529   4.921  1.6887  0.8317 -0.5924
26787SOL     OW80938   3.780   3.963   0.555  0.0004 -0.2982  0.2294
26787SOL    HW180939   3.804   3.939   0.465 -0.9626  1.2805 -0.5020
26787SOL    HW280940   3.695   3.922   0.568  0.0971 -0.4461  0.4044
26788SOL     OW80941   5.768   1.670   2.284 -0.0177  0.1979 -0.4559
26788SOL    HW180942   5.827   1.698   2.214  0.5635 -2.4907 -1.1505
26788SOL    HW280943   5.684   1.653   2.241 -0.5418  1.3400  0.0576
26789SOL     OW80944   6.495   1.826   6.624 -0.1299 -0.1197 -0.1224
26789SOL    HW180945   6.565   1.840   6.560  0.5616  1.0212  0.8405
26789SOL    HW280946   6.454   1.912   6.633 -2.4410 -0.9803 -1.4904
26790SOL     OW80947   8.948   4.432   8.382  0.2066 -0.4061 -0.4969
26790SOL    HW180948   8.897   4.365   8.428  1.3489 -0.7300  0.3473
26790SOL    HW280949   9.034   4.392   8.370  1.1459  1.1273  0.6586
26791SOL     OW80950   9.380   7.968   0.611  0.2650 -0.0775 -0.0380
26791SOL    HW180951   9.361   7.883   0.651 -0.4003  0.3855  0.6730
26791SOL    HW280952   9.441   8.010   0.672  1.2880 -0.3825 -0.8312
26792SOL     OW80953   3.721   5.959   3.061 -0.1900  0.1871 -0.8566
26792SOL    HW180954   3.720   5.864   3.051  1.1358  0.1345 -0.6477
26792SOL    HW280955   3.693   5.992   2.975  0.6002 -0.3800 -1.3422
26793SOL     OW80956   6.114   1.451   1.140 -0.1354 -0.2259  0.1504
26793SOL    HW180957   6.160   1.385   1.192  1.3336 -0.1780 -1.0510
26793SOL    HW280958   6.027   1.455   1.180  0.0613 -2.1478  0.8883
26794SOL     OW80959   0.947   9.186   2.782  0.0719  0.1657  0.1881
26794SOL    HW180960   1.039   9.182   2.808  1.2484 -0.8327 -3.4095
26794SOL    HW280961   0.923   9.278   2.791  1.2065  0.3555  1.6844
26795SOL     OW80962   2.021   5.972   3.350 -0.1307  0.2338  0.0629
26795SOL    HW180963   1.954   5.964   3.283  0.3547  2.0264 -0.6917
26795SOL    HW280964   1.973   5.964   3.433 -1.2822  1.3485 -0.4632
26796SOL     OW80965   5.888   8.262   0.878  0.3231  0.4161  0.0267
26796SOL    HW180966   5.813   8.320   0.864 -0.3689 -0.8570 -2.0912
26796SOL    HW280967   5.867   8.214   0.958  0.1761  1.9351  0.9358
26797SOL     OW80968   3.098   9.224   2.395  0.6114 -0.0325  0.4419
26797SOL    HW180969   3.135   9.232   2.307  0.7364  1.5031  0.6093
26797SOL    HW280970   3.011   9.187   2.381  0.7881 -0.1982 -0.2750
26798SOL     OW80971   8.011   6.701   7.186 -0.2133  0.4399 -0.0826
26798SOL    HW180972   7.963   6.783   7.192 -0.7447  0.2059 -0.9142
26798SOL    HW280973   8.079   6.717   7.121  0.0144  0.3727  0.1352
26799SOL     OW80974   9.635   2.697   4.833 -0.1256  0.4900  0.2724
26799SOL    HW180975   9.702   2.633   4.809 -0.0609  0.7853 -0.3324
26799SOL    HW280976   9.684   2.776   4.855 -0.2043  0.3372  1.0415
26800SOL     OW80977   5.465   2.052   0.724 -0.4085 -0.2015 -0.1542
26800SOL    HW180978   5.418   2.102   0.790  0.1329  0.0539  0.0474
26800SOL    HW280979   5.455   1.960   0.752 -0.3703 -0.1119  0.1632
26801SOL     OW80980   4.715   9.779   7.422 -0.1985 -0.4118  0.2731
26801SOL    HW180981   4.710   9.707   7.359 -2.5385 -0.4441  0.4071
26801SOL    HW280982   4.670   9.852   7.378  1.4691  0.7633  0.4407
26802SOL     OW80983   7.384   2.920   6.947 -0.7575  0.1864 -0.6297
26802SOL    HW180984   7.441   2.996   6.959  0.1883 -0.5811 -0.1303
26802SOL    HW280985   7.305   2.942   6.997  0.4646 -0.1388  1.6252
26803SOL     OW80986   4.699   0.902   8.679 -0.3803  0.0384 -0.1771
26803SOL    HW180987   4.757   0.975   8.701 -0.7892  0.8114 -1.5264
26803SOL    HW280988   4.738   0.864   8.600 -1.0519 -0.1758 -0.4122
26804SOL     OW80989   9.096   3.371   2.788  0.1950 -0.4900 -0.2933
26804SOL    HW180990   9.145   3.346   2.867 -0.4714 -2.5066 -0.4745
26804SOL    HW280991   9.026   3.305   2.781 -0.8753  0.7163 -1.5663
26805SOL     OW80992   2.396   2.649   2.041 -1.0518 -0.6405 -0.0399
26805SOL    HW180993   2.397   2.561   2.004 -1.6167 -0.4868 -0.4267
26805SOL    HW280994   2.304   2.674   2.040 -0.8557  0.0847 -0.2326
26806SOL     OW80995   6.058   0.194   2.557  0.1946  0.2654  0.5596
26806SOL    HW180996   6.147   0.218   2.532 -0.3490  0.4813 -1.4042
26806SOL    HW280997   6.051   0.101   2.535  0.3460 -0.1114  2.0449
26807SOL     OW80998   7.676   7.229   7.278  0.4095 -0.0660  0.3481
26807SOL    HW180999   7.606   7.168   7.299  1.8334 -1.9165  0.0085
26807SOL    HW281000   7.638   7.289   7.214 -0.4748 -1.9177 -0.9459
26808SOL     OW81001   6.416   4.393   8.040 -0.3554  0.0343 -0.5521
26808SOL    HW181002   6.497   4.359   8.080 -0.8773  0.0045  0.5217
26808SOL    HW281003   6.429   4.488   8.036 -0.9824  0.2455  1.3741
26809SOL     OW81004   0.710   6.780   9.467  0.4786 -0.1466 -0.0601
26809SOL    HW181005   0.678   6.851   9.412 -0.7813 -0.6538 -0.0066
26809SOL    HW281006   0.653   6.782   9.545 -0.2726 -1.8469 -0.5126
26810SOL     OW81007   6.008   9.647   3.716 -0.3182 -0.2570  0.2746
26810SOL    HW181008   5.996   9.683   3.804 -0.3374  2.2463 -0.6668
26810SOL    HW281009   5.938   9.583   3.706 -0.7486 -0.0714  1.8158
26811SOL     OW81010   5.414   5.100   6.328  0.2818  0.1520 -0.0255
26811SOL    HW181011   5.456   5.019   6.358 -2.0260 -1.8309 -1.7025
26811SOL    HW281012   5.466   5.170   6.368  1.3084 -2.1107  3.0807
26812SOL     OW81013   8.835   8.339   9.637  0.3802 -0.0520  0.0166
26812SOL    HW181014   8.797   8.277   9.575 -1.0071  0.5742  0.2017
26812SOL    HW281015   8.910   8.292   9.675  0.5821 -0.8517 -1.2885
26813SOL     OW81016   7.077   3.613   6.369 -0.7155 -0.5100 -0.3801
26813SOL    HW181017   6.987   3.625   6.340 -1.1584 -0.2350  1.0576
26813SOL    HW281018   7.115   3.701   6.369 -1.3005 -0.2066  1.6331
26814SOL     OW81019   2.409   3.316   6.923  0.0345 -0.1743 -0.5753
26814SOL    HW181020   2.426   3.225   6.901  2.4560  0.6445 -2.4599
26814SOL    HW281021   2.412   3.362   6.840 -0.5578  1.7413  0.4003
26815SOL     OW81022   9.939   2.899   9.136  0.2816 -0.2890 -0.0910
26815SOL    HW181023   9.874   2.892   9.206  1.9189 -0.8732  1.4509
26815SOL    HW281024   9.978   2.811   9.130 -0.4507 -0.5303 -2.4339
26816SOL     OW81025   0.857   6.828   7.375 -0.2926  0.1018 -0.5758
26816SOL    HW181026   0.950   6.843   7.361  0.2306 -0.4644  1.8239
26816SOL    HW281027   0.823   6.911   7.408 -0.8154  0.4909 -2.0087
26817SOL     OW81028   7.596   8.202   5.777  0.3766 -0.0757  0.6953
26817SOL    HW181029   7.591   8.153   5.858 -1.4130 -0.6595  0.2684
26817SOL    HW281030   7.620   8.137   5.711  2.1811  0.4629  0.7793
26818SOL     OW81031   1.289   7.102   5.314 -0.1050 -0.0304  0.0610
26818SOL    HW181032   1.211   7.153   5.292  0.5326  1.4702  1.1103
26818SOL    HW281033   1.356   7.134   5.254 -0.2619 -1.3186 -0.8402
26819SOL     OW81034   4.673   0.983   9.590  0.0331  0.1470 -0.3652
26819SOL    HW181035   4.761   0.993   9.626  0.2153  0.1119 -0.7863
26819SOL    HW281036   4.614   1.017   9.657  0.2538 -1.2385  0.5689
26820SOL     OW81037   5.069   7.099   1.841  0.2528 -0.1738  0.1756
26820SOL    HW181038   4.974   7.096   1.847  0.3353  0.2697  2.5817
26820SOL    HW281039   5.090   7.045   1.765 -1.8581 -1.2773  0.3122
26821SOL     OW81040   8.859   0.364   1.385 -0.0577 -0.3320  0.6783
26821SOL    HW181041   8.769   0.336   1.366 -0.1960  0.1559  0.5891
26821SOL    HW281042   8.856   0.392   1.477 -0.1456  0.2365  0.5098
26822SOL     OW81043   7.028   4.837   8.626  0.7313 -0.2633  0.6154
26822SOL    HW181044   7.083   4.855   8.703  0.2050 -0.0390  0.9411
26822SOL    HW281045   6.955   4.898   8.634  1.6361  1.0980 -1.0849
26823SOL     OW81046   5.275   0.509   2.448 -0.2188 -0.1234 -0.7076
26823SOL    HW181047   5.231   0.593   2.440 -1.3845 -0.7147 -0.7922
26823SOL    HW281048   5.236   0.468   2.525 -0.6981 -1.1588 -1.4673
26824SOL     OW81049   0.311   5.758   0.816 -0.1248 -0.1408 -0.1417
26824SOL    HW181050   0.374   5.719   0.877 -0.4408  0.9445  0.9271
26824SOL    HW281051   0.271   5.683   0.771  1.7991 -0.8542 -0.7519
26825SOL     OW81052   4.808   5.615   2.312 -0.0484  0.2407  0.4926
26825SOL    HW181053   4.749   5.676   2.356 -0.9324 -0.2620  0.0287
26825SOL    HW281054   4.782   5.618   2.220  1.8706  1.4000 -0.0829
26826SOL     OW81055   7.362   5.440   3.120 -0.1177 -0.1240 -0.2226
26826SOL    HW181056   7.456   5.449   3.136 -0.4342  0.4891  1.6147
26826SOL    HW281057   7.343   5.497   3.046  0.7380  0.8717  0.3112
26827SOL     OW81058   9.891   9.073   8.467 -0.4042 -0.0327  0.2260
26827SOL    HW181059   9.985   9.076   8.486 -0.5596 -1.0148  1.2365
26827SOL    HW281060   9.883   9.116   8.382  1.1047 -0.8513 -0.3754
26828SOL     OW81061   1.957   4.722   1.134  0.1540  0.0208 -0.1449
26828SOL    HW181062   1.907   4.684   1.062 -1.2476  1.3127  0.0887
26828SOL    HW281063   2.047   4.723   1.103  0.0633 -2.2483 -0.6422
26829SOL     OW81064   4.896   6.122   6.280  0.1715  0.1040 -0.1592
26829SOL    HW181065   4.881   6.176   6.358  2.8069 -1.0157  1.2764
26829SOL    HW281066   4.827   6.056   6.283  0.4030 -0.1073  1.4408
26830SOL     OW81067   4.262   5.876   3.127 -0.0367  0.4646 -0.3018
26830SOL    HW181068   4.303   5.807   3.074  0.8939  0.5252  0.3307
26830SOL    HW281069   4.290   5.858   3.216  0.3608  1.7653 -0.1487
26831SOL     OW81070   6.384   9.871   8.790  0.1267 -0.3486 -0.1425
26831SOL    HW181071   6.338   9.942   8.746  1.0496  0.4214  0.1166
26831SOL    HW281072   6.336   9.859   8.872  0.7453  0.8932  0.4292
26832SOL     OW81073   9.468   2.768   6.169 -0.4558  0.5401  0.7254
26832SOL    HW181074   9.552   2.761   6.125  0.0997  0.3390  1.7960
26832SOL    HW281075   9.444   2.861   6.161 -0.3486  0.5127  0.0518
26833SOL     OW81076   6.671   9.070   4.963 -0.5535  0.3946 -0.4533
26833SOL    HW181077   6.700   9.133   4.897  3.0910 -0.0351  0.5381
26833SOL    HW281078   6.700   9.106   5.046 -0.7337 -1.3455  0.4172
26834SOL     OW81079   1.680   5.053   0.527  0.1780 -0.5056 -0.1160
26834SOL    HW181080   1.702   5.114   0.598 -0.8876  1.0127 -1.0202
26834SOL    HW281081   1.687   5.106   0.447 -2.0239 -1.2043 -0.8415
26835SOL     OW81082   2.128   3.675   8.914  0.5436 -0.2129 -0.8368
26835SOL    HW181083   2.093   3.597   8.871 -2.5954  0.9474 -0.6076
26835SOL    HW281084   2.171   3.724   8.844 -1.9301  0.2207 -2.1692
26836SOL     OW81085   5.700   8.141   0.109  0.0495 -0.4234  0.5053
26836SOL    HW181086   5.635   8.074   0.089  0.5227  0.0900 -3.7364
26836SOL    HW281087   5.658   8.223   0.083  1.0385  0.4086  1.4278
26837SOL     OW81088   3.911   0.680   5.543  0.3538  0.3532 -0.3388
26837SOL    HW181089   3.881   0.590   5.560  0.2395  0.4388 -0.0730
26837SOL    HW281090   3.878   0.700   5.456  1.0270 -0.1341 -0.7137
26838SOL     OW81091   6.455   6.929   5.048  0.6002  0.0854  0.4038
26838SOL    HW181092   6.522   6.945   5.114  2.0405 -0.1212 -0.9700
26838SOL    HW281093   6.503   6.901   4.970 -0.9993  0.7772 -0.8930
26839SOL     OW81094   9.265   0.522   9.656 -0.2699  0.1487 -0.0493
26839SOL    HW181095   9.212   0.563   9.724 -0.7255 -0.5355  0.0176
26839SOL    HW281096   9.355   0.531   9.688 -0.3364  1.2891 -0.1551
26840SOL     OW81097   9.097   4.445   1.276  0.3791  0.0009 -0.1028
26840SOL    HW181098   9.135   4.486   1.199 -0.4944 -0.9781 -1.1002
26840SOL    HW281099   9.007   4.477   1.279  0.0695 -0.8422 -0.1548
26841SOL     OW81100   9.451   7.878   7.848 -0.1648  0.4239 -0.0668
26841SOL    HW181101   9.395   7.802   7.829 -1.4762  0.5541  2.7343
26841SOL    HW281102   9.517   7.877   7.779 -1.7948 -1.5936 -1.7402
26842SOL     OW81103   2.979   9.773   9.485  0.5588  0.3356  0.0311
26842SOL    HW181104   3.048   9.836   9.466  0.8713 -0.0844 -0.2231
26842SOL    HW281105   3.022   9.702   9.532  0.2726  0.1521  0.0245
26843SOL     OW81106   1.244   7.124   3.340 -0.1485 -0.1967 -0.0660
26843SOL    HW181107   1.171   7.063   3.336  0.0750 -0.4116 -1.2168
26843SOL    HW281108   1.265   7.131   3.433 -1.4895 -0.2886  0.2614
26844SOL     OW81109   6.449   7.368   4.276  0.2517  0.7316 -0.3514
26844SOL    HW181110   6.489   7.440   4.227 -0.4342  1.5871  0.3187
26844SOL    HW281111   6.517   7.301   4.278  0.6060  1.0029 -1.7175
26845SOL     OW81112   0.638   4.748   8.003 -0.1634 -0.2474  0.0509
26845SOL    HW181113   0.558   4.708   8.036  0.2438  0.5329  2.0916
26845SOL    HW281114   0.707   4.683   8.020  0.1755  0.4702  1.5488
26846SOL     OW81115   0.126   4.739   6.979 -0.5571  0.4342  0.6696
26846SOL    HW181116   0.109   4.825   7.016 -0.3395  0.7484  0.0563
26846SOL    HW281117   0.171   4.757   6.896 -2.3719 -0.1969 -0.5007
26847SOL     OW81118   9.936   8.773   6.221 -0.1464 -0.0387 -0.1457
26847SOL    HW181119   9.895   8.799   6.139  0.6470  2.3136  0.1070
26847SOL    HW281120  10.030   8.785   6.206  0.0186  0.3713  1.0597
26848SOL     OW81121   7.719   2.650   1.883 -0.3784  0.4242 -0.3380
26848SOL    HW181122   7.736   2.730   1.933  0.4539  0.9435 -1.4131
26848SOL    HW281123   7.806   2.612   1.869 -0.6694 -0.0883 -0.7756
26849SOL     OW81124   3.559   0.146   7.876 -0.0795  0.4025 -0.1607
26849SOL    HW181125   3.481   0.182   7.919 -0.5967  0.5908 -1.2228
26849SOL    HW281126   3.623   0.136   7.946 -0.6389  1.4327  0.5166
26850SOL     OW81127   7.303   8.004   0.031  0.0524  0.5809 -0.1716
26850SOL    HW181128   7.257   7.939   0.084 -0.3823  0.9158 -0.1354
26850SOL    HW281129   7.234   8.047  -0.019  0.5755 -0.8055 -2.2300
26851SOL     OW81130   9.134   4.785   8.641  0.9123 -0.0387 -0.7596
26851SOL    HW181131   9.149   4.745   8.555 -0.5647 -2.1776 -0.1088
26851SOL    HW281132   9.218   4.824   8.664  1.8381 -0.9281 -2.4279
26852SOL     OW81133   8.500   7.709   4.229  0.3162  0.1529  0.3337
26852SOL    HW181134   8.514   7.618   4.257 -1.3428  0.2599  1.6876
26852SOL    HW281135   8.470   7.754   4.308  1.6265  2.0407 -0.1791
26853SOL     OW81136   5.228   0.837   7.831  0.6243 -0.1500  0.3945
26853SOL    HW181137   5.200   0.792   7.751 -1.0272 -0.1548  0.9468
26853SOL    HW281138   5.182   0.791   7.902 -0.3911  1.7925  1.0603
26854SOL     OW81139   0.437   7.865   9.862  0.1160 -0.2552  0.0328
26854SOL    HW181140   0.501   7.901   9.922  0.1139 -1.6652  0.9284
26854SOL    HW281141   0.391   7.798   9.913 -0.6525 -0.7082 -1.2056
26855SOL     OW81142   9.794   4.494   9.615 -0.0037 -0.0675 -0.3844
26855SOL    HW181143   9.749   4.410   9.624 -1.2129  0.6221  0.3739
26855SOL    HW281144   9.872   4.486   9.670 -0.0914 -0.6920 -0.3424
26856SOL     OW81145   3.839   7.174   1.908  0.9543  0.0733 -0.3078
26856SOL    HW181146   3.879   7.216   1.984  1.9745 -1.6135  0.1389
26856SOL    HW281147   3.902   7.107   1.882  0.0211 -0.2467 -1.8437
26857SOL     OW81148   2.918   8.672   2.598  0.4271 -0.5436 -0.0035
26857SOL    HW181149   2.885   8.635   2.680 -0.6990 -1.9034 -1.0092
26857SOL    HW281150   2.979   8.606   2.564 -0.4356 -0.8171 -1.0804
26858SOL     OW81151   5.675   9.136   9.150 -0.2177  0.1367 -0.1400
26858SOL    HW181152   5.658   9.158   9.241 -0.9328 -1.0643  0.0418
26858SOL    HW281153   5.721   9.052   9.153  0.1069  0.2753 -0.8704
26859SOL     OW81154   0.969   2.247   6.296  0.5421  0.3313  0.0444
26859SOL    HW181155   0.946   2.318   6.237  1.7985  0.3597 -0.4444
26859SOL    HW281156   1.004   2.290   6.374  1.1486  0.2591 -0.1845
26860SOL     OW81157   5.268   8.189   5.948  0.0319 -0.3294  0.0720
26860SOL    HW181158   5.292   8.130   6.019 -1.4827 -0.0608  0.8603
26860SOL    HW281159   5.208   8.138   5.893  0.4296 -0.2169 -0.4840
26861SOL     OW81160   2.102   8.176   2.931 -0.5390 -0.1314  0.4346
26861SOL    HW181161   2.146   8.246   2.883  0.6755 -1.3292 -0.2951
26861SOL    HW281162   2.169   8.143   2.991 -0.6582 -1.4548 -0.1118
26862SOL     OW81163   5.314   7.471   3.263  0.2318  0.1566  0.0584
26862SOL    HW181164   5.355   7.556   3.279 -1.7727  1.0819  0.6041
26862SOL    HW281165   5.310   7.465   3.167  2.4869 -0.4477 -0.0566
26863SOL     OW81166   7.726   3.266   1.161  0.0088 -0.9367  0.0989
26863SOL    HW181167   7.683   3.219   1.233 -0.7245  2.5848  2.1941
26863SOL    HW281168   7.812   3.289   1.195 -0.6322  1.4457  0.2423
26864SOL     OW81169   4.125   2.544   2.185  0.2402  0.1295 -0.2728
26864SOL    HW181170   4.035   2.575   2.196  0.5148  1.0494 -0.5436
26864SOL    HW281171   4.149   2.571   2.097  0.2094 -1.6524 -0.8696
26865SOL     OW81172   0.221   3.766   0.085 -0.3108 -0.3850  0.7115
26865SOL    HW181173   0.218   3.699   0.153 -0.4690 -1.7665 -0.5843
26865SOL    HW281174   0.178   3.842   0.123 -2.2538 -1.7898  1.4695
26866SOL     OW81175   2.424   8.683   1.865  0.3513  1.0427 -0.3522
26866SOL    HW181176   2.416   8.641   1.779  0.7554 -0.1900  0.1927
26866SOL    HW281177   2.354   8.749   1.866 -0.3554  0.3268 -1.1992
26867SOL     OW81178   2.871   9.256   3.819 -0.2436  0.6337  0.0049
26867SOL    HW181179   2.807   9.325   3.799  0.2322  0.8310 -0.8904
26867SOL    HW281180   2.826   9.175   3.797 -0.0946  0.7884 -0.8973
26868SOL     OW81181   4.438   4.074   9.801  0.0926 -0.0332  0.4102
26868SOL    HW181182   4.446   4.166   9.829 -0.5276  0.6022 -1.3786
26868SOL    HW281183   4.495   4.067   9.725 -1.3257 -0.5773 -0.6561
26869SOL     OW81184   4.211   6.887   4.722  0.1522  0.2866 -0.1889
26869SOL    HW181185   4.242   6.977   4.737 -1.3477  0.4708  2.7562
26869SOL    HW281186   4.232   6.841   4.804 -1.6656 -1.2202 -0.5073
26870SOL     OW81187   6.553   7.795   8.528  0.6658  0.5054 -0.7274
26870SOL    HW181188   6.627   7.784   8.469  1.1380 -1.5425  0.1722
26870SOL    HW281189   6.592   7.821   8.611  0.0430  2.8827 -1.0893
26871SOL     OW81190   3.899   2.088   9.594  0.0189  0.1892  0.6553
26871SOL    HW181191   3.813   2.104   9.633 -0.6347 -0.1811 -0.5774
26871SOL    HW281192   3.962   2.121   9.658 -1.0115 -0.3657  1.9799
26872SOL     OW81193   7.830   9.125   0.815 -0.5462  0.4462 -0.0914
26872SOL    HW181194   7.910   9.104   0.766 -0.4028  1.1567 -0.1700
26872SOL    HW281195   7.762   9.074   0.772 -0.2872  0.4970 -0.5728
26873SOL     OW81196   0.099   2.959   0.133  0.0694 -0.3322 -0.2059
26873SOL    HW181197   0.141   3.042   0.157 -0.8520  0.0131  0.2640
26873SOL    HW281198   0.113   2.952   0.039  0.2761  0.2933 -0.2309
26874SOL     OW81199   5.374   3.526   3.701 -0.4280  0.4828 -0.2923
26874SOL    HW181200   5.368   3.436   3.734  0.0461  0.0128 -1.4465
26874SOL    HW281201   5.340   3.522   3.612 -1.7193  1.7433  0.1046
26875SOL     OW81202   2.222   0.766   7.523 -0.5231 -0.6368 -0.5062
26875SOL    HW181203   2.288   0.788   7.457  0.0743 -0.5604  0.0988
26875SOL    HW281204   2.182   0.850   7.546 -0.1282 -0.5415 -0.1532
26876SOL     OW81205   6.254   6.973   6.778  0.6831 -0.0637 -0.1807
26876SOL    HW181206   6.325   7.010   6.830 -0.6258  1.0041  0.8957
26876SOL    HW281207   6.239   7.036   6.708 -0.0848  0.4141  0.3897
26877SOL     OW81208   4.849   3.546   8.416  0.3545 -0.2718  0.0057
26877SOL    HW181209   4.801   3.554   8.333  2.6268  0.4332 -1.3181
26877SOL    HW281210   4.887   3.459   8.413  0.3430 -0.2909  0.3803
26878SOL     OW81211   6.668   6.511   7.824  0.0622 -0.3634  0.4005
26878SOL    HW181212   6.764   6.505   7.828  0.0780  0.0019  3.5209
26878SOL    HW281213   6.650   6.605   7.827 -0.4045 -0.4402  0.0878
26879SOL     OW81214  -0.000   4.141   5.279 -0.1439  0.1355 -0.2684
26879SOL    HW181215   0.055   4.069   5.308  1.5769  1.1218 -0.9079
26879SOL    HW281216  -0.046   4.108   5.202  1.5496  0.0578 -1.2856
26880SOL     OW81217   4.927   2.196   1.731 -0.1418 -0.9394  0.6953
26880SOL    HW181218   4.883   2.139   1.793 -1.6710  1.1591  1.6668
26880SOL    HW281219   5.019   2.170   1.735 -0.9577 -4.4524 -0.2612
26881SOL     OW81220   6.218   1.265   5.063  0.2383  0.0795 -0.3396
26881SOL    HW181221   6.269   1.323   5.007 -0.3617  0.5581 -0.3976
26881SOL    HW281222   6.278   1.241   5.134  1.0147 -0.5734 -1.2029
26882SOL     OW81223   4.799   5.172   4.845  0.3370  0.7625 -0.0076
26882SOL    HW181224   4.761   5.237   4.905  0.0753  1.7126 -1.1805
26882SOL    HW281225   4.874   5.216   4.805  1.4745 -0.4126  0.7644
26883SOL     OW81226   1.957   6.729   8.203  0.3485 -0.8034 -0.2474
26883SOL    HW181227   1.882   6.675   8.178 -0.1650  0.0530 -0.5775
26883SOL    HW281228   1.919   6.811   8.234  1.1650  0.1017 -1.5233
26884SOL     OW81229   6.157   1.847   2.880 -0.8400 -0.1708 -0.3471
26884SOL    HW181230   6.073   1.812   2.909  0.3173 -2.2636  0.6873
26884SOL    HW281231   6.202   1.871   2.961 -0.0907  0.1215 -0.8414
26885SOL     OW81232   4.418   8.709   0.818 -0.1725  0.1588 -0.3665
26885SOL    HW181233   4.413   8.804   0.833  1.5220  0.1488  0.5326
26885SOL    HW281234   4.511   8.689   0.824 -0.7083 -2.0640  2.6390
26886SOL     OW81235   0.762   3.497   7.164 -0.2906 -0.2594 -0.2632
26886SOL    HW181236   0.745   3.443   7.242 -1.5507 -0.0596 -0.3695
26886SOL    HW281237   0.697   3.567   7.170  1.3222  1.2793 -0.1189
26887SOL     OW81238   3.906   4.618   4.225  0.0340  0.1194  0.1716
26887SOL    HW181239   3.846   4.563   4.175  0.0398  0.9601 -0.7971
26887SOL    HW281240   3.989   4.569   4.225 -0.8541 -1.5524  2.4180
26888SOL     OW81241   6.074   6.452   4.373 -0.0653  0.1172 -0.3890
26888SOL    HW181242   6.071   6.368   4.420 -0.1374  0.9583  1.1863
26888SOL    HW281243   6.049   6.517   4.439  2.2205  1.6412 -0.9033
26889SOL     OW81244   4.355   1.309   2.477 -0.2075  0.4838  0.4870
26889SOL    HW181245   4.340   1.361   2.557  2.3955  1.7390  0.2584
26889SOL    HW281246   4.429   1.252   2.499  0.0094  0.2555 -0.7604
26890SOL     OW81247   5.827   5.588   0.654 -0.4414 -0.3944 -0.3908
26890SOL    HW181248   5.873   5.567   0.735 -2.8044  0.1453  1.2001
26890SOL    HW281249   5.737   5.606   0.681 -0.5604  3.5146 -2.6226
26891SOL     OW81250   2.177   6.221   7.022  0.2838  0.0015 -1.0045
26891SOL    HW181251   2.143   6.154   6.962  1.3082 -1.0375 -0.4668
26891SOL    HW281252   2.107   6.286   7.028 -1.5097 -1.8745 -0.2164
26892SOL     OW81253   9.684   5.271   8.480  0.0257  0.7377  0.2952
26892SOL    HW181254   9.743   5.344   8.494  0.1215  0.7545 -0.1952
26892SOL    HW281255   9.628   5.298   8.408  0.5076  0.0628 -0.3528
26893SOL     OW81256   3.080   7.866   7.552  0.1361 -0.2534  0.2519
26893SOL    HW181257   3.099   7.930   7.622 -1.3446  0.1756  0.3056
26893SOL    HW281258   2.984   7.867   7.546  0.2169 -0.8453 -1.2820
26894SOL     OW81259   3.637   1.275   7.721  0.0488  0.1131 -0.7781
26894SOL    HW181260   3.719   1.240   7.684 -1.0532 -2.0848 -1.3447
26894SOL    HW281261   3.636   1.366   7.693  2.3791  0.2677 -0.5974
26895SOL     OW81262   0.564   1.819   2.232 -0.7639 -0.1617 -0.2379
26895SOL    HW181263   0.516   1.797   2.312  1.4109 -0.0113  1.1906
26895SOL    HW281264   0.517   1.894   2.195 -3.1501 -1.6374 -0.4310
26896SOL     OW81265   6.354   3.431   1.235  0.0012 -0.7314 -0.5902
26896SOL    HW181266   6.272   3.420   1.186 -0.6541 -1.3486  0.5796
26896SOL    HW281267   6.342   3.512   1.285  0.2090 -0.6816 -0.6196
26897SOL     OW81268   8.132   8.563   4.573 -0.2503 -0.2330 -0.0738
26897SOL    HW181269   8.082   8.634   4.531  0.1717  0.1975  0.1500
26897SOL    HW281270   8.120   8.578   4.667 -0.0920 -0.4110 -0.0261
26898SOL     OW81271   7.150   6.954   0.681  0.1593 -0.0645 -0.2016
26898SOL    HW181272   7.192   7.015   0.742 -0.5824 -0.0918  0.3489
26898SOL    HW281273   7.133   6.876   0.732 -0.7953  0.0399 -0.3353
26899SOL     OW81274   5.340   8.591   8.914  0.2614 -0.1170 -0.7950
26899SOL    HW181275   5.340   8.508   8.961 -0.9386 -0.1494 -0.8428
26899SOL    HW281276   5.385   8.652   8.973  1.1825 -0.7936 -0.7774
26900SOL     OW81277   8.073   9.154   7.325  0.0210 -0.3081  0.0022
26900SOL    HW181278   8.101   9.102   7.249 -0.8652 -3.4656  1.6837
26900SOL    HW281279   7.978   9.159   7.316  0.1059  1.3303 -0.2442
26901SOL     OW81280   7.565   2.199   1.240  0.2285  0.6579  0.1238
26901SOL    HW181281   7.610   2.238   1.315 -1.0534 -0.5823  1.6171
26901SOL    HW281282   7.560   2.106   1.262 -0.9820  0.4153 -1.0778
26902SOL     OW81283   4.510   6.052   8.139  0.0177 -0.5171  0.1114
26902SOL    HW181284   4.444   6.109   8.100 -0.9601 -1.5914  0.1303
26902SOL    HW281285   4.506   5.972   8.087  3.2138  0.2788 -1.6300
26903SOL     OW81286   0.177   4.119   6.705  0.0479  0.3318 -0.5655
26903SOL    HW181287   0.210   4.031   6.686 -0.2484 -0.3618  1.8307
26903SOL    HW281288   0.089   4.105   6.740  0.4216  1.4783  0.9213
26904SOL     OW81289   8.354   6.171   0.426  0.1495 -0.1257  0.7019
26904SOL    HW181290   8.361   6.124   0.343  0.0290  0.7226  0.1937
26904SOL    HW281291   8.260   6.172   0.446 -0.0299  1.1830 -0.0775
26905SOL     OW81292   5.669   2.097   9.257  0.7800  0.2160  0.1130
26905SOL    HW181293   5.666   2.098   9.353  0.4811 -3.5347  0.2926
26905SOL    HW281294   5.758   2.069   9.236  0.5432  0.0366 -0.6672
26906SOL     OW81295   4.593   4.820   7.015  0.0923  0.0645  0.2017
26906SOL    HW181296   4.581   4.914   7.017 -0.9873 -0.0743  1.9816
26906SOL    HW281297   4.675   4.805   7.064  0.1971  0.0723  0.0282
26907SOL     OW81298   0.181   9.131   8.543 -0.4349  0.3112 -0.2524
26907SOL    HW181299   0.166   9.225   8.537 -1.4458  0.2031  0.3132
26907SOL    HW281300   0.203   9.116   8.635 -1.6482 -0.1643 -0.0216
26908SOL     OW81301   7.195   0.832   9.286  0.3543  0.1956 -0.6899
26908SOL    HW181302   7.115   0.879   9.261 -0.0264 -0.1534 -0.1510
26908SOL    HW281303   7.164   0.753   9.330  0.9819  0.8648  1.0478
26909SOL     OW81304   7.845   1.669   7.754 -0.2022  0.1542 -0.5741
26909SOL    HW181305   7.858   1.763   7.766 -1.1336  0.1084  1.0309
26909SOL    HW281306   7.850   1.632   7.842  2.5050 -1.6687 -1.3482
26910SOL     OW81307   3.836   7.689   3.052  0.5376 -0.0953  0.3410
26910SOL    HW181308   3.825   7.772   3.098  0.1804 -0.9482  1.8723
26910SOL    HW281309   3.920   7.697   3.007 -0.7342  2.1112 -1.8424
26911SOL     OW81310   0.582   3.930   2.932  0.6415 -0.4157  0.3773
26911SOL    HW181311   0.594   3.885   3.015  0.7665 -1.3267 -0.1104
26911SOL    HW281312   0.634   3.878   2.870  1.1190  0.6567 -0.1330
26912SOL     OW81313   9.951   2.958   1.962 -0.5271 -0.2245 -1.2693
26912SOL    HW181314  10.042   2.948   1.989 -0.6129 -0.0923 -0.9329
26912SOL    HW281315   9.918   2.869   1.953 -1.3882 -0.3700  2.0073
26913SOL     OW81316   3.459   0.753   0.129  0.0843 -0.6415  0.3093
26913SOL    HW181317   3.423   0.812   0.063  0.8514  0.1604  0.5882
26913SOL    HW281318   3.443   0.797   0.212  2.0975 -0.0035  0.4166
26914SOL     OW81319   7.473   4.345   1.982 -0.1474  0.0246  0.2301
26914SOL    HW181320   7.496   4.256   1.954  1.4637 -0.0953  1.7232
26914SOL    HW281321   7.521   4.357   2.064 -0.4079  2.2483  0.1180
26915SOL     OW81322   7.976   7.052   0.423  0.1973  0.5363  0.2803
26915SOL    HW181323   7.954   6.965   0.456 -2.9903  1.7298  1.6796
26915SOL    HW281324   7.947   7.052   0.332 -1.3178  0.5864  0.7434
26916SOL     OW81325   5.469   9.609   1.581  0.1713  0.4542 -0.3057
26916SOL    HW181326   5.558   9.574   1.579 -0.8840 -2.6396  0.5545
26916SOL    HW281327   5.445   9.610   1.674 -1.6079 -1.5871 -0.6724
26917SOL     OW81328   0.675   7.521   3.575 -0.1095  0.2560 -0.1654
26917SOL    HW181329   0.705   7.519   3.484  0.1170  1.0770 -0.1149
26917SOL    HW281330   0.746   7.563   3.623 -0.0501 -0.5415  0.4716
26918SOL     OW81331   5.991   5.648   4.951  0.1285 -0.2116  0.1968
26918SOL    HW181332   6.021   5.711   5.016 -1.0499  0.2757  0.2977
26918SOL    HW281333   5.978   5.701   4.872  0.1897 -0.5379 -0.0331
26919SOL     OW81334   1.024   9.666   6.010  0.7055 -0.4774  0.3162
26919SOL    HW181335   1.108   9.712   6.016  2.5735 -3.4866 -0.2820
26919SOL    HW281336   1.047   9.574   6.022 -2.6007 -1.4265  0.3112
26920SOL     OW81337   0.965   0.356   0.092 -0.1582  0.0033  0.3058
26920SOL    HW181338   1.004   0.407   0.020  0.4653 -0.8823  0.0011
26920SOL    HW281339   0.881   0.399   0.109 -0.1181  0.4909 -0.6632
26921SOL     OW81340   8.188   7.260   4.543  0.1173 -0.7809  0.0153
26921SOL    HW181341   8.225   7.256   4.631  0.5932  2.6734  0.1155
26921SOL    HW281342   8.094   7.276   4.557  0.0889 -0.8319 -0.1174
26922SOL     OW81343   9.253   6.979   8.245  0.0046  0.2516  0.2975
26922SOL    HW181344   9.297   6.908   8.290  0.9006  0.8242  0.3614
26922SOL    HW281345   9.166   6.945   8.223  0.3794 -0.8047  0.4263
26923SOL     OW81346   4.276   1.872   2.404 -0.3348 -0.1599 -0.7309
26923SOL    HW181347   4.245   1.904   2.489  2.0978  0.9560 -0.1781
26923SOL    HW281348   4.320   1.947   2.365  1.2276 -1.4793 -1.6156
26924SOL     OW81349   4.960   3.977   0.839  0.1075  0.0243  0.0285
26924SOL    HW181350   5.052   4.004   0.836 -0.1361  0.8512 -0.1799
26924SOL    HW281351   4.963   3.889   0.877  1.1369 -0.7121 -1.6228
26925SOL     OW81352   7.588   0.757   6.470 -0.0980  0.1637  0.1647
26925SOL    HW181353   7.581   0.829   6.407 -1.1978  0.1453  0.2425
26925SOL    HW281354   7.506   0.761   6.519 -1.1070 -2.4330 -1.1884
26926SOL     OW81355   3.678   0.168   3.772  0.2669  0.1606 -0.1900
26926SOL    HW181356   3.680   0.098   3.708 -1.6071 -0.8605  0.7826
26926SOL    HW281357   3.650   0.245   3.723  0.3502 -0.2476 -0.8838
26927SOL     OW81358   5.470   0.535   9.873  0.1897  0.7586 -0.5234
26927SOL    HW181359   5.490   0.619   9.832  0.4472  0.8805 -0.1443
26927SOL    HW281360   5.446   0.556   9.963  0.7586  0.3791 -0.2811
26928SOL     OW81361   9.970   9.834   7.939  0.1456  0.5260 -0.4876
26928SOL    HW181362   9.914   9.834   7.861 -1.6723  0.9009  0.7438
26928SOL    HW281363   9.985   9.742   7.958 -1.6866  0.3291  0.2148
26929SOL     OW81364   8.074   6.489   6.398  0.7398 -0.2905 -0.2943
26929SOL    HW181365   8.044   6.478   6.308 -1.0158 -2.0522  0.4125
26929SOL    HW281366   8.109   6.578   6.402  0.0549  0.1309 -2.4713
26930SOL     OW81367   5.377   4.706   8.991  0.0674  0.7306  0.0264
26930SOL    HW181368   5.380   4.754   8.908 -1.8353  0.3200 -0.3074
26930SOL    HW281369   5.327   4.762   9.050 -1.7077 -0.5438 -0.2082
26931SOL     OW81370   1.207   7.785   9.602  0.1116  0.1821 -0.1696
26931SOL    HW181371   1.286   7.754   9.558  0.3724  0.1717  0.3045
26931SOL    HW281372   1.238   7.847   9.668 -0.1110 -1.0616  1.1661
26932SOL     OW81373   1.080   1.960   0.677 -0.3026  0.3491  0.3042
26932SOL    HW181374   1.123   2.044   0.692  0.3568  0.1077 -0.1942
26932SOL    HW281375   1.125   1.899   0.736  1.2876 -0.2831 -1.4808
26933SOL     OW81376   8.770   8.946   9.632  0.6737 -0.6163  0.6601
26933SOL    HW181377   8.685   8.983   9.608  1.1871  1.4577  1.7582
26933SOL    HW281378   8.792   8.888   9.560  0.3398  2.2027 -1.9073
26934SOL     OW81379   6.728   5.423   6.604  0.0412 -0.7335  0.1179
26934SOL    HW181380   6.700   5.447   6.692 -0.9871  0.3491 -0.4755
26934SOL    HW281381   6.679   5.482   6.546  1.3985 -0.7711 -1.1285
26935SOL     OW81382   7.645   3.130   2.236 -0.3194 -0.4439 -0.0391
26935SOL    HW181383   7.704   3.170   2.300  1.2127 -4.3504  1.2820
26935SOL    HW281384   7.573   3.095   2.289 -0.3214 -1.5718 -0.7653
26936SOL     OW81385   1.213   7.623   4.784 -0.3000  0.8124  0.2043
26936SOL    HW181386   1.277   7.688   4.755 -0.1653  0.1679 -1.0099
26936SOL    HW281387   1.165   7.600   4.705 -0.4568 -0.4443  0.6421
26937SOL     OW81388   6.142   7.123   3.332 -0.6381 -0.6484  0.3391
26937SOL    HW181389   6.102   7.046   3.372 -0.4008 -0.7295  0.4182
26937SOL    HW281390   6.228   7.094   3.301 -1.1054 -0.7733 -0.8916
26938SOL     OW81391   4.096   7.003   2.593 -0.0632 -0.2756  0.0530
26938SOL    HW181392   4.008   6.981   2.563  0.2532 -0.3888 -0.8070
26938SOL    HW281393   4.152   6.936   2.555  0.3418 -0.4790  0.9868
26939SOL     OW81394   9.958   3.555   9.747 -0.0284  0.2810 -0.2974
26939SOL    HW181395   9.914   3.597   9.673 -1.0325  1.0505  0.6969
26939SOL    HW281396   9.907   3.583   9.823  0.3456 -1.3377  0.5826
26940SOL     OW81397   0.602   0.120   8.906 -0.0897 -0.1314  0.1456
26940SOL    HW181398   0.647   0.153   8.828  2.8479 -1.3220  1.1696
26940SOL    HW281399   0.612   0.025   8.902 -3.1528 -0.5530  0.2131
26941SOL     OW81400   3.852   6.374   8.964  0.1121  0.6771  0.1329
26941SOL    HW181401   3.793   6.439   9.002 -0.6631 -0.0580  0.1929
26941SOL    HW281402   3.842   6.296   9.018 -0.1904 -0.0288 -0.9108
26942SOL     OW81403   9.535   8.500   8.758 -0.2046  0.2416 -0.0097
26942SOL    HW181404   9.618   8.546   8.753 -0.8345  1.4612  0.3062
26942SOL    HW281405   9.490   8.521   8.676 -0.9947  1.2255  0.6486
26943SOL     OW81406   3.524   2.835   5.386  0.9363  0.0630  0.4550
26943SOL    HW181407   3.433   2.812   5.404  0.6515 -0.4343 -1.4330
26943SOL    HW281408   3.530   2.928   5.408  0.5742 -0.3592  2.6177
26944SOL     OW81409   4.588   3.785   8.228 -0.0352 -0.1739 -0.5311
26944SOL    HW181410   4.494   3.794   8.213 -0.3780  0.9782  1.8599
26944SOL    HW281411   4.625   3.866   8.194 -0.1278  0.1242  0.0794
26945SOL     OW81412   9.792   8.991   9.996  0.2791 -0.2966  0.1847
26945SOL    HW181413   9.796   8.990   9.901 -2.1143  0.8446  0.0108
26945SOL    HW281414   9.803   9.083  10.020 -1.3347 -0.2291  0.8221
26946SOL     OW81415   3.796   7.439   3.952 -0.3858 -0.3169 -0.2917
26946SOL    HW181416   3.777   7.406   3.865  2.4888 -0.2531 -1.0499
26946SOL    HW281417   3.764   7.371   4.011 -2.0148 -0.5448 -1.3909
26947SOL     OW81418   3.129   1.744   5.270  0.5834 -0.5293 -0.7740
26947SOL    HW181419   3.184   1.704   5.203  1.1733 -1.4081  0.2057
26947SOL    HW281420   3.116   1.675   5.335  2.0906  0.9646  1.2662
26948SOL     OW81421   8.748   0.304   2.440 -0.1208 -0.1012 -0.0664
26948SOL    HW181422   8.832   0.274   2.405 -0.3033 -0.0744 -0.5361
26948SOL    HW281423   8.685   0.281   2.372 -0.2921  1.1950 -0.3683
26949SOL     OW81424   9.221   2.043   7.491  0.5612  0.8559  0.0189
26949SOL    HW181425   9.225   2.135   7.517 -0.2079  0.9245 -0.0672
26949SOL    HW281426   9.171   2.001   7.561  0.7775  0.5349 -0.0181
26950SOL     OW81427   5.162   9.592   0.674 -0.1539 -0.0623 -0.0439
26950SOL    HW181428   5.112   9.655   0.727 -1.6704 -0.6929 -0.6778
26950SOL    HW281429   5.191   9.642   0.598 -1.0276 -0.0294 -0.3597
26951SOL     OW81430   6.430   2.296   6.415 -0.1691  0.3541 -0.3710
26951SOL    HW181431   6.504   2.235   6.416 -0.5591 -0.2115 -2.0374
26951SOL    HW281432   6.352   2.241   6.418 -0.5203  0.8392 -0.3627
26952SOL     OW81433   3.673   4.369   9.261 -0.2512  0.0560  0.3648
26952SOL    HW181434   3.620   4.338   9.188 -1.2276  0.5561  0.8388
26952SOL    HW281435   3.696   4.290   9.310 -0.3148 -0.1889  0.0027
26953SOL     OW81436   9.459   6.693   3.567  0.8510 -0.2705 -0.1843
26953SOL    HW181437   9.471   6.750   3.491  0.3797 -1.1124 -0.9053
26953SOL    HW281438   9.416   6.615   3.532  1.3151 -0.9977  0.8197
26954SOL     OW81439   2.383   7.459   0.459 -0.1473 -0.9698  0.3252
26954SOL    HW181440   2.330   7.445   0.380 -1.0513 -1.4848  1.0069
26954SOL    HW281441   2.346   7.399   0.524  0.0917 -0.0131  1.3732
26955SOL     OW81442   3.678   4.624   6.532  0.1024  0.1976 -0.0445
26955SOL    HW181443   3.622   4.547   6.520 -0.6731  0.7332  0.0473
26955SOL    HW281444   3.701   4.651   6.443 -0.4356  0.4381 -0.1130
26956SOL     OW81445   5.087   1.272   4.513 -0.0227 -0.7087  0.2490
26956SOL    HW181446   4.995   1.250   4.494 -0.4595 -0.0817  1.5591
26956SOL    HW281447   5.090   1.280   4.608  1.4476 -0.9109  0.2284
26957SOL     OW81448   1.532   5.500   7.267 -0.4808 -0.4359  0.3569
26957SOL    HW181449   1.485   5.529   7.188 -1.5787  1.0814  1.5185
26957SOL    HW281450   1.601   5.565   7.279 -0.7873 -0.2362  1.0637
26958SOL     OW81451   3.889   6.623   7.637 -0.3473 -0.4044  0.1204
26958SOL    HW181452   3.817   6.579   7.681 -0.7464  2.0755  2.1955
26958SOL    HW281453   3.967   6.600   7.688 -0.1645 -0.6232 -0.2523
26959SOL     OW81454   7.702   6.395   6.742 -0.5899 -0.0509  0.4214
26959SOL    HW181455   7.760   6.320   6.755 -0.1992  0.3586  1.0655
26959SOL    HW281456   7.702   6.441   6.826  0.4797  1.6061 -0.4462
26960SOL     OW81457   4.813   2.056   4.512  0.2288  0.1026  0.1487
26960SOL    HW181458   4.803   1.990   4.443 -0.7903  0.0815  0.3054
26960SOL    HW281459   4.835   2.137   4.466 -3.2536  0.7971 -0.5355
26961SOL     OW81460   7.138   3.651   4.699  0.0402 -0.7077  0.0417
26961SOL    HW181461   7.148   3.556   4.705  0.8453 -0.6388 -0.1114
26961SOL    HW281462   7.216   3.686   4.743 -1.0361 -0.0980  1.5339
26962SOL     OW81463   1.853   4.425   0.334  0.1532 -0.8627  0.7602
26962SOL    HW181464   1.949   4.428   0.343  0.1251 -0.6657  1.0285
26962SOL    HW281465   1.826   4.352   0.390  0.1399 -0.8455  0.7763
26963SOL     OW81466   8.329   3.804   1.156  0.1829  0.1448 -0.7513
26963SOL    HW181467   8.317   3.715   1.121 -1.2000 -0.2070  0.5112
26963SOL    HW281468   8.417   3.802   1.194  0.3665 -0.5285 -1.1836
26964SOL     OW81469   1.114   9.156   3.371 -0.4004 -0.4618  0.5309
26964SOL    HW181470   1.072   9.104   3.303  1.0332  0.2478 -0.9732
26964SOL    HW281471   1.073   9.127   3.453 -1.4531 -2.0717 -0.5175
26965SOL     OW81472   5.964   4.831   0.775  0.4375 -0.2068 -0.0517
26965SOL    HW181473   6.011   4.820   0.692 -1.4018  0.0159 -1.1696
26965SOL    HW281474   5.875   4.853   0.749 -0.3099 -0.6394  1.9965
26966SOL     OW81475   1.774   2.711   5.686 -0.0384 -0.1833 -0.2512
26966SOL    HW181476   1.835   2.675   5.751 -1.6126  1.0667  2.0769
26966SOL    HW281477   1.789   2.806   5.691 -2.1464  0.1514  0.4246
26967SOL     OW81478   5.515   7.639   2.243 -0.4799 -0.9918  0.6905
26967SOL    HW181479   5.560   7.596   2.170 -0.5278  1.0186 -0.6204
26967SOL    HW281480   5.556   7.725   2.249 -1.4757 -0.5718  2.1131
26968SOL     OW81481   3.142   4.221   7.099 -0.1339 -0.2610 -0.3173
26968SOL    HW181482   3.230   4.243   7.068 -0.6814  0.0177 -1.7549
26968SOL    HW281483   3.107   4.304   7.133  0.9884 -0.8543  2.5381
26969SOL     OW81484   4.803   9.932   7.103  0.4323  0.4700 -0.0058
26969SOL    HW181485   4.818   9.993   7.031  0.3408 -0.5313 -0.9028
26969SOL    HW281486   4.711   9.909   7.096  0.9360 -1.4344 -1.0831
26970SOL     OW81487   8.517   7.736   4.512 -0.6348  0.0845  0.7156
26970SOL    HW181488   8.608   7.713   4.527 -1.1339 -1.7865  1.1550
26970SOL    HW281489   8.494   7.794   4.585  0.1397  0.3762  0.7272
26971SOL     OW81490   3.614   6.871   0.504 -0.9955  0.4330  0.0232
26971SOL    HW181491   3.672   6.942   0.531 -0.7853 -0.1845  1.3155
26971SOL    HW281492   3.575   6.840   0.586  0.2340 -2.0522 -0.2264
26972SOL     OW81493   0.237   7.457   8.247 -0.6471 -0.5553 -0.3083
26972SOL    HW181494   0.328   7.464   8.278 -0.9262 -0.7490  0.5953
26972SOL    HW281495   0.196   7.538   8.276 -0.2586  0.5235 -2.5800
26973SOL     OW81496   2.379   2.153   9.627 -0.4355 -0.2607 -0.0850
26973SOL    HW181497   2.399   2.149   9.533 -2.2136 -0.5368 -0.4834
26973SOL    HW281498   2.384   2.247   9.647  0.5972 -0.2569 -0.2839
26974SOL     OW81499   3.156   3.213   4.250 -0.0712  0.0844  0.3533
26974SOL    HW181500   3.086   3.199   4.314 -0.2665 -1.3496 -0.1317
26974SOL    HW281501   3.231   3.243   4.302 -0.3615 -0.6288  1.2116
26975SOL     OW81502   6.256   8.846   4.968  0.5838  0.1245  0.5474
26975SOL    HW181503   6.285   8.773   5.022 -0.5553 -0.5225  0.3152
26975SOL    HW281504   6.162   8.833   4.958  0.3797  1.5535  0.3808
26976SOL     OW81505   5.698   4.563   4.292  0.3825  0.1670 -0.5037
26976SOL    HW181506   5.716   4.650   4.326 -0.7015  0.2519 -0.1021
26976SOL    HW281507   5.725   4.504   4.362 -2.5540  0.3679  0.9725
26977SOL     OW81508   9.466   9.958   2.221 -0.2378  0.8258 -0.2158
26977SOL    HW181509   9.443  10.050   2.238  0.1057  0.7515  0.6833
26977SOL    HW281510   9.384   9.911   2.237 -1.0142  1.1610 -2.7300
26978SOL     OW81511   5.656   0.149   1.233  0.0314 -0.1578 -0.2650
26978SOL    HW181512   5.665   0.222   1.171 -2.0505 -0.1029 -0.5672
26978SOL    HW281513   5.689   0.073   1.185 -1.6251 -0.1326 -1.5659
26979SOL     OW81514   0.600   0.078   1.229  0.6393 -0.3848 -0.1886
26979SOL    HW181515   0.564   0.145   1.171  1.9385 -0.3522 -0.9973
26979SOL    HW281516   0.689   0.108   1.248  1.3206 -1.9503 -0.7247
26980SOL     OW81517   4.694   1.019   1.914  0.1179  0.7543 -0.6143
26980SOL    HW181518   4.692   0.969   1.995  0.5676 -2.9435 -2.6963
26980SOL    HW281519   4.628   1.088   1.928 -2.9573 -2.2423  1.4535
26981SOL     OW81520   8.246   9.111   3.265 -0.1163  0.2989  0.1166
26981SOL    HW181521   8.287   9.148   3.343  1.5411 -0.9064 -0.1137
26981SOL    HW281522   8.251   9.181   3.200  1.4949  0.2664  0.1617
26982SOL     OW81523   6.065   2.576   0.348 -0.1553  0.1624  0.0154
26982SOL    HW181524   6.041   2.646   0.287 -1.0367  0.7241  0.9881
26982SOL    HW281525   6.059   2.616   0.435  0.4470 -0.8097  0.5306
26983SOL     OW81526   4.088   3.059   3.381  0.2014 -0.2620  0.4490
26983SOL    HW181527   4.139   2.980   3.401  0.2718 -0.0428  1.1751
26983SOL    HW281528   4.006   3.047   3.429  0.0110 -0.1208  0.1584
26984SOL     OW81529   6.679   7.981   6.072  0.3172  0.1260  0.1889
26984SOL    HW181530   6.758   7.934   6.046  0.6869 -0.0865  1.6045
26984SOL    HW281531   6.607   7.926   6.041  0.5710  1.6594 -3.6209
26985SOL     OW81532   6.899   8.137   1.776 -0.2791  0.3244  0.6706
26985SOL    HW181533   6.935   8.103   1.857 -1.6990 -0.1190  1.1522
26985SOL    HW281534   6.967   8.194   1.740  1.5584 -1.8013  0.6215
26986SOL     OW81535   1.495   0.753   6.721 -0.4082  0.1894 -0.2962
26986SOL    HW181536   1.587   0.771   6.742 -0.4711 -1.0168  1.1832
26986SOL    HW281537   1.500   0.690   6.649 -0.0541 -0.2466  0.0994
26987SOL     OW81538   1.806   2.121   1.384  0.4951 -0.6732 -0.6203
26987SOL    HW181539   1.766   2.208   1.379  1.2933 -0.3534 -3.1022
26987SOL    HW281540   1.781   2.088   1.470  0.4698  2.1459  0.5704
26988SOL     OW81541   6.637   2.624   5.824  0.1341 -0.5560 -0.0941
26988SOL    HW181542   6.556   2.583   5.795 -1.4895  1.0871  1.8102
26988SOL    HW281543   6.674   2.562   5.887  0.5857 -1.4658 -1.2219
26989SOL     OW81544   0.764   9.309   2.213  0.3544  0.2859 -0.0876
26989SOL    HW181545   0.833   9.314   2.279  1.3631  0.9713 -1.1621
26989SOL    HW281546   0.721   9.394   2.217  0.4473  0.3463 -0.3351
26990SOL     OW81547   1.780   0.649   5.173 -0.0596 -0.1463 -0.3974
26990SOL    HW181548   1.836   0.580   5.136 -0.2162 -1.0234  0.9441
26990SOL    HW281549   1.834   0.690   5.240 -0.5130 -0.0162 -0.1083
26991SOL     OW81550   6.962   7.191   7.844  0.9204 -0.1609  0.4247
26991SOL    HW181551   6.896   7.210   7.910  0.0498  0.4575 -0.5800
26991SOL    HW281552   7.039   7.241   7.871  1.3151 -1.5906  2.0914
26992SOL     OW81553   4.796   4.198   8.208  0.3443 -0.2539 -0.0078
26992SOL    HW181554   4.848   4.158   8.278 -0.2331 -0.0143  0.5651
26992SOL    HW281555   4.855   4.259   8.165  0.3700  0.4856  1.0400
26993SOL     OW81556   0.180   1.803   7.947  0.2569  0.0125  0.7003
26993SOL    HW181557   0.258   1.797   7.892  0.0772 -0.6183  0.5046
26993SOL    HW281558   0.157   1.712   7.967 -1.4901  0.0422 -0.7900
26994SOL     OW81559   5.833   0.789   8.159 -0.6452 -0.9760  0.3809
26994SOL    HW181560   5.760   0.839   8.124  0.2184 -1.0439 -1.6123
26994SOL    HW281561   5.906   0.851   8.162  0.0290 -1.6997 -0.6500
26995SOL     OW81562   9.983   6.692   0.128 -0.2197 -0.2515  0.4008
26995SOL    HW181563  10.047   6.641   0.080  0.3063  0.7725 -0.0126
26995SOL    HW281564   9.899   6.653   0.105  0.1972 -1.2528  0.5151
26996SOL     OW81565   2.898   7.414   4.204 -0.2923 -0.3218 -0.4324
26996SOL    HW181566   2.901   7.330   4.158  0.8134 -1.2000  1.1327
26996SOL    HW281567   2.889   7.390   4.297  0.5041  1.2654  0.0905
26997SOL     OW81568   6.276   3.541   3.844  0.7051  0.5235  0.2276
26997SOL    HW181569   6.332   3.560   3.769  2.5476 -0.4286  1.2822
26997SOL    HW281570   6.323   3.577   3.919 -0.0940 -0.3144  1.1636
26998SOL     OW81571   1.519   7.004   7.508 -0.0550  0.2017 -0.4561
26998SOL    HW181572   1.534   6.925   7.560 -1.4161  0.1961 -0.0370
26998SOL    HW281573   1.462   7.059   7.563 -2.2211 -0.1549 -2.2304
26999SOL     OW81574   5.789   4.413   4.512 -0.2277 -0.1430 -0.0469
26999SOL    HW181575   5.720   4.440   4.573 -1.3682  1.0575 -1.7759
26999SOL    HW281576   5.854   4.482   4.518 -0.1856 -0.1898  0.0397
27000SOL     OW81577   0.135   5.002   3.210 -0.1998 -0.0941 -0.5605
27000SOL    HW181578   0.091   4.928   3.252  0.8756  0.3501  1.4857
27000SOL    HW281579   0.165   4.967   3.126 -1.5725 -1.3314 -0.5920
27001SOL     OW81580   3.398   9.920   8.109 -0.2463  0.2239  0.0631
27001SOL    HW181581   3.382  10.007   8.073 -0.2453  0.5586  0.8357
27001SOL    HW281582   3.417   9.936   8.202  1.3808 -0.4592 -0.1297
27002SOL     OW81583   7.923   7.437   0.348  0.0666  0.3942  0.0503
27002SOL    HW181584   7.974   7.461   0.425 -0.4514  0.0404  0.5116
27002SOL    HW281585   7.988   7.408   0.284  0.4641  0.1765  0.5448
27003SOL     OW81586   3.439   4.012   4.571 -0.0679 -0.3487 -0.2264
27003SOL    HW181587   3.379   4.002   4.645  1.7509 -0.2476  1.3317
27003SOL    HW281588   3.484   4.095   4.587  0.1499 -0.1608 -1.6406
27004SOL     OW81589   3.020   8.618   0.178 -0.0160  0.0479  0.0756
27004SOL    HW181590   2.954   8.595   0.244  0.2347  1.6022  0.9174
27004SOL    HW281591   3.033   8.537   0.128 -2.0870 -0.4775  0.2824
27005SOL     OW81592   6.637   5.307   1.793  0.0148 -0.7459 -0.4108
27005SOL    HW181593   6.711   5.310   1.732  1.9384 -0.2533  1.7778
27005SOL    HW281594   6.624   5.399   1.818 -0.9101 -0.9132 -0.2481
27006SOL     OW81595   2.721   5.718   8.820  0.1245  0.4504  0.2295
27006SOL    HW181596   2.720   5.730   8.915 -0.2237  0.7386  0.1899
27006SOL    HW281597   2.629   5.705   8.795  0.4115 -2.0015  0.2151
27007SOL     OW81598   8.297   4.192   2.214 -0.4301 -0.2900  0.2795
27007SOL    HW181599   8.351   4.263   2.248 -1.3303  0.3953  0.3272
27007SOL    HW281600   8.210   4.209   2.250 -0.4831 -1.8867  0.9439
27008SOL     OW81601   6.385   6.965   0.659 -0.2664 -0.6181  0.0743
27008SOL    HW181602   6.388   6.932   0.569 -0.7240  1.3066 -0.6876
27008SOL    HW281603   6.292   6.974   0.678 -0.1751 -1.1434  0.8198
27009SOL     OW81604   6.123   3.644   8.639  0.0762 -0.2734 -0.3330
27009SOL    HW181605   6.218   3.655   8.643 -0.0700  0.6211  1.6777
27009SOL    HW281606   6.089   3.733   8.646 -0.9346 -0.6032 -0.9293
27010SOL     OW81607   9.972   7.148   3.524  0.4523 -0.2424  0.4593
27010SOL    HW181608   9.884   7.120   3.500  0.6110  0.0712 -0.5706
27010SOL    HW281609   9.979   7.131   3.618 -0.5350 -0.7065  0.4569
27011SOL     OW81610   3.018   9.051   4.774 -1.0248  0.5617  0.3588
27011SOL    HW181611   3.073   9.128   4.758 -1.1513  0.5163 -0.3328
27011SOL    HW281612   3.080   8.981   4.795 -0.5287 -0.1783 -2.9844
27012SOL     OW81613   7.964   2.144   9.548 -0.7281  0.8063  0.5564
27012SOL    HW181614   7.943   2.236   9.537 -0.5570  0.9331  1.2422
27012SOL    HW281615   8.046   2.132   9.500  0.7051  1.6456  2.6548
27013SOL     OW81616   8.079   2.686   0.132  0.6591  0.1833  0.1963
27013SOL    HW181617   8.027   2.663   0.209  0.6365 -0.3939  0.0100
27013SOL    HW281618   8.168   2.661   0.155  0.6845  0.1954  0.1119
27014SOL     OW81619   8.474   1.457   7.386  0.1150  0.4526  0.1322
27014SOL    HW181620   8.554   1.410   7.409 -0.7271  0.3328  3.3238
27014SOL    HW281621   8.496   1.549   7.400 -0.1494  0.4456  0.6504
27015SOL     OW81622   2.220   7.118   6.897 -0.0681 -0.0826 -0.2530
27015SOL    HW181623   2.187   7.067   6.824  2.0224 -2.6545  0.4588
27015SOL    HW281624   2.291   7.171   6.860 -0.9776  0.9313 -0.6083
27016SOL     OW81625   9.948   2.449   0.292 -0.4568 -0.9147  0.2066
27016SOL    HW181626   9.980   2.528   0.251  0.1837 -1.1403  0.2681
27016SOL    HW281627   9.953   2.467   0.386  0.9238 -1.4840  0.2701
27017SOL     OW81628   5.881   4.923   5.991  0.2733  0.6919  0.2730
27017SOL    HW181629   5.880   4.875   5.908  0.6818  1.7819 -0.3923
27017SOL    HW281630   5.795   4.906   6.030  0.2715 -0.2604 -0.1169
27018SOL     OW81631   0.255   6.549   7.614 -0.0027  0.2295 -0.2285
27018SOL    HW181632   0.235   6.627   7.562 -2.5294 -1.3402 -1.7958
27018SOL    HW281633   0.180   6.540   7.673 -0.1161 -1.3594 -0.5699
27019SOL     OW81634   8.015   0.187   2.435  0.8313 -0.7269 -0.6850
27019SOL    HW181635   8.109   0.170   2.432  0.9025 -0.3359 -0.7901
27019SOL    HW281636   8.009   0.283   2.440  0.4645 -0.8149  0.7333
27020SOL     OW81637   3.337   1.290   6.098  0.0085 -0.2571  0.2715
27020SOL    HW181638   3.423   1.274   6.139  0.6637  1.6850 -0.2403
27020SOL    HW281639   3.324   1.214   6.041  2.0146 -0.0152 -0.6127
27021SOL     OW81640   3.338   5.630   9.604  0.2332  0.0613  0.1217
27021SOL    HW181641   3.433   5.641   9.613  0.0411  0.4151  1.9784
27021SOL    HW281642   3.303   5.652   9.690 -1.5608  0.0572 -0.5751
27022SOL     OW81643   6.666   8.999   7.076 -0.0351 -0.3336 -0.2444
27022SOL    HW181644   6.590   8.947   7.102  0.4439 -1.1958 -0.4978
27022SOL    HW281645   6.636   9.052   7.003 -0.9629  0.9344  1.0160
27023SOL     OW81646   2.907   1.688   6.148 -0.0173  0.4615  0.0870
27023SOL    HW181647   2.901   1.780   6.121 -0.6566  0.0281 -1.3593
27023SOL    HW281648   2.900   1.691   6.243  0.4992  1.9503  0.1114
27024SOL     OW81649   2.885   8.307   4.972  0.0618 -0.0616 -0.2182
27024SOL    HW181650   2.879   8.218   5.005  0.7240 -0.9786 -2.3429
27024SOL    HW281651   2.979   8.323   4.962 -0.0725  0.6110 -0.5202
27025SOL     OW81652   4.958   9.951   5.781 -0.0576 -0.8087 -0.3928
27025SOL    HW181653   4.882  10.009   5.777  0.7452  0.1928 -3.4913
27025SOL    HW281654   4.922   9.863   5.773 -0.9453 -0.3733 -1.3871
27026SOL     OW81655   8.898   6.538   1.531 -0.1179  0.5532  0.0331
27026SOL    HW181656   8.970   6.552   1.591  1.9811 -0.3558 -2.1020
27026SOL    HW281657   8.899   6.615   1.473 -2.0284  1.3724  0.9936
27027SOL     OW81658   4.831   6.142   6.857  0.5333 -0.4890 -0.3452
27027SOL    HW181659   4.742   6.164   6.886  0.3709 -0.3202 -0.9336
27027SOL    HW281660   4.867   6.226   6.828 -0.0125 -0.8986 -2.4121
27028SOL     OW81661   9.261   3.660   1.881  0.0401 -0.2363 -0.4074
27028SOL    HW181662   9.231   3.711   1.806 -0.3629  1.2178  0.6996
27028SOL    HW281663   9.356   3.672   1.881  0.0511 -0.2983 -0.7054
27029SOL     OW81664   5.908   8.729   4.436  0.2001  0.3224  0.3310
27029SOL    HW181665   5.921   8.777   4.518 -1.0891  0.7531  0.3164
27029SOL    HW281666   5.911   8.797   4.368 -0.2111  0.1883  0.1758
27030SOL     OW81667   5.878   3.460   4.813  0.3104 -0.4471  0.5814
27030SOL    HW181668   5.925   3.539   4.787 -0.4685 -0.0446  0.3896
27030SOL    HW281669   5.787   3.476   4.789  0.1631 -1.4620  0.3868
27031SOL     OW81670   6.690   4.154   0.648  0.0173 -0.3194 -0.0001
27031SOL    HW181671   6.658   4.075   0.692 -0.4637 -0.1663 -0.0706
27031SOL    HW281672   6.624   4.172   0.581 -0.4493  0.7721  0.7249
27032SOL     OW81673   2.684   0.067   3.697  0.0317 -0.1888  0.2617
27032SOL    HW181674   2.672   0.088   3.789 -0.3407 -2.0841  0.6910
27032SOL    HW281675   2.775   0.090   3.678 -0.0855  0.8434  0.9035
27033SOL     OW81676   3.247   3.534   5.649 -0.4464  0.1270  0.0002
27033SOL    HW181677   3.280   3.514   5.561 -0.4779 -1.4115  0.3087
27033SOL    HW281678   3.307   3.602   5.682 -0.1159  0.3399 -0.9988
27034SOL     OW81679   0.479   5.211   7.768  0.2459  0.0452  0.0464
27034SOL    HW181680   0.550   5.268   7.799  0.0915  0.8202 -0.9549
27034SOL    HW281681   0.463   5.240   7.678 -0.9034 -0.5578  0.0383
27035SOL     OW81682   1.815   7.125   9.981 -0.0918  0.2383 -0.1775
27035SOL    HW181683   1.774   7.147   9.898 -1.6302  0.2299  0.5528
27035SOL    HW281684   1.840   7.209  10.019  0.5164  0.2472 -0.5777
27036SOL     OW81685   3.091   8.831   7.873  0.1655  0.4873  0.2944
27036SOL    HW181686   3.074   8.842   7.780 -2.3586 -2.7857  0.1811
27036SOL    HW281687   3.096   8.736   7.886 -0.0410  0.7949  3.5580
27037SOL     OW81688   4.612   3.698   6.143 -0.2101  0.4307  0.4434
27037SOL    HW181689   4.641   3.770   6.086  1.0505  1.2634  2.0522
27037SOL    HW281690   4.517   3.696   6.132 -0.0756  1.0033 -1.1443
27038SOL     OW81691   6.260   1.472   3.475  0.6478  0.2341  0.1849
27038SOL    HW181692   6.179   1.466   3.524  0.3303  0.2743 -0.3224
27038SOL    HW281693   6.240   1.533   3.403  0.5199 -1.2400 -1.0881
27039SOL     OW81694   3.558   5.891   4.032  0.5505  0.9095  0.2022
27039SOL    HW181695   3.600   5.888   4.118 -0.9014 -1.6901  0.9132
27039SOL    HW281696   3.490   5.957   4.040  1.2345  1.5834  0.6066
27040SOL     OW81697   1.773   6.228   3.402 -0.6933  0.7153  0.2242
27040SOL    HW181698   1.700   6.199   3.347 -0.9482  0.4040  0.7141
27040SOL    HW281699   1.849   6.228   3.344 -0.3104 -2.5597  0.5599
27041SOL     OW81700   9.666   4.506   0.859  0.4334  0.1977 -0.3018
27041SOL    HW181701   9.628   4.482   0.943 -0.3819  0.5897 -0.5478
27041SOL    HW281702   9.596   4.491   0.796  0.8861  0.3579 -0.8486
27042SOL     OW81703   3.879   7.911   6.264 -0.3975 -0.5188  0.0280
27042SOL    HW181704   3.809   7.971   6.236 -0.6552 -1.6197 -1.8887
27042SOL    HW281705   3.957   7.967   6.270 -1.3474  0.6887  2.0196
27043SOL     OW81706   2.871   0.289   8.568  0.2542  0.2185 -0.3807
27043SOL    HW181707   2.846   0.334   8.488  1.1584  0.4648 -0.5371
27043SOL    HW281708   2.798   0.230   8.587 -0.6219  1.2118 -0.5769
27044SOL     OW81709   6.657   9.890   6.380  0.2946  0.0262 -0.0774
27044SOL    HW181710   6.568   9.921   6.362  0.4890  0.3437 -0.5066
27044SOL    HW281711   6.691   9.951   6.445  0.7056  0.7923 -0.9817
27045SOL     OW81712   0.202   1.415   5.810 -0.0725  0.6455  0.3466
27045SOL    HW181713   0.273   1.350   5.815 -0.7515 -0.1761 -0.2979
27045SOL    HW281714   0.229   1.474   5.740 -1.2465 -1.2828 -1.8847
27046SOL     OW81715   1.294   1.032   7.050 -0.6937  0.1262  0.4617
27046SOL    HW181716   1.384   1.001   7.061 -0.4578  0.4910 -0.4141
27046SOL    HW281717   1.303   1.120   7.015 -1.3842  0.7648  1.8075
27047SOL     OW81718   7.219   2.486   8.116  0.3265  0.0738 -0.5598
27047SOL    HW181719   7.240   2.576   8.141  0.1677 -0.2219  0.7203
27047SOL    HW281720   7.128   2.490   8.087  0.4287  0.3781 -0.8539
27048SOL     OW81721   6.276   8.657   0.711  0.0762  0.2059 -0.8168
27048SOL    HW181722   6.268   8.567   0.677  0.8654 -0.5737  0.9287
27048SOL    HW281723   6.194   8.700   0.686 -0.9610 -1.4515 -0.4159
27049SOL     OW81724   2.764   9.430   6.635 -0.3282  0.1615  0.4363
27049SOL    HW181725   2.784   9.341   6.664  1.4807  0.0627 -0.9175
27049SOL    HW281726   2.848   9.477   6.641 -0.5884  0.9811 -1.4687
27050SOL     OW81727   6.636   7.514   8.120 -0.0686  0.0152 -0.2039
27050SOL    HW181728   6.707   7.572   8.093  1.3954 -0.8419  1.6039
27050SOL    HW281729   6.562   7.573   8.139  0.5375  1.0271 -0.8955
27051SOL     OW81730   7.287   5.338   5.292  0.0529  0.4423 -0.0462
27051SOL    HW181731   7.288   5.384   5.208 -0.1387  2.1366  0.8505
27051SOL    HW281732   7.202   5.359   5.330  0.3286  0.0771  0.7992
27052SOL     OW81733   4.395   5.864   1.648  0.4684 -0.3152 -0.1542
27052SOL    HW181734   4.327   5.797   1.660 -0.0275  0.1381 -0.4003
27052SOL    HW281735   4.451   5.855   1.724 -0.4079 -0.0737  0.5338
27053SOL     OW81736   5.243   0.340   1.510 -0.1377  0.3074  0.0949
27053SOL    HW181737   5.282   0.265   1.465  0.3348  0.4188  0.3121
27053SOL    HW281738   5.153   0.312   1.529 -0.5369  0.4674 -1.4114
27054SOL     OW81739   3.744   3.852   5.074 -0.2288  0.1621  0.2375
27054SOL    HW181740   3.811   3.889   5.131 -0.3244 -0.7189  0.9476
27054SOL    HW281741   3.678   3.816   5.134 -0.2496 -0.9283 -0.4123
27055SOL     OW81742   5.913   1.838   4.419 -0.3314 -0.4641 -0.1816
27055SOL    HW181743   5.950   1.858   4.333 -1.9055 -3.3553 -1.6952
27055SOL    HW281744   5.965   1.765   4.451  0.2740  0.6208  1.4220
27056SOL     OW81745   0.202   6.581   5.302 -0.5823  0.3787 -0.5361
27056SOL    HW181746   0.213   6.660   5.249  0.8265  0.2420 -0.4741
27056SOL    HW281747   0.166   6.516   5.241 -0.9230  0.8042 -0.7964
27057SOL     OW81748   0.360   8.232   4.667  0.4807 -0.5781  0.5495
27057SOL    HW181749   0.393   8.311   4.710  1.3818 -0.8521  0.3884
27057SOL    HW281750   0.304   8.265   4.596 -0.7950 -0.1198  1.7232
27058SOL     OW81751   8.636   0.856   4.824  0.0610 -0.4347 -0.2703
27058SOL    HW181752   8.590   0.772   4.817 -0.1554 -0.4179  0.8887
27058SOL    HW281753   8.726   0.836   4.798  0.1142 -1.1242  0.4292
27059SOL     OW81754   7.855   3.007   9.014  0.2228 -0.2849 -0.2442
27059SOL    HW181755   7.865   3.095   8.975  2.1357  0.2825  1.3526
27059SOL    HW281756   7.894   2.948   8.949  1.9290  0.4706  0.0139
27060SOL     OW81757   2.126   3.596   1.900  0.4463  0.4519 -0.9268
27060SOL    HW181758   2.081   3.635   1.976  0.9387 -1.5130  0.4461
27060SOL    HW281759   2.219   3.601   1.922  0.7861  1.7908 -2.4288
27061SOL     OW81760   0.789   7.790   0.258  0.2376 -0.1999  0.4514
27061SOL    HW181761   0.735   7.785   0.337 -1.5719 -1.3333 -0.7818
27061SOL    HW281762   0.802   7.699   0.232 -0.7277  0.1520 -1.4940
27062SOL     OW81763   9.253   2.194   2.681 -0.3181  0.2132 -0.3154
27062SOL    HW181764   9.205   2.111   2.689  1.6244 -1.0929 -1.3751
27062SOL    HW281765   9.303   2.201   2.762 -0.0726  0.0582 -0.4516
27063SOL     OW81766   2.695   0.109   5.033 -0.3343 -0.5360 -0.1803
27063SOL    HW181767   2.638   0.038   5.003  1.7021 -2.3278 -0.0783
27063SOL    HW281768   2.638   0.186   5.037 -2.7019 -2.1843 -0.1096
27064SOL     OW81769   2.552   3.380   9.326 -0.0290 -0.6726  0.3687
27064SOL    HW181770   2.574   3.336   9.244  2.2612  0.2895  0.3872
27064SOL    HW281771   2.545   3.309   9.390  3.9222 -1.1965  0.4737
27065SOL     OW81772   1.009   4.441   9.132  0.0268 -0.2020 -0.0605
27065SOL    HW181773   1.004   4.388   9.211 -1.2010 -1.0662 -0.6829
27065SOL    HW281774   1.027   4.379   9.062 -1.4546  0.1584 -0.8033
27066SOL     OW81775   4.516   8.977   0.276  0.6799  0.0228  0.0938
27066SOL    HW181776   4.577   9.027   0.222  0.5325  1.0684  0.8731
27066SOL    HW281777   4.501   9.032   0.352 -1.4196 -0.1158 -0.1751
27067SOL     OW81778   9.323   3.574   9.044  0.1530 -0.5321 -0.5359
27067SOL    HW181779   9.331   3.492   9.092 -0.1721  0.0698  0.5729
27067SOL    HW281780   9.387   3.632   9.084 -0.5530  0.1780 -0.4001
27068SOL     OW81781   8.160   2.602   6.736 -0.2817 -0.2812 -0.1746
27068SOL    HW181782   8.228   2.555   6.783 -0.1555 -0.9197 -0.9963
27068SOL    HW281783   8.078   2.575   6.779 -0.0596  0.4059  0.7387
27069SOL     OW81784   4.633   3.701   4.979 -0.4549  0.1593  0.3726
27069SOL    HW181785   4.655   3.609   4.967 -0.7084  0.2928 -1.3986
27069SOL    HW281786   4.551   3.700   5.028 -1.0594 -0.6030 -0.6245
27070SOL     OW81787   3.502   8.496   4.032 -0.1101 -0.2211  0.0598
27070SOL    HW181788   3.595   8.519   4.029  0.2059 -1.5147 -2.1304
27070SOL    HW281789   3.477   8.483   3.940 -2.9068  1.6313  0.4133
27071SOL     OW81790   0.164   3.676   0.328  0.4330  0.6536  0.0526
27071SOL    HW181791   0.128   3.588   0.342  0.7107  0.3031 -1.2946
27071SOL    HW281792   0.142   3.724   0.407  0.0843 -0.5739  0.7207
27072SOL     OW81793   2.875   0.275   7.597  0.4058 -0.1110 -0.2574
27072SOL    HW181794   2.880   0.371   7.597  0.2407 -0.0981 -0.7530
27072SOL    HW281795   2.785   0.255   7.623 -0.1715 -0.0714 -2.0658
27073SOL     OW81796   6.685   2.054   7.997  0.2967 -0.2201  0.4866
27073SOL    HW181797   6.639   2.083   8.075  0.0603 -2.3599  1.2088
27073SOL    HW281798   6.617   2.053   7.929 -0.3093 -1.4764  1.0755
27074SOL     OW81799   4.796   9.210   8.545  0.7507  0.1228 -0.4639
27074SOL    HW181800   4.718   9.234   8.594  0.0701 -0.4939 -1.2240
27074SOL    HW281801   4.784   9.249   8.459  1.3356  0.1154 -0.5557
27075SOL     OW81802   4.758   9.302   2.892  0.3243 -0.2344  0.1482
27075SOL    HW181803   4.756   9.339   2.803  0.4323  0.2266  0.3379
27075SOL    HW281804   4.667   9.282   2.912  0.0698  1.3376  0.6316
27076SOL     OW81805   5.137   4.664   5.844 -0.3995  0.0453  0.3932
27076SOL    HW181806   5.121   4.570   5.838 -1.1025  0.1881 -0.1334
27076SOL    HW281807   5.068   4.696   5.902 -0.9222  0.4087 -0.4189
27077SOL     OW81808   2.388   1.127   9.793 -0.1090  0.4557 -0.0070
27077SOL    HW181809   2.373   1.207   9.843 -1.9670 -0.1213  0.4303
27077SOL    HW281810   2.354   1.146   9.705  2.7458  1.3155 -1.0625
27078SOL     OW81811   7.617   2.805   0.939  0.2703  0.6297  0.7214
27078SOL    HW181812   7.567   2.802   0.858 -0.2956 -0.7015  1.0880
27078SOL    HW281813   7.558   2.849   1.002 -0.1217 -0.1898  0.9362
27079SOL     OW81814   2.919   3.491   4.931 -0.3341  0.4656  0.6849
27079SOL    HW181815   2.842   3.524   4.884 -0.0018 -2.2382 -2.0925
27079SOL    HW281816   2.993   3.532   4.887 -0.1041  0.1969  0.8179
27080SOL     OW81817   5.511   7.020   4.851 -0.5369 -0.2857  0.3892
27080SOL    HW181818   5.535   6.970   4.773  0.9106  0.3070  0.4131
27080SOL    HW281819   5.510   6.955   4.922 -0.6980 -0.6243  0.0797
27081SOL     OW81820   2.651   2.746   7.983  0.1477 -0.0646 -0.4832
27081SOL    HW181821   2.593   2.683   7.941  0.9802 -0.8337 -0.4986
27081SOL    HW281822   2.626   2.831   7.944  0.3357 -0.6351 -1.9313
27082SOL     OW81823   4.390   2.673   5.035  0.0199  0.4511 -0.5476
27082SOL    HW181824   4.385   2.578   5.021 -1.2225  0.6029 -1.2426
27082SOL    HW281825   4.304   2.706   5.009  0.1653  1.6849  0.4442
27083SOL     OW81826   8.290   2.380   4.141  0.0961  0.1721 -0.3913
27083SOL    HW181827   8.213   2.405   4.192 -0.1558  1.5729 -1.3828
27083SOL    HW281828   8.363   2.388   4.202 -0.2494  1.4357 -0.1175
27084SOL     OW81829   2.358   8.568   8.707  0.1157  0.2991 -0.0510
27084SOL    HW181830   2.316   8.635   8.761 -0.7566  0.2347 -0.6355
27084SOL    HW281831   2.293   8.545   8.641  0.5767 -0.7932 -0.1525
27085SOL     OW81832   6.485   4.220   0.443  0.2069 -0.4495  0.2355
27085SOL    HW181833   6.498   4.229   0.349 -3.1783  0.5438 -0.2962
27085SOL    HW281834   6.489   4.309   0.477  0.7666 -0.7348  0.9547
27086SOL     OW81835   9.136   9.938   8.299  0.1706  0.2234 -0.2909
27086SOL    HW181836   9.171   9.981   8.377 -1.5849 -1.7924  1.7648
27086SOL    HW281837   9.201   9.871   8.277  0.4334  0.4554 -0.2181
27087SOL     OW81838   4.188   2.860   3.112 -0.2690 -0.1618 -0.4294
27087SOL    HW181839   4.093   2.869   3.120 -0.1338  0.3662  0.7294
27087SOL    HW281840   4.218   2.839   3.200  0.7677  0.4227 -0.6293
27088SOL     OW81841   7.354   1.082   1.605 -0.3649  0.1116 -0.1608
27088SOL    HW181842   7.333   0.995   1.570 -0.1438 -0.7712  1.7883
27088SOL    HW281843   7.270   1.116   1.636 -0.0608 -0.6164  1.5843
27089SOL     OW81844   3.714   2.970   2.605 -0.8902 -0.2213  0.3645
27089SOL    HW181845   3.763   3.025   2.666  1.6101 -0.3886 -1.3774
27089SOL    HW281846   3.701   2.888   2.652 -0.2660  0.1423  1.1922
27090SOL     OW81847   6.426   9.008   1.416  0.2998 -0.0017 -0.3553
27090SOL    HW181848   6.437   9.100   1.393  1.0511  1.0503  3.4854
27090SOL    HW281849   6.511   8.982   1.452 -0.3858 -1.6688  0.1610
27091SOL     OW81850   7.211   5.130   9.607 -0.0523  0.5110 -0.3616
27091SOL    HW181851   7.183   5.194   9.673 -1.3563 -1.2459  0.8681
27091SOL    HW281852   7.133   5.116   9.553 -0.3848 -1.3572  0.5232
27092SOL     OW81853   9.672   1.721   3.014 -0.5118 -0.7412 -0.2043
27092SOL    HW181854   9.663   1.804   2.968  0.5456  0.0768  0.9790
27092SOL    HW281855   9.706   1.660   2.949 -0.8630 -0.1261 -0.9704
27093SOL     OW81856   9.678   8.580   6.234 -0.2065  0.0088 -0.5815
27093SOL    HW181857   9.704   8.488   6.234  3.4574  0.8796  0.0121
27093SOL    HW281858   9.761   8.629   6.237 -1.9163  3.3318  3.5311
27094SOL     OW81859   9.202   0.452   9.176 -0.3741 -0.0730 -0.1485
27094SOL    HW181860   9.286   0.495   9.192  0.1962 -1.3591  0.4964
27094SOL    HW281861   9.163   0.443   9.263 -1.1502  0.4308 -0.4325
27095SOL     OW81862   9.694   8.059   0.203 -0.8356  0.1835  1.1136
27095SOL    HW181863   9.629   8.008   0.153  1.3030  0.5884 -2.4149
27095SOL    HW281864   9.648   8.141   0.224 -1.5435  0.5921 -1.5427
27096SOL     OW81865   0.176   4.077   0.077 -0.8134  0.2312 -0.4372
27096SOL    HW181866   0.149   4.060   0.168 -1.0972 -0.6012 -0.6667
27096SOL    HW281867   0.128   4.156   0.052 -0.5309  0.6188  0.2203
27097SOL     OW81868   4.061   8.384   7.213  0.2488  0.0141  0.1748
27097SOL    HW181869   3.984   8.358   7.164  1.6393 -0.7772 -1.6964
27097SOL    HW281870   4.054   8.337   7.296 -0.3583 -1.5304 -0.7148
27098SOL     OW81871   6.680   9.058   1.536 -0.3577 -0.5888 -0.0118
27098SOL    HW181872   6.773   9.047   1.556 -0.3507  1.0321  1.1317
27098SOL    HW281873   6.659   9.145   1.571 -1.8474 -0.1037 -1.9667
27099SOL     OW81874   7.383   0.245   8.826  0.0790 -0.1063  0.1774
27099SOL    HW181875   7.336   0.325   8.847  0.1725  0.3878 -1.3850
27099SOL    HW281876   7.476   0.268   8.835  0.0986 -0.1204  0.0198
27100SOL     OW81877   7.014   0.472   1.897 -0.0770 -0.5598  0.1098
27100SOL    HW181878   7.060   0.461   1.814 -1.6882 -0.3576 -0.8555
27100SOL    HW281879   7.067   0.424   1.961  0.9215 -1.1578 -1.1340
27101SOL     OW81880   1.033   7.119   1.629  0.3246  0.1674  0.1804
27101SOL    HW181881   1.043   7.125   1.724  0.1295  0.3299  0.1910
27101SOL    HW281882   1.119   7.090   1.598  0.4345  0.2634  0.3930
27102SOL     OW81883   4.606   6.054   8.417  0.1427  0.4655  0.4801
27102SOL    HW181884   4.596   6.054   8.322  1.4333 -1.2458  0.2923
27102SOL    HW281885   4.558   5.977   8.446  0.9411  0.1715  1.0525
27103SOL     OW81886   2.935   0.944   6.527  0.7934 -0.0018  0.0550
27103SOL    HW181887   2.917   1.037   6.516  1.5013  0.2724  1.1703
27103SOL    HW281888   2.848   0.903   6.530  0.4835  0.5929 -0.5350
27104SOL     OW81889   8.249   1.242   7.593 -0.0555 -0.2332  0.0031
27104SOL    HW181890   8.333   1.212   7.559  0.0473  0.0535 -0.0013
27104SOL    HW281891   8.261   1.336   7.605 -0.0254 -0.3635  1.0295
27105SOL     OW81892   0.745   4.383   5.228  0.0266  0.4533 -0.0081
27105SOL    HW181893   0.716   4.304   5.273  0.3110 -0.0963 -0.7717
27105SOL    HW281894   0.737   4.453   5.293 -0.4824 -0.1549  0.5868
27106SOL     OW81895   9.430   9.456   9.765 -0.2956 -0.1133  0.0885
27106SOL    HW181896   9.437   9.368   9.802  1.5833 -0.4720 -1.0015
27106SOL    HW281897   9.441   9.515   9.840 -0.9939 -0.7959  0.7412
27107SOL     OW81898   4.640   1.385   5.147 -0.2262 -0.0646 -0.6443
27107SOL    HW181899   4.718   1.335   5.173 -0.1229  0.4919  0.1461
27107SOL    HW281900   4.675   1.464   5.105 -0.3890 -0.8605 -2.3901
27108SOL     OW81901   3.922   9.183   9.212  0.6391 -0.5132 -0.0799
27108SOL    HW181902   3.993   9.141   9.261 -0.4892 -1.1118  1.0926
27108SOL    HW281903   3.960   9.266   9.182  1.0129  0.5903  3.0549
27109SOL     OW81904   1.918   9.826   9.616  0.3112 -0.3280 -0.4669
27109SOL    HW181905   1.890   9.807   9.706  0.8672  0.7944 -0.0365
27109SOL    HW281906   1.871   9.907   9.593  1.6688  0.5036 -0.4344
27110SOL     OW81907   2.036   7.887   8.429  0.5250 -0.1675 -0.5257
27110SOL    HW181908   2.017   7.891   8.335  0.2823  1.0980 -0.4461
27110SOL    HW281909   1.958   7.924   8.471 -0.1420 -2.3957  0.3178
27111SOL     OW81910   9.960   2.724   6.096 -0.4345 -0.6038  0.4516
27111SOL    HW181911   9.983   2.775   6.019 -0.4243 -1.1750  0.0737
27111SOL    HW281912   9.971   2.785   6.169 -0.1488 -0.1488  0.0333
27112SOL     OW81913   7.884   7.026   4.620  0.2867 -0.0144 -0.6330
27112SOL    HW181914   7.895   7.118   4.593 -0.0151 -0.0268 -0.8106
27112SOL    HW281915   7.972   6.989   4.618  0.5369  0.5016  0.2996
27113SOL     OW81916   5.082   1.862   1.594 -0.6263  0.6269  0.1079
27113SOL    HW181917   5.008   1.879   1.536  0.4531 -1.4351 -2.0279
27113SOL    HW281918   5.158   1.863   1.537  0.6954  0.0127  1.7787
27114SOL     OW81919   7.190   4.284   9.119 -0.0825  0.3320  0.3862
27114SOL    HW181920   7.245   4.358   9.096  1.0681 -0.4839  0.4017
27114SOL    HW281921   7.197   4.278   9.214  0.7631 -0.4760  0.2850
27115SOL     OW81922   4.940   5.326   7.731 -0.0289 -0.3500  0.0844
27115SOL    HW181923   5.028   5.355   7.756  0.0934  0.9074 -1.6370
27115SOL    HW281924   4.891   5.327   7.813  1.3567 -0.3429  0.9546
27116SOL     OW81925   2.389   5.315   3.276 -0.0189  0.2694 -0.4283
27116SOL    HW181926   2.335   5.237   3.287  0.2038  0.0096 -1.1127
27116SOL    HW281927   2.336   5.373   3.221 -0.6326  1.0639  0.9396
27117SOL     OW81928   4.990   0.465   2.199 -0.1426  0.4468  0.8979
27117SOL    HW181929   4.955   0.384   2.161 -2.4035  1.6394  0.2665
27117SOL    HW281930   5.080   0.469   2.168 -0.0840 -1.6434  0.6746
27118SOL     OW81931   1.361   8.063   7.419  0.3409 -0.9395 -0.6284
27118SOL    HW181932   1.395   8.149   7.441 -0.2975 -0.8535  0.0415
27118SOL    HW281933   1.346   8.067   7.324  1.0791 -0.5978 -0.7397
27119SOL     OW81934   2.412   7.557   8.007 -0.0372 -0.0961 -0.1362
27119SOL    HW181935   2.453   7.539   7.922  3.4794  1.5202  1.0354
27119SOL    HW281936   2.426   7.476   8.057  1.5824  0.3055  0.1270
27120SOL     OW81937  -0.011   8.191   7.125  0.0195  0.3164  0.1219
27120SOL    HW181938   0.007   8.247   7.049 -1.5483  0.1446 -0.4210
27120SOL    HW281939   0.037   8.110   7.106  1.2069  0.9684  0.2645
27121SOL     OW81940   9.608   1.970   2.005 -0.1943  0.1525 -0.3816
27121SOL    HW181941   9.582   1.914   1.932 -1.7696  0.5285 -0.1378
27121SOL    HW281942   9.673   2.029   1.968 -0.3212 -0.2412 -1.2559
27122SOL     OW81943   9.808   3.694   5.917  0.0432  0.4634 -0.0892
27122SOL    HW181944   9.742   3.714   5.851 -1.0016 -0.5195  0.6257
27122SOL    HW281945   9.873   3.764   5.908 -2.0516  2.6123  0.4986
27123SOL     OW81946   0.373   3.751   2.632 -0.4964  0.6719 -0.2913
27123SOL    HW181947   0.352   3.843   2.614 -0.0721  0.8754  0.2354
27123SOL    HW281948   0.321   3.729   2.710 -0.9881  0.3083 -0.7110
27124SOL     OW81949   1.305   8.621   0.159 -0.1395  0.1959 -0.2541
27124SOL    HW181950   1.284   8.602   0.068  1.1965 -1.7197 -0.2330
27124SOL    HW281951   1.259   8.553   0.209 -0.6612  1.0776  0.4996
27125SOL     OW81952   1.678   5.463   1.518 -0.0692 -1.0538 -0.3415
27125SOL    HW181953   1.765   5.475   1.555  0.0800  0.2904 -1.0511
27125SOL    HW281954   1.684   5.500   1.430 -1.1342 -1.7261 -0.7221
27126SOL     OW81955   9.200   7.160   1.073  0.0141 -0.3275  0.5360
27126SOL    HW181956   9.294   7.141   1.065 -0.1285 -0.4497 -1.1780
27126SOL    HW281957   9.162   7.078   1.105  0.2284 -0.9959 -0.8488
27127SOL     OW81958   7.907   8.575   2.182  0.2463 -0.4767  0.4120
27127SOL    HW181959   7.816   8.603   2.192  0.3375 -0.3993  1.0635
27127SOL    HW281960   7.920   8.509   2.249  0.4567 -1.0487 -0.1827
27128SOL     OW81961   0.256   3.642   9.336  0.3253 -0.2096 -0.6839
27128SOL    HW181962   0.167   3.628   9.303  0.1500  0.8497 -0.7165
27128SOL    HW281963   0.296   3.700   9.270  0.4907  0.6459  0.1454
27129SOL     OW81964   2.043   7.907   0.036  0.4892 -0.3053 -0.1550
27129SOL    HW181965   1.990   7.854  -0.024 -0.0136  0.2743 -0.2300
27129SOL    HW281966   2.039   7.861   0.120 -0.7523  0.1275  0.0327
27130SOL     OW81967   5.641   0.692   8.770  0.2632  0.0722  0.3864
27130SOL    HW181968   5.577   0.633   8.730 -0.1629  0.3682  0.6251
27130SOL    HW281969   5.651   0.659   8.860  0.1537  0.2552  0.4675
27131SOL     OW81970   9.850   4.849   5.387 -0.2918 -0.0502 -0.1624
27131SOL    HW181971   9.784   4.900   5.340  1.0267  1.7700 -0.1471
27131SOL    HW281972   9.804   4.770   5.415 -1.5731 -0.4450 -3.0219
27132SOL     OW81973   3.696   5.398   4.823  0.2154  0.0990  0.3930
27132SOL    HW181974   3.659   5.327   4.877  0.1562 -1.2434 -1.3297
27132SOL    HW281975   3.770   5.430   4.874 -1.4912  0.8582  2.5729
27133SOL     OW81976   1.899   6.518   6.168 -0.4105  0.1178  0.3408
27133SOL    HW181977   1.875   6.572   6.093 -4.1532 -0.1530  1.1478
27133SOL    HW281978   1.904   6.429   6.134 -1.5531  0.0700  0.2544
27134SOL     OW81979   4.199   5.438   2.259  0.0111  0.3138 -0.1949
27134SOL    HW181980   4.166   5.356   2.296 -0.5286  0.6255  0.0147
27134SOL    HW281981   4.293   5.423   2.250  0.0415 -0.0211  0.6242
27135SOL     OW81982   8.441   3.977   9.447 -0.8355 -0.4825 -0.5628
27135SOL    HW181983   8.397   3.944   9.369 -1.3692 -2.4952  0.5311
27135SOL    HW281984   8.532   3.948   9.437 -0.4507  0.8194 -1.2300
27136SOL     OW81985   6.269   3.843   6.772  0.2670 -0.2384 -0.4739
27136SOL    HW181986   6.291   3.896   6.848 -0.3732 -1.5680  0.6817
27136SOL    HW281987   6.354   3.828   6.728  0.7482 -0.0531  0.3744
27137SOL     OW81988   3.927   2.480   7.084  0.3784 -0.2156 -0.0736
27137SOL    HW181989   3.839   2.442   7.085  0.0973  0.4056 -0.5334
27137SOL    HW281990   3.917   2.565   7.126  0.7861 -0.1887 -0.0310
27138SOL     OW81991   1.255   3.670   9.564  0.3915 -0.9419  0.2376
27138SOL    HW181992   1.250   3.653   9.658 -1.3848  0.5726  0.4669
27138SOL    HW281993   1.174   3.632   9.528 -2.7847  4.5067  0.4932
27139SOL     OW81994   3.091   1.873   2.161 -0.4611  0.1341 -0.4761
27139SOL    HW181995   3.104   1.905   2.250 -2.0668  1.4692 -0.6651
27139SOL    HW281996   3.171   1.825   2.140  0.2818  0.4938  1.3774
27140SOL     OW81997   0.447   2.096   0.533 -0.4664  0.1619  0.2226
27140SOL    HW181998   0.409   2.016   0.568  0.3251  0.3581  1.6492
27140SOL    HW281999   0.421   2.099   0.441 -1.0587 -1.3774  0.3289
27141SOL     OW82000   3.642   0.696   2.409 -0.0872  0.2140 -0.2800
27141SOL    HW182001   3.641   0.716   2.315  2.4449  0.2691 -0.3753
27141SOL    HW282002   3.692   0.615   2.416 -1.4201 -0.5587  0.9619
27142SOL     OW82003   0.947   6.766   2.772  0.2556  0.2777 -0.1999
27142SOL    HW182004   0.967   6.798   2.860 -0.8686  0.3382  0.0558
27142SOL    HW282005   0.886   6.830   2.736 -0.4602 -0.5215 -0.4444
27143SOL     OW82006   6.158   8.680   4.073 -0.0149  0.4222 -0.3749
27143SOL    HW182007   6.205   8.754   4.034  1.2776 -1.0171 -1.7188
27143SOL    HW282008   6.066   8.697   4.055  0.0811  2.5061  0.8439
27144SOL     OW82009   6.662   4.594   9.852  0.1574 -0.3456  0.1155
27144SOL    HW182010   6.706   4.577   9.935 -0.9079 -0.5419  0.6515
27144SOL    HW282011   6.613   4.514   9.834  0.3339 -0.2866 -0.6849
27145SOL     OW82012   3.534   1.630   3.223  0.3047 -0.1834  0.0105
27145SOL    HW182013   3.589   1.592   3.291 -0.9890  0.4378  1.4630
27145SOL    HW282014   3.454   1.656   3.268 -0.6398  0.1962 -1.7711
27146SOL     OW82015   5.361   7.158   3.857 -0.4569  0.2774  0.1744
27146SOL    HW182016   5.353   7.090   3.924 -0.7057 -0.5656 -0.6895
27146SOL    HW282017   5.331   7.237   3.901  1.0508  0.1273  1.5999
27147SOL     OW82018   4.688   6.763   9.556 -1.0614  0.3076 -0.1753
27147SOL    HW182019   4.703   6.856   9.568 -0.1259  0.0243  1.0552
27147SOL    HW282020   4.639   6.736   9.633  0.4189 -0.5789  0.4894
27148SOL     OW82021   2.694   4.066   0.939  0.0738 -0.2136  0.3726
27148SOL    HW182022   2.658   4.020   1.015 -0.2265 -1.9476 -0.7505
27148SOL    HW282023   2.713   4.154   0.971 -5.4984  1.1598  1.0746
27149SOL     OW82024   2.979   6.849   3.686  0.2937 -0.2197 -0.1600
27149SOL    HW182025   3.053   6.875   3.741  0.7676  0.9704 -1.2829
27149SOL    HW282026   2.903   6.893   3.726  0.8956  2.0477 -1.3208
27150SOL     OW82027   1.948   5.621   2.720  0.3753  0.6834  0.1348
27150SOL    HW182028   1.909   5.676   2.787  1.1178  0.3274  0.8662
27150SOL    HW282029   2.041   5.642   2.721  0.6387 -0.3919  0.2589
27151SOL     OW82030   4.112   0.907   7.138  0.1985 -0.0443 -0.1456
27151SOL    HW182031   4.185   0.969   7.137  0.5289 -0.3945  0.8250
27151SOL    HW282032   4.034   0.963   7.137  0.4836  0.4600  1.6948
27152SOL     OW82033   5.712   3.272   1.787 -0.0592 -0.9338  0.5316
27152SOL    HW182034   5.756   3.194   1.819 -0.3645 -1.1756  0.3691
27152SOL    HW282035   5.730   3.273   1.693 -1.1518 -1.5384  0.3018
27153SOL     OW82036   9.205   1.307   6.990 -0.0056  0.2493 -0.1073
27153SOL    HW182037   9.176   1.221   7.019  4.5186 -1.6611 -0.5376
27153SOL    HW282038   9.240   1.349   7.068  1.5365 -0.0643 -0.6038
27154SOL     OW82039   8.634   6.639   9.219  0.2593 -0.0105 -0.0082
27154SOL    HW182040   8.662   6.593   9.298 -1.2352 -2.0129 -0.5262
27154SOL    HW282041   8.627   6.730   9.245 -1.0632 -0.7212  2.4743
27155SOL     OW82042   2.677   4.389   6.361 -0.1174  0.4986 -0.1124
27155SOL    HW182043   2.665   4.441   6.440  0.5720  0.2872  0.1381
27155SOL    HW282044   2.740   4.321   6.386  0.0821  0.4097 -0.8347
27156SOL     OW82045   0.757   1.582   2.974  0.4264  0.0777 -0.2047
27156SOL    HW182046   0.705   1.606   2.897  1.0176  0.2982 -0.5405
27156SOL    HW282047   0.757   1.661   3.028 -1.0795 -0.4657  0.6687
27157SOL     OW82048   2.560   6.000   0.984  0.0257  0.3158  0.4949
27157SOL    HW182049   2.541   5.954   0.902  2.6995 -1.2140  0.6030
27157SOL    HW282050   2.480   6.049   1.004 -1.5000 -1.0521 -1.8253
27158SOL     OW82051   1.371   9.365   6.205 -0.0990  0.3195  0.2467
27158SOL    HW182052   1.356   9.304   6.277 -0.2331  0.9513  0.7603
27158SOL    HW282053   1.463   9.392   6.215  0.0837 -0.1224 -0.2324
27159SOL     OW82054   5.028   2.669   2.903 -0.1519 -0.5470  0.0725
27159SOL    HW182055   4.981   2.705   2.828  0.8062 -1.0085 -0.7850
27159SOL    HW282056   4.966   2.675   2.976 -1.5767 -1.2512 -1.0257
27160SOL     OW82057   3.812   4.003   1.256  0.5656 -0.3037 -0.4580
27160SOL    HW182058   3.877   3.961   1.200  1.8145 -0.5157  1.0848
27160SOL    HW282059   3.776   3.932   1.309  1.3383  0.2335  0.8455
27161SOL     OW82060   5.363   1.918   6.745  0.4829  0.1728  0.2319
27161SOL    HW182061   5.407   1.835   6.762 -1.0596 -0.3414  1.9802
27161SOL    HW282062   5.354   1.920   6.649  1.3475 -1.2205  0.0835
27162SOL     OW82063   7.845   6.599   1.028 -0.1289 -0.4526  0.1141
27162SOL    HW182064   7.765   6.549   1.014  0.8343 -2.3743  1.1073
27162SOL    HW282065   7.816   6.678   1.075 -1.9479  1.0891 -3.2707
27163SOL     OW82066   4.022   2.435   5.313 -0.3001 -0.0187 -0.5876
27163SOL    HW182067   4.069   2.392   5.242  2.0582  3.2712 -1.2616
27163SOL    HW282068   3.957   2.489   5.269 -0.7256 -0.0749 -0.0379
27164SOL     OW82069   5.750   2.661   8.744  0.4005  0.1449  0.8695
27164SOL    HW182070   5.697   2.625   8.816  0.8918  0.8647  1.6121
27164SOL    HW282071   5.717   2.750   8.732 -0.0331 -0.1363 -0.1822
27165SOL     OW82072   2.265   0.471   8.194 -0.3796 -0.2753 -0.1187
27165SOL    HW182073   2.245   0.378   8.184  0.6023 -0.4670 -0.3749
27165SOL    HW282074   2.198   0.515   8.142  0.2842 -0.9297 -1.5906
27166SOL     OW82075   8.970   5.881   8.855 -0.2766  0.6685  0.6837
27166SOL    HW182076   8.915   5.851   8.927 -0.7015  1.1746  0.5709
27166SOL    HW282077   9.059   5.862   8.884 -0.5553 -1.5901  0.2167
27167SOL     OW82078   5.844   1.062   3.084  0.1659  0.5972 -0.0494
27167SOL    HW182079   5.836   0.974   3.046  0.7270  0.3958  0.2793
27167SOL    HW282080   5.929   1.093   3.052  1.0413  0.0890  1.7017
27168SOL     OW82081   2.822   5.451   8.849 -0.4496 -0.7948 -0.3205
27168SOL    HW182082   2.790   5.536   8.818 -0.7298 -0.8687 -0.2347
27168SOL    HW282083   2.748   5.413   8.895 -0.0032 -0.6436  0.5299
27169SOL     OW82084   5.879   7.174   6.675 -0.5588 -0.6404  0.0609
27169SOL    HW182085   5.953   7.162   6.616 -1.7740 -0.6031 -1.5498
27169SOL    HW282086   5.857   7.085   6.703 -1.2738 -0.9055 -1.2598
27170SOL     OW82087   8.196   9.908   6.245 -0.2534 -0.1479 -0.5003
27170SOL    HW182088   8.124   9.881   6.301 -0.1427 -0.3578 -0.4587
27170SOL    HW282089   8.251   9.963   6.301 -0.4996  0.1992 -0.5962
27171SOL     OW82090   7.059   5.330   8.772 -0.3249  0.1665  0.4670
27171SOL    HW182091   7.145   5.300   8.744 -0.4065 -0.4065  0.8165
27171SOL    HW282092   7.078   5.395   8.840 -0.1648 -0.0094  0.5936
27172SOL     OW82093   7.405   3.233   5.879  0.2358  0.1033 -0.0337
27172SOL    HW182094   7.418   3.156   5.823 -0.7424  1.1640 -1.7815
27172SOL    HW282095   7.315   3.223   5.911  1.2853 -1.3952  2.9150
27173SOL     OW82096   0.729   5.266   5.044  0.1825 -0.2484  0.0827
27173SOL    HW182097   0.750   5.346   4.997 -1.3478  1.0720  1.5323
27173SOL    HW282098   0.802   5.207   5.024  1.4503  1.5525 -0.8813
27174SOL     OW82099   8.870   2.692   4.769  0.2576  0.0229  0.3669
27174SOL    HW182100   8.856   2.783   4.796  0.1546  0.1678 -0.1718
27174SOL    HW282101   8.900   2.648   4.849  0.2646  0.5189  0.6412
27175SOL     OW82102   7.801   5.580   7.348 -0.1350  0.4141 -0.3041
27175SOL    HW182103   7.802   5.662   7.398  4.0537  1.6786 -2.0550
27175SOL    HW282104   7.787   5.607   7.257 -0.1465 -0.9967 -0.7476
27176SOL     OW82105   5.671   1.487   4.290 -0.1333 -0.2824  0.2682
27176SOL    HW182106   5.583   1.485   4.329 -0.6033  0.1058 -0.7383
27176SOL    HW282107   5.727   1.443   4.355 -0.9397  0.0597  1.2282
27177SOL     OW82108   2.110   8.132   8.557  0.0658  0.9077 -0.1067
27177SOL    HW182109   2.052   8.187   8.505  1.3565 -0.2382 -2.9889
27177SOL    HW282110   2.077   8.043   8.545  0.5340  0.5850  0.8810
27178SOL     OW82111   8.286   7.909   4.935  0.2995  0.0279 -0.4238
27178SOL    HW182112   8.339   7.830   4.939  0.7699  0.3883  0.7693
27178SOL    HW282113   8.196   7.877   4.927  0.2497 -0.7142  2.3264
27179SOL     OW82114   0.185   3.975   9.489  0.1833 -0.1086 -0.5109
27179SOL    HW182115   0.240   4.027   9.547  0.7103 -1.5715  0.3604
27179SOL    HW282116   0.243   3.906   9.456 -0.8719 -1.1522 -0.2860
27180SOL     OW82117   1.656   3.247   9.875  0.0816  0.1210 -0.3917
27180SOL    HW182118   1.681   3.160   9.906  1.4645  0.6747  0.1505
27180SOL    HW282119   1.648   3.300   9.955  1.5902  1.0453 -0.8119
27181SOL     OW82120   3.309   4.249   8.161  0.4873 -0.0840 -0.1434
27181SOL    HW182121   3.318   4.297   8.078  0.7180  1.2388  0.6221
27181SOL    HW282122   3.220   4.269   8.190  0.6920  0.1297  0.3357
27182SOL     OW82123   1.800   4.815   3.365  0.2860 -0.3068 -0.4887
27182SOL    HW182124   1.776   4.753   3.433 -0.5692  0.0050 -0.4890
27182SOL    HW282125   1.728   4.810   3.302  0.3073  0.5211 -0.5963
27183SOL     OW82126   5.016   8.529   1.094  0.5070  1.0615 -0.0285
27183SOL    HW182127   5.076   8.603   1.087 -0.1179  1.4147 -3.5640
27183SOL    HW282128   4.929   8.569   1.093  0.1557  0.3655  0.9471
27184SOL     OW82129   3.412   3.036   1.601  0.1567  1.2623 -0.5676
27184SOL    HW182130   3.444   3.024   1.691  0.8337 -2.1642 -1.0938
27184SOL    HW282131   3.345   3.103   1.608 -0.8211  0.1526  2.8186
27185SOL     OW82132   1.317   4.398   6.094 -0.3061 -0.3432 -0.0398
27185SOL    HW182133   1.245   4.456   6.119  1.3689  2.6409 -1.6084
27185SOL    HW282134   1.285   4.351   6.017 -0.9782  0.0843 -0.0238
27186SOL     OW82135   6.515   5.088   3.985 -0.1321  0.7055  0.5676
27186SOL    HW182136   6.450   5.134   4.039 -0.9663 -2.1414  2.2080
27186SOL    HW282137   6.566   5.037   4.047  0.3305 -1.0348 -1.1506
27187SOL     OW82138   9.259   4.252   6.537  0.0514  0.0527 -0.1502
27187SOL    HW182139   9.299   4.240   6.451 -0.8347 -1.7656 -0.3476
27187SOL    HW282140   9.210   4.334   6.529  2.4930  1.5933 -0.3227
27188SOL     OW82141   8.721   1.587   6.993 -0.3024 -0.6225  0.3571
27188SOL    HW182142   8.726   1.505   6.945 -0.6155 -0.9850  0.9351
27188SOL    HW282143   8.772   1.573   7.072 -1.7169 -0.8458  1.2699
27189SOL     OW82144   4.575   9.426   9.574  0.2218 -0.1987  0.4839
27189SOL    HW182145   4.611   9.384   9.496 -0.9777  1.0656 -0.7804
27189SOL    HW282146   4.569   9.518   9.551 -0.6980  0.1096  1.8739
27190SOL     OW82147   3.498   5.173   0.243  0.0187  0.6737 -0.2647
27190SOL    HW182148   3.481   5.142   0.154 -0.7518 -0.2620  0.1797
27190SOL    HW282149   3.412   5.193   0.278  0.2517  0.3650  0.4996
27191SOL     OW82150   7.908   4.148   6.324 -0.1172 -0.6489  0.2491
27191SOL    HW182151   7.881   4.103   6.244  3.0917 -2.3990  0.0042
27191SOL    HW282152   8.003   4.140   6.325  0.2605  2.3272  2.5533
27192SOL     OW82153   7.481   4.037   8.012  0.1624  0.5452 -0.0814
27192SOL    HW182154   7.400   4.088   8.003  0.6816  1.4310  0.1509
27192SOL    HW282155   7.550   4.103   8.019  1.0657 -0.1786 -1.6297
27193SOL     OW82156   1.107   9.903   6.851  0.4930 -0.2952 -0.1446
27193SOL    HW182157   1.047   9.843   6.894  0.8496 -0.4013  0.2058
27193SOL    HW282158   1.069   9.916   6.764 -0.5864  0.4512  0.4192
27194SOL     OW82159   8.812   6.735   1.060  0.1107 -0.4080 -0.1558
27194SOL    HW182160   8.872   6.661   1.073 -0.7774 -1.2379 -0.5869
27194SOL    HW282161   8.810   6.746   0.965  1.4375  1.2313 -0.0426
27195SOL     OW82162   0.118   1.824   9.393 -0.0761 -0.3161 -0.0997
27195SOL    HW182163   0.023   1.838   9.393  0.3049  3.0926 -0.0595
27195SOL    HW282164   0.149   1.870   9.471  1.5592 -2.3089  0.4979
27196SOL     OW82165   9.045   4.428   2.211 -0.6502 -0.4464 -0.2417
27196SOL    HW182166   8.975   4.388   2.264 -1.1268  0.6568  0.0018
27196SOL    HW282167   9.125   4.411   2.261 -0.8297 -1.1122 -0.1645
27197SOL     OW82168   0.055   4.789   4.950  0.0714 -0.4616 -0.0158
27197SOL    HW182169  -0.004   4.758   5.019 -0.0861 -0.3525 -0.1007
27197SOL    HW282170   0.142   4.769   4.983 -0.0194 -0.7730  0.0392
27198SOL     OW82171   6.697   3.564   3.701  0.1046 -0.5024  0.1696
27198SOL    HW182172   6.655   3.587   3.783  0.1283 -1.0770  0.3489
27198SOL    HW282173   6.624   3.541   3.643  0.1343 -0.9537  0.3068
27199SOL     OW82174   2.993   1.209   9.074  0.1588  0.8485 -0.0440
27199SOL    HW182175   2.992   1.302   9.096 -3.4137  0.6615  1.2422
27199SOL    HW282176   2.924   1.199   9.008 -0.0123 -1.0079  0.3676
27200SOL     OW82177   9.553   0.662   1.999  0.3092  0.0754  0.1469
27200SOL    HW182178   9.642   0.688   1.976 -0.0708 -0.0786 -1.6355
27200SOL    HW282179   9.503   0.671   1.918 -1.4281  0.6306  1.2002
27201SOL     OW82180   9.544   7.841   0.104 -0.2109 -0.0565 -0.2067
27201SOL    HW182181   9.526   7.777   0.172  2.9886  0.0582  0.9391
27201SOL    HW282182   9.548   7.791   0.023  1.5417 -1.2826  0.5729
27202SOL     OW82183   8.073   6.533   7.625 -0.1211 -0.3843  0.1989
27202SOL    HW182184   8.132   6.519   7.699 -0.6457 -0.0486  0.6861
27202SOL    HW282185   7.987   6.547   7.665 -0.9576 -2.7698 -0.5499
27203SOL     OW82186   8.427   6.784   5.646 -0.0405 -0.7371  0.3193
27203SOL    HW182187   8.440   6.878   5.635  0.7983 -0.9129 -0.3063
27203SOL    HW282188   8.425   6.750   5.556  2.6886 -1.6863  0.5257
27204SOL     OW82189   5.079   3.990   3.524  0.2624 -0.2432 -0.6143
27204SOL    HW182190   4.994   3.973   3.484  0.7280 -0.7520 -1.4141
27204SOL    HW282191   5.117   3.903   3.537  1.5829  0.0078 -2.3550
27205SOL     OW82192   1.713   8.955   2.459  0.3728  0.9741  0.1933
27205SOL    HW182193   1.679   8.878   2.505  0.0946  0.5449 -0.7131
27205SOL    HW282194   1.749   9.011   2.529 -0.3264  0.4873  0.9609
27206SOL     OW82195   2.279   4.787   4.022 -0.3597 -0.1357 -0.5301
27206SOL    HW182196   2.328   4.817   3.945 -1.1108  0.5204 -0.7652
27206SOL    HW282197   2.264   4.694   4.005 -1.9163  0.3286 -1.9939
27207SOL     OW82198   5.832   2.663   9.589  0.9087  0.0208 -0.0026
27207SOL    HW182199   5.756   2.666   9.531  2.5746 -0.7785 -2.3410
27207SOL    HW282200   5.865   2.753   9.590 -0.2646  0.4786  1.4044
27208SOL     OW82201   7.433   9.247   6.005 -0.0661  0.5534 -0.1844
27208SOL    HW182202   7.415   9.338   5.984  0.2324  0.9926  1.3411
27208SOL    HW282203   7.402   9.236   6.095 -0.0377 -0.8355 -0.3156
27209SOL     OW82204   4.432   1.531   8.628  0.3530 -0.6557 -0.2920
27209SOL    HW182205   4.416   1.539   8.534  2.7401 -1.4942 -0.8337
27209SOL    HW282206   4.525   1.551   8.638 -0.1216  0.7193  2.1075
27210SOL     OW82207   6.687   4.651   2.381 -0.3427  0.1833 -0.0049
27210SOL    HW182208   6.639   4.597   2.319 -0.7782  0.3467  0.1820
27210SOL    HW282209   6.629   4.726   2.397  0.6031  1.1428 -0.9049
27211SOL     OW82210   9.520   4.870   7.062 -0.1083 -0.3086 -0.6193
27211SOL    HW182211   9.508   4.776   7.047  0.6769 -0.2556 -1.6596
27211SOL    HW282212   9.614   4.881   7.072 -0.2683  0.2581  0.4382
27212SOL     OW82213   9.879   5.385   4.728  0.3257 -0.2722  0.1221
27212SOL    HW182214   9.796   5.429   4.713 -2.2683 -3.7944  2.4151
27212SOL    HW282215   9.915   5.370   4.641 -2.2248  0.0741 -1.0703
27213SOL     OW82216   7.230   8.115   4.925  0.2858 -0.7179 -0.3482
27213SOL    HW182217   7.233   8.201   4.884  0.4746  0.2730  1.6141
27213SOL    HW282218   7.296   8.119   4.995  1.5460 -3.0765 -1.2832
27214SOL     OW82219   7.741   9.890   8.286 -0.4384 -0.2733 -0.3777
27214SOL    HW182220   7.818   9.862   8.336  0.3929 -0.7135 -1.8320
27214SOL    HW282221   7.777   9.923   8.203 -1.6882  1.5070 -0.2682
27215SOL     OW82222   7.992   5.650   3.476  0.0444 -0.0473  0.6352
27215SOL    HW182223   8.063   5.586   3.472  0.4394  0.3958  0.4852
27215SOL    HW282224   7.950   5.633   3.560 -0.3687 -1.0411  0.2403
27216SOL     OW82225   5.563   1.950   3.986  0.2204  0.1408  0.1794
27216SOL    HW182226   5.475   1.989   3.990  0.3492  0.4374  0.1458
27216SOL    HW282227   5.553   1.865   4.029 -0.1301  0.0848 -0.0054
27217SOL     OW82228   4.780   8.596   2.878 -0.1640 -0.1537  0.5194
27217SOL    HW182229   4.697   8.548   2.880 -0.1774 -0.1130  1.4772
27217SOL    HW282230   4.759   8.680   2.838 -0.3929 -0.4693 -0.0447
27218SOL     OW82231   5.585   4.491   2.478 -0.6874 -1.0242  0.1135
27218SOL    HW182232   5.668   4.487   2.527 -0.6919 -0.9449  0.1264
27218SOL    HW282233   5.594   4.422   2.411 -0.1199 -0.2175 -0.6611
27219SOL     OW82234   0.470   1.535   1.181  0.1002  0.5314 -0.2962
27219SOL    HW182235   0.450   1.446   1.151  1.7625 -0.0758  0.3023
27219SOL    HW282236   0.420   1.545   1.262  2.1523 -1.0129  1.2585
27220SOL     OW82237   4.859   5.891   7.306  0.3199 -0.0119  0.1258
27220SOL    HW182238   4.832   5.925   7.392 -2.3511  0.1891 -0.6922
27220SOL    HW282239   4.899   5.965   7.262 -0.1229  0.4409  0.4729
27221SOL     OW82240   2.124   7.557   2.584  1.1618 -0.2132  0.0416
27221SOL    HW182241   2.190   7.623   2.603  0.7870  0.1256  0.1843
27221SOL    HW282242   2.140   7.532   2.493  0.9454  0.4947 -0.1939
27222SOL     OW82243   1.985   5.495   1.019  0.8970 -0.3579  0.2334
27222SOL    HW182244   2.049   5.430   0.992  0.6725 -0.4717 -0.0258
27222SOL    HW282245   1.961   5.540   0.938  1.4294  0.3894  0.4855
27223SOL     OW82246   6.793   9.366   0.869  0.2628 -0.3963 -0.0202
27223SOL    HW182247   6.761   9.309   0.799  0.3540 -0.8494  0.3026
27223SOL    HW282248   6.807   9.451   0.827  0.5597 -0.7326 -0.6078
27224SOL     OW82249   8.688   4.848   6.542 -0.7726  0.0303  0.2030
27224SOL    HW182250   8.616   4.812   6.593  0.1573 -0.3423  1.2883
27224SOL    HW282251   8.684   4.800   6.459 -1.6105 -0.1557  0.3381
27225SOL     OW82252   1.069   4.857   0.358  0.4199 -0.6177 -0.2996
27225SOL    HW182253   1.079   4.886   0.267  1.5964 -0.0928 -0.0105
27225SOL    HW282254   1.103   4.767   0.357  4.3542  0.6655  0.3722
27226SOL     OW82255   5.348   5.598   1.039 -0.5931  0.2504  0.0218
27226SOL    HW182256   5.345   5.672   1.099  1.6572 -0.2882  0.8872
27226SOL    HW282257   5.256   5.585   1.013 -0.9482  4.0841 -1.2115
27227SOL     OW82258   8.932   2.956   6.017  0.2104  0.6651 -0.3646
27227SOL    HW182259   9.026   2.943   6.006  0.3582  0.2895  1.1619
27227SOL    HW282260   8.911   2.912   6.099 -1.2554  0.9798 -0.5449
27228SOL     OW82261   8.172   3.594   5.686 -0.0502  0.4079 -0.3701
27228SOL    HW182262   8.145   3.517   5.737  0.6948  0.5582  0.2540
27228SOL    HW282263   8.106   3.661   5.707 -0.1463  0.2491 -0.1657
27229SOL     OW82264   5.486   4.447   6.933 -0.6863  0.0278  0.1558
27229SOL    HW182265   5.477   4.505   6.858 -0.1216  2.3784  1.8056
27229SOL    HW282266   5.565   4.478   6.978  0.3048 -2.7602  0.5422
27230SOL     OW82267   0.674   5.729   7.751  0.5565 -0.1738 -0.2166
27230SOL    HW182268   0.601   5.791   7.742 -0.5305 -1.2142  0.8929
27230SOL    HW282269   0.719   5.732   7.667 -2.0716 -1.0622 -1.7595
27231SOL     OW82270   3.834   2.634   9.145  0.0305  0.3389  0.0944
27231SOL    HW182271   3.807   2.722   9.120  3.3348  1.5495  0.3294
27231SOL    HW282272   3.836   2.636   9.241  0.9609  0.2994  0.0792
27232SOL     OW82273   1.470   6.290   9.062 -0.1284  0.6223  0.1858
27232SOL    HW182274   1.497   6.380   9.047  0.7543  0.3354 -0.0332
27232SOL    HW282275   1.552   6.240   9.060 -0.4288  0.0064  1.7420
27233SOL     OW82276   9.771   6.866   5.581  0.2933 -0.3331 -0.5134
27233SOL    HW182277   9.752   6.772   5.580 -0.7339 -0.1664  0.9596
27233SOL    HW282278   9.740   6.896   5.666 -1.5354  1.7878 -1.8279
27234SOL     OW82279   6.005   1.939   8.260 -0.1754  0.0408 -0.5204
27234SOL    HW182280   5.921   1.894   8.253 -1.0023  1.4403  0.0189
27234SOL    HW282281   6.049   1.919   8.177 -0.8574 -1.0350 -0.6525
27235SOL     OW82282   5.929   8.796   7.570 -0.3033  0.4365 -0.0137
27235SOL    HW182283   6.007   8.834   7.529  0.3972 -1.3155 -0.4328
27235SOL    HW282284   5.869   8.779   7.497  0.2218 -1.0534 -0.1368
27236SOL     OW82285   1.247   7.095   4.470 -0.3175 -0.7002  0.2914
27236SOL    HW182286   1.238   7.152   4.546 -1.2006 -1.4803  0.8014
27236SOL    HW282287   1.252   7.007   4.507 -2.3132 -1.2493 -0.5732
27237SOL     OW82288   8.225   1.888   5.371 -0.3062  0.0504  0.0298
27237SOL    HW182289   8.241   1.949   5.444 -0.7602  1.1750 -0.7853
27237SOL    HW282290   8.212   1.944   5.295 -1.8606 -1.0221 -0.5490
27238SOL     OW82291   5.098   8.853   6.627 -0.2426  0.3203 -0.0119
27238SOL    HW182292   5.180   8.834   6.581  0.0942 -0.2911  0.8352
27238SOL    HW282293   5.117   8.930   6.680  0.0653 -0.3590  0.8830
27239SOL     OW82294   5.210   6.289   5.270  0.0850 -0.0045  0.7122
27239SOL    HW182295   5.239   6.339   5.347 -0.4733 -1.2668  1.7930
27239SOL    HW282296   5.120   6.264   5.291 -0.5473  0.7415 -0.9721
27240SOL     OW82297   0.499   0.809   0.287  0.0998  0.0102  0.2604
27240SOL    HW182298   0.555   0.848   0.219 -1.0804 -0.7478 -1.2274
27240SOL    HW282299   0.410   0.819   0.252 -0.3523 -2.8090  0.4215
27241SOL     OW82300   1.698   8.299   2.583 -0.0503 -0.0428  0.0496
27241SOL    HW182301   1.608   8.280   2.559 -0.1679  0.0837  0.3788
27241SOL    HW282302   1.701   8.285   2.678  0.6418 -1.4983 -0.1622
27242SOL     OW82303   8.602   2.717   0.533  0.0258 -0.1443  0.5407
27242SOL    HW182304   8.695   2.741   0.527 -0.0348  0.2503  1.0544
27242SOL    HW282305   8.578   2.738   0.623 -0.7417  0.4369  0.2182
27243SOL     OW82306   3.267   6.688   6.352 -0.4512  0.8958  0.3925
27243SOL    HW182307   3.272   6.684   6.448 -1.8496  0.5955  0.4794
27243SOL    HW282308   3.358   6.681   6.323 -0.1577 -1.7007  1.6237
27244SOL     OW82309   5.909   1.469   3.750 -0.2688 -0.6111 -0.1534
27244SOL    HW182310   5.829   1.430   3.715 -0.6005  0.2645 -0.3832
27244SOL    HW282311   5.882   1.508   3.833  0.0852 -0.9510  0.1244
27245SOL     OW82312   7.718   5.103   7.020  0.2393 -0.2165 -0.1951
27245SOL    HW182313   7.760   5.030   7.066 -1.2770 -1.5881 -0.9005
27245SOL    HW282314   7.683   5.064   6.940 -0.7528  1.2474 -0.5105
27246SOL     OW82315   1.426   7.461   9.744 -0.0024  0.3971  0.1203
27246SOL    HW182316   1.336   7.481   9.718 -0.1730 -0.8749 -0.3436
27246SOL    HW282317   1.478   7.534   9.712 -0.7479  0.6851 -0.4391
27247SOL     OW82318   6.151   4.696   9.103 -0.1007 -0.0084  1.0241
27247SOL    HW182319   6.193   4.769   9.148  1.9659  1.9691 -3.5024
27247SOL    HW282320   6.108   4.736   9.028  0.7746 -3.3359 -1.4836
27248SOL     OW82321   8.102   2.678   5.112 -0.0128 -0.4969 -0.5394
27248SOL    HW182322   8.071   2.627   5.187  0.9106 -0.1001  0.1397
27248SOL    HW282323   8.055   2.642   5.037  0.2904 -2.0588 -0.0268
27249SOL     OW82324   6.447   4.036   9.417  0.5059 -0.1128  0.6271
27249SOL    HW182325   6.433   4.005   9.328 -0.6388 -0.7883  1.0234
27249SOL    HW282326   6.484   3.960   9.463 -0.5371 -0.3249  1.1411
27250SOL     OW82327   8.111   5.675   9.004 -0.2942  0.2036  0.2401
27250SOL    HW182328   8.152   5.624   9.074  0.6770  1.2567  0.4553
27250SOL    HW282329   8.127   5.766   9.028  0.3615  0.5866 -1.5233
27251SOL     OW82330   7.493   5.849   6.654  0.2405 -0.3794 -0.0384
27251SOL    HW182331   7.575   5.835   6.701  0.2707  1.5191  0.5714
27251SOL    HW282332   7.430   5.791   6.696  0.9194 -0.7271  0.5083
27252SOL     OW82333   2.108   5.241   1.769 -0.1020  0.1916 -0.2118
27252SOL    HW182334   2.203   5.235   1.756  0.1265  2.6114 -0.0620
27252SOL    HW282335   2.097   5.308   1.836 -1.9233 -0.6813  0.4284
27253SOL     OW82336   7.911   7.281   3.434 -0.0177 -0.4957  0.2152
27253SOL    HW182337   7.891   7.296   3.341 -0.6069 -1.8231  0.1049
27253SOL    HW282338   7.847   7.216   3.462  2.2729 -2.6959  0.6582
27254SOL     OW82339   6.308   7.343   9.513 -0.1727 -0.2567 -0.6504
27254SOL    HW182340   6.333   7.270   9.569  0.9208  0.0414 -0.7251
27254SOL    HW282341   6.382   7.354   9.453 -1.8682 -1.4694 -3.1291
27255SOL     OW82342   5.268   6.062   6.596  0.0713 -0.0262 -0.0981
27255SOL    HW182343   5.352   6.080   6.554 -0.0252 -0.9197 -0.7019
27255SOL    HW282344   5.203   6.082   6.529 -0.1917  0.4014  0.2788
27256SOL     OW82345   1.166   8.360   9.928 -0.5260  0.1162 -0.0784
27256SOL    HW182346   1.140   8.298   9.996 -2.4146 -0.9298 -1.6323
27256SOL    HW282347   1.235   8.314   9.879 -0.3259  0.1960  0.1259
27257SOL     OW82348   4.265   6.307   7.356  0.1181 -0.1580  0.2250
27257SOL    HW182349   4.270   6.258   7.274  2.5858  2.8082 -1.6038
27257SOL    HW282350   4.190   6.365   7.346  0.1543 -0.1088  0.2348
27258SOL     OW82351   8.381   4.890   3.089  0.1223 -0.1032  0.5420
27258SOL    HW182352   8.358   4.813   3.036  2.1188 -0.9710  0.8699
27258SOL    HW282353   8.299   4.913   3.133 -0.8449 -1.2194 -0.5698
27259SOL     OW82354   8.418   8.362   2.982 -0.0710 -0.4293  0.5257
27259SOL    HW182355   8.480   8.289   2.975 -1.9562 -2.1152  0.3610
27259SOL    HW282356   8.458   8.433   2.931  1.2663 -1.7591 -0.3583
27260SOL     OW82357   1.420   9.889   6.613  0.3087 -0.4188 -0.0025
27260SOL    HW182358   1.416   9.906   6.707  1.1943 -2.6289  0.4935
27260SOL    HW282359   1.364   9.812   6.600 -0.3442  0.2586 -1.4128
27261SOL     OW82360   8.438   1.549   3.421 -0.0436  0.4004 -0.3928
27261SOL    HW182361   8.519   1.571   3.467  0.5011 -0.2744 -1.0068
27261SOL    HW282362   8.455   1.463   3.383 -1.0068  0.3101 -0.6363
27262SOL     OW82363   6.115   8.705   2.309 -0.1048 -0.3831 -0.0892
27262SOL    HW182364   6.080   8.784   2.350 -1.2764 -0.8175 -0.2148
27262SOL    HW282365   6.049   8.681   2.244 -0.0409 -1.7603  0.3233
27263SOL     OW82366   5.343   3.527   4.444  0.1324  0.2964 -0.0803
27263SOL    HW182367   5.363   3.613   4.408  0.1473  0.3305  0.0093
27263SOL    HW282368   5.249   3.514   4.427  0.5171 -0.4794 -1.8087
27264SOL     OW82369   1.618   2.749   2.853 -0.3525  0.4291  0.0206
27264SOL    HW182370   1.700   2.730   2.898 -0.3988  0.1171 -0.0194
27264SOL    HW282371   1.557   2.684   2.886 -0.1406 -0.4219 -1.1690
27265SOL     OW82372   9.213   9.129   2.778  0.2260 -0.4076 -0.5097
27265SOL    HW182373   9.286   9.070   2.760  0.8399 -0.1680  1.1256
27265SOL    HW282374   9.200   9.124   2.872 -1.9795 -0.5590 -0.7609
27266SOL     OW82375   3.787   2.219   5.657  0.7861  0.1858  0.3557
27266SOL    HW182376   3.721   2.161   5.620  0.7663  0.1797  0.4003
27266SOL    HW282377   3.751   2.307   5.646  1.8987  0.4395 -2.0240
27267SOL     OW82378   1.903   8.160   7.864 -0.7989  0.6329 -0.0011
27267SOL    HW182379   1.963   8.091   7.837  0.8616  1.1434  2.0491
27267SOL    HW282380   1.816   8.122   7.854 -0.1014 -0.6286 -1.8009
27268SOL     OW82381   7.880   5.785   8.871 -0.3450 -0.8439 -0.5883
27268SOL    HW182382   7.921   5.798   8.786  1.5935  0.6536  0.4782
27268SOL    HW282383   7.937   5.724   8.917  0.4411  0.7906  0.7105
27269SOL     OW82384   5.840   9.190   2.333 -0.1000  0.3399 -0.4346
27269SOL    HW182385   5.920   9.140   2.322 -2.0839 -2.7231 -2.3657
27269SOL    HW282386   5.813   9.172   2.423  0.6060  0.2000 -0.2477
27270SOL     OW82387   1.668   9.344   2.572  0.3658 -0.2747  0.1247
27270SOL    HW182388   1.738   9.282   2.590 -0.3983 -1.3863 -0.5883
27270SOL    HW282389   1.594   9.311   2.623 -0.0846 -0.0314 -0.3655
27271SOL     OW82390   3.388   5.212   7.280 -0.2553  0.2778  0.3243
27271SOL    HW182391   3.329   5.276   7.239 -0.7134  1.7253  2.9935
27271SOL    HW282392   3.475   5.250   7.268 -0.0375 -0.7397 -1.6693
27272SOL     OW82393   9.030   5.888   8.346 -0.2961 -0.2056  0.6873
27272SOL    HW182394   8.986   5.908   8.429 -1.5637  2.6235 -0.5585
27272SOL    HW282395   9.086   5.964   8.329 -2.4369  0.8605 -2.5006
27273SOL     OW82396   2.162   0.814   6.565 -0.0549 -0.2945  0.2129
27273SOL    HW182397   2.175   0.806   6.660 -0.1780  1.3412  0.3950
27273SOL    HW282398   2.149   0.907   6.551 -1.6376 -0.6870 -1.2304
27274SOL     OW82399   3.540   2.751   3.903  0.7168 -0.3070  0.6910
27274SOL    HW182400   3.542   2.834   3.855 -1.0381  0.9257  2.5727
27274SOL    HW282401   3.619   2.705   3.874  2.4877  2.5564  0.5257
27275SOL     OW82402   9.185   0.029   3.158  0.3933  0.0862 -0.0745
27275SOL    HW182403   9.148   0.083   3.088  2.0544  0.0029 -1.0492
27275SOL    HW282404   9.143  -0.056   3.147 -0.1341  0.3676 -0.2969
27276SOL     OW82405   4.767   2.882   0.433 -0.3085  0.1847 -0.0339
27276SOL    HW182406   4.781   2.957   0.376 -0.9153 -0.8703 -1.6455
27276SOL    HW282407   4.854   2.862   0.468 -0.4687  3.1085  2.5127
27277SOL     OW82408   1.889   8.777   4.255 -0.2044 -1.0981 -0.3718
27277SOL    HW182409   1.943   8.829   4.314 -2.3407  1.7398 -0.6708
27277SOL    HW282410   1.914   8.687   4.271  1.9584 -0.1636  2.0849
27278SOL     OW82411   4.956   4.343   0.229  0.0568  0.2012  0.4139
27278SOL    HW182412   4.966   4.385   0.143  2.3081  0.3294  0.6842
27278SOL    HW282413   4.937   4.252   0.209  0.2374  0.2961 -0.2207
27279SOL     OW82414   6.647   8.873   0.964 -0.1447  0.3209  0.0101
27279SOL    HW182415   6.651   8.888   1.059 -0.0320  0.2310  0.0193
27279SOL    HW282416   6.706   8.799   0.949  0.7512  1.0698 -0.2783
27280SOL     OW82417   6.324   2.620   3.418 -0.0294 -0.2681  0.3411
27280SOL    HW182418   6.319   2.704   3.463 -0.0782 -0.0006 -0.1594
27280SOL    HW282419   6.415   2.614   3.389 -0.5051  0.6644 -1.5860
27281SOL     OW82420   0.743   2.628   5.656 -0.2386  0.1489  0.4184
27281SOL    HW182421   0.705   2.555   5.704  0.8847 -0.8535 -0.1601
27281SOL    HW282422   0.764   2.693   5.724 -0.0039 -0.6325  1.1066
27282SOL     OW82423   8.410   7.976   2.942  0.4438 -0.0936  0.0554
27282SOL    HW182424   8.399   7.909   2.875 -0.3805  0.4823 -0.3939
27282SOL    HW282425   8.447   8.050   2.895  0.4785  0.0873  0.3692
27283SOL     OW82426   0.850   5.722   5.297 -0.2982 -0.1177 -0.0914
27283SOL    HW182427   0.892   5.759   5.220  0.0378 -0.0645  0.1144
27283SOL    HW282428   0.876   5.630   5.296  0.6365  0.1264  0.5695
27284SOL     OW82429   5.493   4.218   0.249 -0.0251 -0.1978 -0.2864
27284SOL    HW182430   5.533   4.134   0.224 -1.9162 -1.4838  0.7201
27284SOL    HW282431   5.434   4.238   0.176 -0.5366 -0.4270  0.0624
27285SOL     OW82432   5.953   6.695   4.558  0.1382 -0.1238 -0.3233
27285SOL    HW182433   5.859   6.702   4.540 -0.3265 -0.7451  1.5771
27285SOL    HW282434   5.976   6.779   4.596  0.2402 -0.1117 -0.4150
27286SOL     OW82435   5.789   2.365   6.767 -0.4552  0.1966 -0.2543
27286SOL    HW182436   5.723   2.327   6.824  0.2592 -1.2575 -0.3515
27286SOL    HW282437   5.860   2.392   6.826 -0.8408  1.1713 -0.2139
27287SOL     OW82438   8.809   2.060   7.441  0.4333 -0.1749  0.4018
27287SOL    HW182439   8.724   2.017   7.434 -0.8135  2.2645 -0.6893
27287SOL    HW282440   8.829   2.059   7.534 -2.1537  1.5460  1.0694
27288SOL     OW82441   4.145   0.905   8.903  0.3113 -0.0171 -0.4278
27288SOL    HW182442   4.200   0.916   8.825  0.4065  0.1124 -0.3420
27288SOL    HW282443   4.153   0.988   8.950 -1.4521  0.7423 -1.3726
27289SOL     OW82444   7.690   7.965   2.520  0.5834  0.3087 -0.3288
27289SOL    HW182445   7.608   7.978   2.472  0.9760 -0.1313 -1.1343
27289SOL    HW282446   7.669   7.899   2.585  1.0715 -2.2643 -2.6265
27290SOL     OW82447   7.161   2.291   7.073 -0.0192 -0.5129  0.0885
27290SOL    HW182448   7.066   2.282   7.079 -0.3851  1.8014 -1.1668
27290SOL    HW282449   7.178   2.381   7.099  1.8922 -0.9673  0.5598
27291SOL     OW82450   6.831   5.810   7.881  0.3545  0.3696  0.0169
27291SOL    HW182451   6.914   5.850   7.856  0.0187  2.3186  1.7093
27291SOL    HW282452   6.813   5.746   7.813  2.6594  0.7264 -1.0032
27292SOL     OW82453   7.214   6.902   2.077 -0.2921  0.1988  0.1157
27292SOL    HW182454   7.268   6.856   2.141 -3.1971 -2.3721  0.9340
27292SOL    HW282455   7.276   6.926   2.007  2.6919  1.7081  2.9918
27293SOL     OW82456   5.977   6.567   7.784  0.4135  0.9050  0.1599
27293SOL    HW182457   5.885   6.545   7.769  0.6587  1.8255 -4.2219
27293SOL    HW282458   6.011   6.496   7.837 -2.2336 -0.9310 -0.4178
27294SOL     OW82459   3.496   8.893   7.643  0.8306  0.0494 -0.2453
27294SOL    HW182460   3.545   8.930   7.570 -0.3536 -1.0547 -1.6597
27294SOL    HW282461   3.473   8.805   7.614  0.8070 -0.6363  1.7135
27295SOL     OW82462   5.578   2.927   2.501 -0.0612 -0.1786 -0.4541
27295SOL    HW182463   5.582   2.852   2.442 -0.2440 -1.1387  0.7120
27295SOL    HW282464   5.631   2.901   2.577  0.0430  0.9506 -0.1199
27296SOL     OW82465   3.874   5.663   1.330 -0.6944 -0.2131  0.0204
27296SOL    HW182466   3.797   5.664   1.273 -1.2571 -0.2683  0.7615
27296SOL    HW282467   3.943   5.626   1.275 -0.7943  1.2185 -1.1380
27297SOL     OW82468   0.476   1.932   3.672 -0.0192  0.4898  0.3945
27297SOL    HW182469   0.382   1.920   3.659  0.1901 -0.4476 -0.3959
27297SOL    HW282470   0.514   1.847   3.652  0.8821  0.4425  2.1255
27298SOL     OW82471   1.397   4.513   5.659  0.6859  0.4038 -0.4463
27298SOL    HW182472   1.377   4.444   5.595  0.5824 -0.8714  0.9027
27298SOL    HW282473   1.450   4.469   5.726  0.9287  1.7348  0.2694
27299SOL     OW82474   5.320   3.390   5.001  0.2950 -0.6755 -0.3425
27299SOL    HW182475   5.357   3.476   5.018 -0.0624 -0.4370 -0.7598
27299SOL    HW282476   5.256   3.404   4.931 -1.0603 -0.9802  0.8070
27300SOL     OW82477   1.243   6.661   4.225 -0.0309  0.5430 -0.1351
27300SOL    HW182478   1.229   6.683   4.133 -1.9556  0.2446  0.0298
27300SOL    HW282479   1.333   6.629   4.230  0.0041  0.2946 -1.9661
27301SOL     OW82480   2.279   0.124   6.126  0.3206 -0.5758  0.4893
27301SOL    HW182481   2.270   0.199   6.068  1.3730 -1.3228 -0.7035
27301SOL    HW282482   2.222   0.144   6.200 -0.4751  0.7640 -0.4326
27302SOL     OW82483   5.549   6.274   5.706 -0.2250  0.1428 -0.1106
27302SOL    HW182484   5.510   6.197   5.748  0.0799  0.7287  1.3116
27302SOL    HW282485   5.539   6.258   5.612 -0.3006 -1.5485  0.1570
27303SOL     OW82486   3.981   1.674   1.903 -0.2114 -0.6508 -0.1706
27303SOL    HW182487   3.920   1.674   1.977 -0.0425  0.0973 -0.0245
27303SOL    HW282488   4.067   1.662   1.944 -0.0949 -0.0076 -0.2167
27304SOL     OW82489   5.312   8.177   9.621 -0.5272 -0.1877  0.1048
27304SOL    HW182490   5.375   8.137   9.681 -2.5146 -1.8501  1.1989
27304SOL    HW282491   5.331   8.271   9.625  1.8094 -0.6029  0.4083
27305SOL     OW82492   6.259   9.407   5.645 -0.2518  0.2442 -0.0091
27305SOL    HW182493   6.303   9.340   5.593  0.5041  0.6949  0.0324
27305SOL    HW282494   6.165   9.390   5.632 -0.0845  0.2255 -1.3619
27306SOL     OW82495   8.210   8.986   5.723 -0.1246 -0.0395 -0.2116
27306SOL    HW182496   8.175   8.900   5.700 -1.9124  0.1161  1.6304
27306SOL    HW282497   8.291   8.968   5.770 -0.2632 -0.6865 -0.2158
27307SOL     OW82498   5.138   1.393   3.448 -0.5467 -0.3346 -0.1966
27307SOL    HW182499   5.044   1.371   3.450 -0.6253 -0.0401 -0.6269
27307SOL    HW282500   5.161   1.394   3.355 -0.7176  2.0794 -0.2647
27308SOL     OW82501   5.133   2.004   2.821  0.4809 -0.4092  0.1636
27308SOL    HW182502   5.161   1.938   2.884 -1.7436 -1.3840  0.2425
27308SOL    HW282503   5.139   1.960   2.736 -0.6796 -0.6467  0.1824
27309SOL     OW82504   7.288   9.830   6.333 -0.2869  0.2652 -0.4395
27309SOL    HW182505   7.265   9.840   6.241 -1.9649 -1.8495 -0.3224
27309SOL    HW282506   7.350   9.757   6.334  0.1865  0.6660  0.0660
27310SOL     OW82507   9.703   4.705   6.212 -0.0454  0.0532  0.2178
27310SOL    HW182508   9.775   4.767   6.208  0.6521 -0.7631 -3.3200
27310SOL    HW282509   9.734   4.637   6.273  1.9841  0.0323 -0.7371
27311SOL     OW82510   9.535   3.048   0.573  0.1191  0.3558  0.0239
27311SOL    HW182511   9.541   3.004   0.658  0.4677 -0.3689 -0.3642
27311SOL    HW282512   9.506   2.979   0.513 -0.9698  1.0650 -0.2929
27312SOL     OW82513   0.173   1.998   6.865  0.0465 -0.5305 -0.3324
27312SOL    HW182514   0.143   2.044   6.943 -0.5601 -0.0173 -0.8558
27312SOL    HW282515   0.098   2.000   6.806  1.0723  0.7444 -1.6600
27313SOL     OW82516   8.409   7.103   1.616  0.1084 -0.1766 -1.0213
27313SOL    HW182517   8.488   7.152   1.593  0.0388 -0.1680 -1.2453
27313SOL    HW282518   8.430   7.012   1.594  0.5374 -0.3821  0.1547
27314SOL     OW82519   5.342   3.565   2.277 -0.4937 -0.4024  0.2093
27314SOL    HW182520   5.380   3.564   2.189  2.7968 -0.9586  1.4942
27314SOL    HW282521   5.336   3.658   2.299 -2.6050 -0.1839 -0.9941
27315SOL     OW82522   8.671   4.297   1.382  0.1906  0.0947  0.0980
27315SOL    HW182523   8.609   4.226   1.400 -2.0540  1.9217 -0.0686
27315SOL    HW282524   8.675   4.301   1.286  0.5414  0.0464  0.1077
27316SOL     OW82525   7.164   7.981   3.761  0.6018  0.7003 -0.4459
27316SOL    HW182526   7.238   8.000   3.819 -1.1777  1.4521  1.7107
27316SOL    HW282527   7.177   8.040   3.686  3.3667 -0.8445 -1.3439
27317SOL     OW82528   2.138   1.318   0.238 -0.4281 -0.8999  0.3413
27317SOL    HW182529   2.208   1.368   0.280 -1.9235  1.6786  0.0238
27317SOL    HW282530   2.080   1.292   0.310 -2.2122  2.2481  0.2471
27318SOL     OW82531   3.969   2.486   3.236  0.2477 -0.3175  0.1449
27318SOL    HW182532   4.013   2.458   3.317  1.0860 -1.6860 -0.7412
27318SOL    HW282533   4.028   2.459   3.166 -1.3032 -0.8267 -1.0316
27319SOL     OW82534   5.125   5.401   6.221 -0.1618  0.6055 -0.3101
27319SOL    HW182535   5.071   5.480   6.228  1.7049  2.0530 -1.3228
27319SOL    HW282536   5.172   5.396   6.304  1.3541  1.8707 -1.0515
27320SOL     OW82537   6.340   8.271   9.053 -0.6993  0.1858  0.5531
27320SOL    HW182538   6.385   8.346   9.014  0.1451 -0.2123  0.7348
27320SOL    HW282539   6.411   8.211   9.078 -1.3869 -0.9543 -0.1509
27321SOL     OW82540   1.019   3.581   9.469 -0.2040 -0.5047 -0.0863
27321SOL    HW182541   0.999   3.512   9.406 -1.0493 -1.4511  1.1633
27321SOL    HW282542   0.993   3.544   9.554  0.7425  0.7797  0.8039
27322SOL     OW82543   4.204   7.668   5.158  0.2420 -0.4702 -0.5111
27322SOL    HW182544   4.204   7.739   5.094  0.1596 -0.5237 -0.5702
27322SOL    HW282545   4.256   7.599   5.117  0.1341 -0.5296 -0.5470
27323SOL     OW82546   1.402   6.421   3.251 -0.1426 -0.0007 -0.1974
27323SOL    HW182547   1.423   6.485   3.183  1.7592  0.6809  0.9658
27323SOL    HW282548   1.458   6.346   3.232 -0.0785 -0.0644  0.2309
27324SOL     OW82549   9.688   3.939   5.305  0.4530 -0.2282  0.6454
27324SOL    HW182550   9.717   3.934   5.214  0.0471 -0.0376  0.5032
27324SOL    HW282551   9.686   4.032   5.325 -0.3204 -0.2223  0.5635
27325SOL     OW82552   4.336   6.091   3.448 -0.1286 -0.0348 -0.0626
27325SOL    HW182553   4.374   6.010   3.482  0.1873  0.6635  1.2927
27325SOL    HW282554   4.243   6.085   3.470 -0.2392 -0.3158 -0.5725
27326SOL     OW82555   0.851   7.601   1.774  0.1004  0.0947 -0.2829
27326SOL    HW182556   0.867   7.514   1.810  0.3027  0.4843  0.6103
27326SOL    HW282557   0.756   7.604   1.760  0.0060 -0.0453  0.3044
27327SOL     OW82558   5.689   7.186   5.360 -0.2849 -0.0481  0.1825
27327SOL    HW182559   5.618   7.233   5.404  0.6952  2.2824 -0.5572
27327SOL    HW282560   5.764   7.196   5.418  0.1477  0.0486 -0.3905
27328SOL     OW82561   7.806   8.518   4.067  0.0028 -0.1171 -0.3606
27328SOL    HW182562   7.779   8.458   3.996  0.3206  0.9696 -1.4385
27328SOL    HW282563   7.746   8.592   4.059  0.2730  0.1750  0.2897
27329SOL     OW82564   6.762   7.772   6.352 -0.1654 -0.0561 -0.1553
27329SOL    HW182565   6.734   7.684   6.329 -1.8251  0.8285 -1.8296
27329SOL    HW282566   6.843   7.786   6.303  0.6484 -0.9478  0.8872
27330SOL     OW82567   5.434   7.231   3.583 -0.3297 -0.5895  0.0741
27330SOL    HW182568   5.402   7.190   3.664 -2.8506 -0.8847 -0.9763
27330SOL    HW282569   5.451   7.322   3.607 -3.0447 -0.1114  0.5821
27331SOL     OW82570   5.593   0.189   6.584  0.5223 -0.0548 -0.1870
27331SOL    HW182571   5.539   0.175   6.506  1.4940 -0.2133 -0.8521
27331SOL    HW282572   5.610   0.101   6.618 -0.2707  0.0368  0.4799
27332SOL     OW82573   7.313   2.680   7.830  0.4125 -0.4347 -0.0105
27332SOL    HW182574   7.238   2.729   7.798 -0.9309 -2.6925 -0.5662
27332SOL    HW282575   7.327   2.712   7.920 -1.5164 -0.2824  0.2688
27333SOL     OW82576   4.042   5.110   8.630  0.4018  0.3425 -0.0032
27333SOL    HW182577   4.043   5.025   8.587 -0.9894  0.5585 -0.4917
27333SOL    HW282578   3.998   5.168   8.569  1.2107  1.3967  0.3868
27334SOL     OW82579   0.019   3.149   5.849  0.2808 -0.0951  0.1479
27334SOL    HW182580   0.023   3.158   5.944 -1.3011 -1.4782  0.3914
27334SOL    HW282581  -0.005   3.235   5.817  0.6727  0.3443  1.0027
27335SOL     OW82582   4.315   1.984   4.791 -0.0985  0.3050 -0.1542
27335SOL    HW182583   4.384   1.939   4.742 -0.1697 -0.3506  0.3359
27335SOL    HW282584   4.293   1.924   4.862 -0.5858  0.8803  0.1881
27336SOL     OW82585   8.000   1.819   2.497  0.0181 -0.5020 -0.2621
27336SOL    HW182586   7.921   1.861   2.461  1.2321  1.2782 -0.9765
27336SOL    HW282587   7.988   1.826   2.592  0.8117  2.9886 -0.2791
27337SOL     OW82588   5.977   5.784   1.662 -0.3365  0.0011  0.0557
27337SOL    HW182589   5.949   5.743   1.581 -0.1662 -1.8685  0.8902
27337SOL    HW282590   6.020   5.865   1.635  1.2200 -1.3816 -1.8522
27338SOL     OW82591   9.245   4.480   4.673  0.0434  0.0481  0.2067
27338SOL    HW182592   9.222   4.392   4.644 -1.7461  0.2364  0.8987
27338SOL    HW282593   9.187   4.538   4.623  1.1947  0.8603 -0.2408
27339SOL     OW82594   8.545   5.977   3.364 -0.2414  0.3565 -0.6053
27339SOL    HW182595   8.565   6.066   3.392  1.0284 -0.1587  0.2151
27339SOL    HW282596   8.483   5.945   3.430 -0.0925  0.3729 -0.4556
27340SOL     OW82597   9.197   1.713   0.632 -0.5876  0.1329 -0.1515
27340SOL    HW182598   9.242   1.659   0.697 -0.6246  0.3034  0.0177
27340SOL    HW282599   9.211   1.803   0.662 -1.1916  0.1784 -0.0005
27341SOL     OW82600   5.985   4.935   9.330 -0.4090  0.4179  0.1653
27341SOL    HW182601   5.948   5.002   9.387  0.7497  0.0079  1.4621
27341SOL    HW282602   5.938   4.854   9.353 -0.8308  0.4954 -0.3976
27342SOL     OW82603   2.713   7.338   2.618  0.3301  0.0751 -0.2671
27342SOL    HW182604   2.750   7.255   2.588  2.4185  1.1823 -1.0199
27342SOL    HW282605   2.635   7.351   2.565 -0.7263 -1.9344  0.7112
27343SOL     OW82606   2.676   5.513   8.036  0.9084  0.0439  0.0549
27343SOL    HW182607   2.603   5.457   8.064  0.7796  0.3754  0.3812
27343SOL    HW282608   2.634   5.593   8.005  1.0119 -0.4736 -1.5077
27344SOL     OW82609   0.992   5.249   4.532  0.0636  0.0474  0.3348
27344SOL    HW182610   0.931   5.263   4.605  0.2348 -0.3106  0.5491
27344SOL    HW282611   0.958   5.173   4.487  0.4672 -0.2802  0.5780
27345SOL     OW82612   2.621   3.451   8.140  0.4233  0.1301  0.2775
27345SOL    HW182613   2.566   3.466   8.217  2.7256  0.1423  2.0301
27345SOL    HW282614   2.640   3.538   8.107 -0.4065  0.1352 -0.2031
27346SOL     OW82615   9.259   6.673   1.191 -0.6639 -0.3138 -0.5958
27346SOL    HW182616   9.324   6.629   1.136  3.4955  2.3947  1.7048
27346SOL    HW282617   9.242   6.610   1.262  2.0271  0.0042  0.4506
27347SOL     OW82618   9.623   0.984   4.355  0.1445  0.6969 -0.0609
27347SOL    HW182619   9.630   1.079   4.339  0.4161  0.5988 -0.5259
27347SOL    HW282620   9.711   0.959   4.385  0.4518  0.3483 -1.2283
27348SOL     OW82621   1.015   1.182   8.807 -0.5282 -0.3875 -0.2147
27348SOL    HW182622   1.028   1.228   8.890  2.1607 -1.8024  0.2708
27348SOL    HW282623   0.979   1.097   8.831  1.5846 -1.3620 -0.2457
27349SOL     OW82624   9.340   4.566   9.077 -0.3125 -0.7673 -0.0912
27349SOL    HW182625   9.422   4.570   9.126 -0.3901  1.2027 -0.0085
27349SOL    HW282626   9.358   4.511   9.002  1.1532 -0.2352 -0.1535
27350SOL     OW82627   4.065   7.243   0.679  0.1831 -0.4524 -0.1217
27350SOL    HW182628   3.986   7.292   0.654  0.5102 -1.1161 -2.7405
27350SOL    HW282629   4.035   7.183   0.747 -0.5040  2.3881  2.3153
27351SOL     OW82630   2.041   9.254   5.760  0.4253  0.1707 -0.0511
27351SOL    HW182631   2.073   9.344   5.753 -2.0258  1.0527 -0.6049
27351SOL    HW282632   1.953   9.261   5.796 -0.4478 -1.8729 -1.5620
27352SOL     OW82633   8.124   7.616   4.251 -0.1097 -0.3703  0.4105
27352SOL    HW182634   8.135   7.704   4.286  0.2101 -0.1182 -0.3072
27352SOL    HW282635   8.042   7.585   4.290 -0.9674  0.7747 -0.3861
27353SOL     OW82636   8.867   4.428   7.330 -0.0927  0.7779 -0.4173
27353SOL    HW182637   8.913   4.444   7.247  1.6618 -0.1030  0.3352
27353SOL    HW282638   8.808   4.502   7.339 -0.3924  0.8623 -2.4822
27354SOL     OW82639   0.901   9.861   1.464  0.6187 -0.1098  0.8757
27354SOL    HW182640   0.828   9.831   1.409  1.7238  0.7744 -1.1870
27354SOL    HW282641   0.953   9.783   1.480  1.5690 -0.0177 -1.4464
27355SOL     OW82642   4.841   9.265   8.023  0.0489  0.1567  0.2410
27355SOL    HW182643   4.825   9.358   8.007 -0.0938  0.4615  1.9616
27355SOL    HW282644   4.917   9.263   8.082 -0.6320 -0.7491  1.1270
27356SOL     OW82645   3.607   1.092   8.656 -0.0117  0.1855 -0.3839
27356SOL    HW182646   3.677   1.145   8.697 -0.7161  0.7639  0.1022
27356SOL    HW282647   3.566   1.152   8.593  0.8638 -0.6056 -1.7477
27357SOL     OW82648   4.697   7.011   8.835  0.2470  0.1521 -0.2610
27357SOL    HW182649   4.691   7.103   8.809  2.0934  0.1453 -0.8381
27357SOL    HW282650   4.768   7.008   8.899 -0.5338 -0.7282  0.6105
27358SOL     OW82651   6.006   6.194   8.307  0.2308 -0.0168 -0.6671
27358SOL    HW182652   6.069   6.199   8.235 -0.9673 -0.3711 -1.7700
27358SOL    HW282653   6.028   6.113   8.353 -0.3295 -0.9213 -1.9436
27359SOL     OW82654   1.058   3.758   2.221  0.2744  0.4425 -0.2196
27359SOL    HW182655   1.071   3.692   2.289  0.0006  1.3153  0.6895
27359SOL    HW282656   1.146   3.780   2.192  0.4596  0.8961  0.6611
27360SOL     OW82657   3.895   6.655   6.157  0.0505 -0.0842 -0.2997
27360SOL    HW182658   3.804   6.662   6.129 -0.1927  1.0788  0.6816
27360SOL    HW282659   3.946   6.680   6.080 -0.5725  2.2275 -0.0520
27361SOL     OW82660   2.802   8.594   1.140 -0.6511 -1.2196 -0.1972
27361SOL    HW182661   2.815   8.615   1.048  3.2765  0.5816  0.5594
27361SOL    HW282662   2.741   8.660   1.172  0.8528  0.5839 -0.8360
27362SOL     OW82663   4.291   3.976   1.057  0.0652  0.3697 -0.6100
27362SOL    HW182664   4.320   4.064   1.080 -2.3118  1.0237  0.0891
27362SOL    HW282665   4.220   3.957   1.118 -0.6520 -1.3144 -1.8866
27363SOL     OW82666   3.255   5.707   8.520  0.0309  0.1698  0.0288
27363SOL    HW182667   3.349   5.726   8.522 -0.0275  1.0309 -2.1540
27363SOL    HW282668   3.248   5.615   8.545  1.3626  0.2969  0.9774
27364SOL     OW82669   3.224   4.948   6.362 -0.1034 -0.7526  0.0289
27364SOL    HW182670   3.222   5.004   6.439 -2.6627 -1.0810  0.2944
27364SOL    HW282671   3.249   5.006   6.291 -1.1769  0.3988  0.5470
27365SOL     OW82672   3.874   5.024   3.407  0.1696 -0.3300 -0.0363
27365SOL    HW182673   3.782   5.018   3.383  0.2596 -0.2388 -0.4140
27365SOL    HW282674   3.921   5.006   3.326  0.4949 -1.2052  0.3342
27366SOL     OW82675   4.226   3.955   2.667 -0.0624 -0.3633 -0.7302
27366SOL    HW182676   4.132   3.976   2.674  0.0924  0.0913  0.1283
27366SOL    HW282677   4.269   4.040   2.671  0.5582 -0.7025  2.3247
27367SOL     OW82678   3.222   1.052   8.512  0.2641 -0.2419  0.2309
27367SOL    HW182679   3.239   1.052   8.418 -0.1136 -1.2386  0.1539
27367SOL    HW282680   3.284   0.988   8.547 -1.1059 -1.5547  0.3526
27368SOL     OW82681   7.271   7.026   0.134  0.2771 -0.3179  0.2161
27368SOL    HW182682   7.362   6.998   0.142  0.7988  1.5549  1.4518
27368SOL    HW282683   7.234   7.012   0.221  0.1455  1.3257  0.4613
27369SOL     OW82684   8.259   6.942   9.446  0.1258 -0.2065 -0.0772
27369SOL    HW182685   8.269   6.892   9.365  0.1852 -0.6605  0.2081
27369SOL    HW282686   8.170   6.921   9.476  0.7398 -1.4760  0.9258
27370SOL     OW82687   7.377   8.293   9.012 -0.4543  0.5760 -0.4226
27370SOL    HW182688   7.415   8.310   8.926  1.7079  0.2496  0.3963
27370SOL    HW282689   7.324   8.214   9.000 -1.0621  1.1403 -1.6521
27371SOL     OW82690   5.606   3.173   3.163 -0.1704  0.4757  0.0858
27371SOL    HW182691   5.608   3.135   3.251 -2.7787  0.0229  0.0287
27371SOL    HW282692   5.556   3.254   3.173 -0.1608  0.6163 -0.9250
27372SOL     OW82693   0.325   4.245   0.358 -0.1816 -0.0242 -0.3059
27372SOL    HW182694   0.353   4.153   0.359 -2.3217 -0.7456  2.1050
27372SOL    HW282695   0.232   4.241   0.337  0.1165  1.8479 -2.3729
27373SOL     OW82696   0.879   8.291   2.038  0.1559  0.6572  0.0006
27373SOL    HW182697   0.797   8.329   2.009 -0.2839 -0.5225 -0.3696
27373SOL    HW282698   0.874   8.293   2.134 -1.4151 -1.5864  0.0440
27374SOL     OW82699   2.623   2.830   3.558  0.1032 -0.3784  0.1636
27374SOL    HW182700   2.571   2.886   3.500  0.7444 -0.7737 -0.8174
27374SOL    HW282701   2.559   2.792   3.618 -0.7752 -0.9171 -1.0609
27375SOL     OW82702   7.304   0.515   8.614 -0.7007  0.3358 -0.1994
27375SOL    HW182703   7.383   0.520   8.560 -0.1355  0.1663  0.5891
27375SOL    HW282704   7.275   0.605   8.622  0.0741  0.5466  0.4334
27376SOL     OW82705   5.450   4.396   4.085  0.0211 -0.9831 -0.3547
27376SOL    HW182706   5.488   4.336   4.148  1.7859 -1.5268 -1.8644
27376SOL    HW282707   5.523   4.453   4.059 -1.0058  0.1481 -0.8620
27377SOL     OW82708   6.151   9.233   2.092 -0.0579 -0.4691 -0.3241
27377SOL    HW182709   6.156   9.257   2.000 -1.1265 -0.5272 -0.4030
27377SOL    HW282710   6.109   9.147   2.092 -1.6170  0.2536  0.3023
27378SOL     OW82711   6.813   8.382   7.832  0.0602  0.2664  0.2510
27378SOL    HW182712   6.746   8.315   7.844  0.8726 -0.5412  0.4105
27378SOL    HW282713   6.777   8.440   7.765 -0.3887 -0.7200 -0.3887
27379SOL     OW82714   9.319   8.069   7.284  0.0674  0.2808  1.1429
27379SOL    HW182715   9.400   8.111   7.256 -1.0382  1.4103 -0.6517
27379SOL    HW282716   9.326   7.979   7.251 -0.1105  0.8768 -0.6786
27380SOL     OW82717   9.810   4.112   9.490  0.3550 -0.6523  0.2638
27380SOL    HW182718   9.864   4.110   9.411  0.6714 -2.6494  0.4640
27380SOL    HW282719   9.849   4.179   9.545 -0.6053  1.6787 -1.7307
27381SOL     OW82720   7.571   5.128   2.957 -0.1124 -0.0318 -0.0768
27381SOL    HW182721   7.598   5.205   3.006  1.2089 -2.0471  2.6033
27381SOL    HW282722   7.510   5.082   3.014  1.5946 -2.5519 -0.0860
27382SOL     OW82723   8.327   5.075   4.418  0.4693  0.3971 -0.6890
27382SOL    HW182724   8.337   5.128   4.497 -0.3242  0.4358 -0.6070
27382SOL    HW282725   8.291   5.136   4.353  1.7473  0.5334 -1.2835
27383SOL     OW82726   9.102   2.620   3.177  0.2009 -0.1534 -0.4440
27383SOL    HW182727   9.027   2.582   3.131 -0.5213  1.9976 -1.1363
27383SOL    HW282728   9.065   2.689   3.231  1.2534 -1.5795  2.2629
27384SOL     OW82729   4.673   6.423   6.009  0.0901 -0.7990  0.3167
27384SOL    HW182730   4.651   6.428   6.102  0.7181 -1.0103  0.4816
27384SOL    HW282731   4.616   6.354   5.975 -0.5531 -0.3294  0.4167
27385SOL     OW82732   5.933   2.518   6.046 -0.8206  0.0319 -0.0211
27385SOL    HW182733   5.921   2.426   6.069  0.2901 -0.4196 -1.1250
27385SOL    HW282734   5.864   2.564   6.093 -1.7129 -1.4245  0.1392
27386SOL     OW82735   1.647   1.390   9.547  0.1661  0.3234  0.3875
27386SOL    HW182736   1.705   1.445   9.600  1.7870 -0.6808 -0.2532
27386SOL    HW282737   1.692   1.382   9.463 -1.5989  0.6182 -0.6367
27387SOL     OW82738   6.356   2.557   9.138 -0.1604 -0.6185  0.3369
27387SOL    HW182739   6.305   2.593   9.065  0.3834 -1.9267 -0.7408
27387SOL    HW282740   6.334   2.464   9.139  0.1314 -0.6911  1.6204
27388SOL     OW82741   8.361   9.745   9.633 -0.0591 -0.3751 -0.2953
27388SOL    HW182742   8.285   9.803   9.640 -0.3726 -0.8313  0.1648
27388SOL    HW282743   8.431   9.793   9.677 -0.2376 -0.2093 -0.1869
27389SOL     OW82744   9.233   2.287   6.779  0.2415 -0.1440  0.0812
27389SOL    HW182745   9.244   2.293   6.684  0.1633  0.0637  0.0855
27389SOL    HW282746   9.283   2.361   6.814 -0.4233  0.2730  0.1524
27390SOL     OW82747   7.089   4.000   1.910  0.0203 -0.2785  0.4976
27390SOL    HW182748   7.096   4.026   2.002 -0.4570 -0.6139  0.6311
27390SOL    HW282749   7.180   3.987   1.881  0.5328  3.5514 -0.1795
27391SOL     OW82750   1.298   6.826   9.126 -0.0083 -0.5516 -0.0644
27391SOL    HW182751   1.262   6.739   9.146  3.1789 -1.6292  1.7596
27391SOL    HW282752   1.323   6.861   9.212 -0.1442  1.7316 -0.8857
27392SOL     OW82753   1.298   8.520   0.929  0.3461 -0.0427  0.0108
27392SOL    HW182754   1.263   8.538   1.017 -0.2202  0.1462 -0.2500
27392SOL    HW282755   1.376   8.574   0.923  0.1942  0.2128  0.2715
27393SOL     OW82756   0.159   7.485   7.748  0.7519  0.2331  0.2356
27393SOL    HW182757   0.140   7.566   7.796 -0.9557  0.9660 -1.5416
27393SOL    HW282758   0.225   7.440   7.801  0.6394  2.0711  2.0334
27394SOL     OW82759   9.733   4.313   1.509 -0.2860 -0.9430  0.8920
27394SOL    HW182760   9.797   4.253   1.470  1.0663 -0.7211  2.6916
27394SOL    HW282761   9.748   4.307   1.603 -1.9209  0.2670  1.2679
27395SOL     OW82762   6.762   5.139   5.521 -0.3879 -0.7428  0.0221
27395SOL    HW182763   6.854   5.130   5.496 -0.2806  0.5723 -0.0856
27395SOL    HW282764   6.761   5.123   5.615  0.3768  1.7133  0.5150
27396SOL     OW82765   5.082   4.271   8.529  0.0231 -0.1076 -0.0513
27396SOL    HW182766   5.159   4.218   8.511  0.2841  0.1181  0.3660
27396SOL    HW282767   5.110   4.332   8.598 -0.2969  0.5083 -0.4563
27397SOL     OW82768   8.940   5.828   1.674  0.1292 -0.4689 -0.2483
27397SOL    HW182769   8.996   5.906   1.676 -0.2695 -0.1263 -1.6529
27397SOL    HW282770   9.000   5.757   1.652  0.7885 -0.8936  2.4542
27398SOL     OW82771   3.167   2.483   5.889 -0.3992  0.4985  0.0179
27398SOL    HW182772   3.205   2.563   5.854  1.4781 -0.2935  0.1431
27398SOL    HW282773   3.242   2.426   5.907 -1.5635 -0.6342  1.5754
27399SOL     OW82774   2.110   4.123   3.252 -0.4400 -0.4813 -0.1602
27399SOL    HW182775   2.148   4.042   3.218  0.2519 -0.1082 -0.2864
27399SOL    HW282776   2.030   4.095   3.297  0.0698 -1.2985  0.2567
27400SOL     OW82777   9.612   4.345   8.379  0.2073 -0.1092  0.0342
27400SOL    HW182778   9.676   4.356   8.450 -1.1886 -1.3497  1.5470
27400SOL    HW282779   9.623   4.424   8.326  0.5730  1.4152  2.2264
27401SOL     OW82780   7.853   8.046   6.017 -0.1082  0.5984  0.3730
27401SOL    HW182781   7.830   8.120   6.074  1.1606 -0.3454  2.1993
27401SOL    HW282782   7.769   8.005   5.996 -0.8533  2.5725 -0.7820
27402SOL     OW82783   4.118   6.352   2.670 -0.0300  0.0358 -0.0392
27402SOL    HW182784   4.103   6.270   2.623 -1.6652  0.6139 -0.6220
27402SOL    HW282785   4.042   6.362   2.727  1.0181  0.2912  1.3785
27403SOL     OW82786   6.105   8.240   3.238  0.7452  0.3644 -0.5778
27403SOL    HW182787   6.198   8.229   3.259  0.5505  1.1551  0.8159
27403SOL    HW282788   6.082   8.161   3.189  1.9579 -0.2167 -0.2467
27404SOL     OW82789   5.056   0.285   1.678 -0.5966  0.3673  0.6994
27404SOL    HW182790   5.024   0.229   1.749  1.2260  0.5076  1.6891
27404SOL    HW282791   5.043   0.374   1.709 -0.9031  0.4533  0.3318
27405SOL     OW82792   7.210   1.175   2.432 -0.2946  0.1699  0.5033
27405SOL    HW182793   7.136   1.121   2.459 -0.4188  0.4623  0.7625
27405SOL    HW282794   7.254   1.197   2.514  0.6504 -0.7991  0.2777
27406SOL     OW82795   6.504   4.344   5.310  0.8796  0.3900  0.4036
27406SOL    HW182796   6.533   4.253   5.314  0.0226  0.1543  3.2911
27406SOL    HW282797   6.524   4.371   5.220 -0.8951 -3.2777 -1.3120
27407SOL     OW82798   0.312   1.909   3.408 -0.7316  0.1684  0.4852
27407SOL    HW182799   0.304   1.819   3.439 -2.3451  0.1523  0.0917
27407SOL    HW282800   0.224   1.945   3.414 -0.4065  1.2604 -0.7570
27408SOL     OW82801   8.709   8.625   0.514 -0.4446  0.3383 -0.2549
27408SOL    HW182802   8.721   8.708   0.560  0.5123 -0.9843  2.0177
27408SOL    HW282803   8.616   8.623   0.492 -0.2330  2.5844 -1.6252
27409SOL     OW82804   2.690   6.384   8.914  0.1353  0.1237 -0.1316
27409SOL    HW182805   2.687   6.380   8.818 -0.5442  0.7785 -0.1442
27409SOL    HW282806   2.641   6.308   8.943  0.4253 -0.1317 -0.2968
27410SOL     OW82807   9.300   6.780   7.805 -0.0167 -0.6079 -0.1611
27410SOL    HW182808   9.344   6.738   7.731 -0.0194 -1.6801  0.4241
27410SOL    HW282809   9.326   6.872   7.799 -0.2190 -0.6261 -1.6282
27411SOL     OW82810   3.101   1.687   4.531  0.0761 -0.4543  0.1292
27411SOL    HW182811   3.094   1.668   4.438  0.5357 -2.3568  0.4331
27411SOL    HW282812   3.155   1.766   4.536  0.7765 -0.8306 -1.1963
27412SOL     OW82813   3.380   8.879   1.516  0.0848  0.6140 -0.6464
27412SOL    HW182814   3.297   8.849   1.477  0.1616 -1.0107  0.3128
27412SOL    HW282815   3.354   8.950   1.574 -0.6062  0.3421 -0.6031
27413SOL     OW82816   0.798   1.981   0.239 -0.4131  0.0675  0.1984
27413SOL    HW182817   0.806   2.023   0.325 -0.3297  0.5666 -0.0480
27413SOL    HW282818   0.888   1.961   0.214 -0.3432  0.8641 -0.2250
27414SOL     OW82819   1.325   1.987   9.538  0.2544 -0.5266 -0.3396
27414SOL    HW182820   1.363   1.929   9.472 -1.3821 -1.2834 -0.6571
27414SOL    HW282821   1.231   1.968   9.537  0.0312  0.2140  1.4678
27415SOL     OW82822   8.671   6.260   5.650  0.5161  0.6398 -0.2858
27415SOL    HW182823   8.763   6.254   5.677  0.2245  0.5335  0.6907
27415SOL    HW282824   8.651   6.353   5.654  0.9325  0.8161 -1.7261
27416SOL     OW82825   3.418   7.952   4.000 -0.3567 -0.1181  0.2190
27416SOL    HW182826   3.358   7.986   3.934 -0.7290 -1.0343  0.0595
27416SOL    HW282827   3.499   8.002   3.989 -0.5697  0.0444 -0.6337
27417SOL     OW82828   4.070   5.387   6.122  0.1076 -0.4349 -0.4413
27417SOL    HW182829   3.975   5.383   6.107  0.1951  0.2330 -1.2163
27417SOL    HW282830   4.104   5.439   6.049  0.7884  1.2647  1.0208
27418SOL     OW82831   0.184   1.303   4.944  0.1100 -0.6121  0.0092
27418SOL    HW182832   0.248   1.374   4.952 -0.4786  0.0138 -0.6587
27418SOL    HW282833   0.136   1.305   5.027  0.5959 -0.7325  0.2979
27419SOL     OW82834   2.873   4.272   0.712 -0.1830 -0.2313  0.0052
27419SOL    HW182835   2.793   4.224   0.694 -1.6042  1.3016  1.8142
27419SOL    HW282836   2.886   4.264   0.806  0.4090  1.5245  0.1188
27420SOL     OW82837   4.225   9.255   5.544  0.9114  0.9595  0.1229
27420SOL    HW182838   4.181   9.319   5.600  0.0524  1.0971 -0.6889
27420SOL    HW282839   4.204   9.282   5.455 -1.2219 -1.5680 -0.2843
27421SOL     OW82840   0.913   3.121   5.039  0.4948  0.3171  0.6242
27421SOL    HW182841   0.850   3.192   5.049  0.1031 -0.1827  2.0202
27421SOL    HW282842   0.889   3.059   5.109  0.2261 -1.6326 -1.1038
27422SOL     OW82843   7.206   0.680   3.465  0.0201 -0.4547 -0.1106
27422SOL    HW182844   7.223   0.771   3.490 -0.2865 -0.0710 -1.2357
27422SOL    HW282845   7.179   0.637   3.547 -1.1528  0.7890  0.1862
27423SOL     OW82846   2.646   8.481   9.514 -0.0720  0.0349 -0.8120
27423SOL    HW182847   2.605   8.466   9.429  1.9196  1.4222 -2.0975
27423SOL    HW282848   2.670   8.574   9.513 -1.9026  0.6636  2.1882
27424SOL     OW82849   9.198   8.031   8.492 -0.1360 -0.2194  0.3666
27424SOL    HW182850   9.263   8.011   8.559  0.7460  0.4171 -0.2829
27424SOL    HW282851   9.154   8.110   8.524 -0.6161 -0.6540  0.8084
27425SOL     OW82852   3.648   1.451   0.451  0.1903 -0.6690 -0.0779
27425SOL    HW182853   3.595   1.395   0.394  0.1629 -2.0068  1.2112
27425SOL    HW282854   3.736   1.444   0.415 -0.0427 -0.4496 -0.7219
27426SOL     OW82855   4.461   9.948   3.328  0.2884 -0.1369  0.0077
27426SOL    HW182856   4.394   9.920   3.391 -2.4131 -0.7065 -2.8524
27426SOL    HW282857   4.497   9.866   3.295  0.9027  0.1284  0.0092
27427SOL     OW82858   5.481   0.010   9.375  0.0682  0.0221  0.3530
27427SOL    HW182859   5.489   0.089   9.322  1.3912 -1.1673 -1.3228
27427SOL    HW282860   5.400   0.022   9.424 -1.0657  1.3274 -1.7042
27428SOL     OW82861   2.457   6.597   1.193  0.1832 -0.0029 -0.0339
27428SOL    HW182862   2.482   6.506   1.176 -1.8702 -1.2554  2.9160
27428SOL    HW282863   2.510   6.622   1.268 -1.0869  0.3360  0.7651
27429SOL     OW82864   0.670   6.534   1.452 -0.3704  0.6323 -0.2391
27429SOL    HW182865   0.603   6.549   1.386  0.2835  0.6026 -0.9158
27429SOL    HW282866   0.665   6.610   1.510  0.2611  1.5623 -1.3701
27430SOL     OW82867   8.667   2.873   8.434  0.0061 -0.1234 -0.2349
27430SOL    HW182868   8.633   2.910   8.515 -2.6171 -1.4702 -0.6304
27430SOL    HW282869   8.707   2.790   8.461 -0.3340 -0.2888 -0.2356
27431SOL     OW82870   2.139   2.692   2.042 -0.1912  0.3099 -0.0235
27431SOL    HW182871   2.086   2.768   2.019 -1.2832 -0.2393  0.5741
27431SOL    HW282872   2.078   2.618   2.037  1.1147 -0.7401 -1.7870
27432SOL     OW82873   0.350   5.221   6.483  0.3304 -0.4514 -0.6368
27432SOL    HW182874   0.433   5.237   6.439  1.2732 -0.6109  1.0111
27432SOL    HW282875   0.288   5.282   6.442  0.9815 -1.0065 -2.5589
27433SOL     OW82876   3.777   9.209   0.502 -0.1647 -0.2561  0.2647
27433SOL    HW182877   3.832   9.283   0.476  0.2872 -0.7757 -0.2856
27433SOL    HW282878   3.828   9.131   0.479 -0.2852 -0.7554  1.5647
27434SOL     OW82879   4.947   1.241   7.887 -0.0525  0.1766 -0.4158
27434SOL    HW182880   4.866   1.291   7.889  0.9390  1.9539  2.4921
27434SOL    HW282881   5.008   1.295   7.838  0.1087  0.2197 -0.1716
27435SOL     OW82882   4.763   2.225   7.654 -1.0755 -0.3003  0.0577
27435SOL    HW182883   4.849   2.184   7.652 -0.8898  0.0327  0.8585
27435SOL    HW282884   4.708   2.167   7.600 -0.0678  0.2019 -1.5838
27436SOL     OW82885   2.435   4.855   8.141 -0.1704  0.0459  0.3664
27436SOL    HW182886   2.430   4.825   8.050  0.1263  2.3527 -0.4824
27436SOL    HW282887   2.487   4.936   8.137 -0.6377  0.5154  2.5056
27437SOL     OW82888   2.847   2.094   0.828 -0.5648  0.3568 -0.6178
27437SOL    HW182889   2.882   2.182   0.842 -1.4424  1.3290 -3.7168
27437SOL    HW282890   2.774   2.087   0.888 -0.7327  1.9391 -0.5935
27438SOL     OW82891   7.360   4.070   6.002 -0.4068  0.1993  0.2143
27438SOL    HW182892   7.426   4.033   6.061  0.8529  2.2714  0.2060
27438SOL    HW282893   7.384   4.037   5.915  0.0504  0.2081  0.3353
27439SOL     OW82894   8.769   5.876   3.219  0.4922  0.1875  0.3892
27439SOL    HW182895   8.711   5.913   3.286 -0.8153  1.5559 -1.4162
27439SOL    HW282896   8.748   5.925   3.140  3.3123 -0.1155 -0.6245
27440SOL     OW82897   2.024   1.655   9.202  0.6877 -0.0982  0.5228
27440SOL    HW182898   2.040   1.561   9.203  0.6839 -0.1067  1.9917
27440SOL    HW282899   2.053   1.684   9.115  1.2250 -1.3486  0.2695
27441SOL     OW82900   4.102   9.237   7.271  0.4405 -0.1315  0.1473
27441SOL    HW182901   4.013   9.263   7.247  0.4712 -0.3594 -0.2130
27441SOL    HW282902   4.095   9.213   7.364 -0.0832 -1.0703 -0.1223
27442SOL     OW82903   0.127   8.047   4.030  0.2247  0.6588  0.1539
27442SOL    HW182904   0.112   8.141   4.020  3.9248  1.6137  1.7376
27442SOL    HW282905   0.134   8.014   3.940 -2.9178  1.4286 -0.4622
27443SOL     OW82906   7.639   1.080   4.527 -0.0701 -0.5769  0.1600
27443SOL    HW182907   7.689   1.143   4.579 -0.6832  0.1476 -0.1139
27443SOL    HW282908   7.548   1.101   4.545 -0.3207 -2.2208  1.0543
27444SOL     OW82909   5.420   6.480   7.067  0.3272 -0.6502 -0.9772
27444SOL    HW182910   5.497   6.477   7.009  0.5551  2.3065 -1.0096
27444SOL    HW282911   5.389   6.570   7.060 -1.9457 -1.2173  0.6409
27445SOL     OW82912   3.676   2.158   8.088 -0.0161 -0.2425  0.0295
27445SOL    HW182913   3.639   2.155   8.176  1.0345 -0.1352  0.4962
27445SOL    HW282914   3.629   2.090   8.040 -0.6446 -0.2629  0.6495
27446SOL     OW82915   4.721   8.236   7.421  0.3290  0.5320 -0.5433
27446SOL    HW182916   4.651   8.259   7.482 -0.9145 -1.6982 -1.0229
27446SOL    HW282917   4.796   8.217   7.478  0.0504  1.2537  0.0847
27447SOL     OW82918   6.126   4.982   8.627 -0.0434  0.4851  0.2909
27447SOL    HW182919   6.210   4.943   8.651 -0.2032 -0.0080  0.0476
27447SOL    HW282920   6.143   5.076   8.629  0.4136  0.4002  0.6158
27448SOL     OW82921   1.791   2.294   8.567  0.0809 -0.4371 -0.1204
27448SOL    HW182922   1.764   2.251   8.649  2.1699 -0.8239  0.4085
27448SOL    HW282923   1.885   2.281   8.563  0.5821  2.6651 -0.7999
27449SOL     OW82924   2.109   9.295   8.654 -0.9299  0.3475  0.1038
27449SOL    HW182925   2.132   9.386   8.672 -1.7198  0.8064 -1.0710
27449SOL    HW282926   2.029   9.301   8.602 -0.1271 -0.9690 -1.3317
27450SOL     OW82927   7.131   1.623   1.913 -0.1193  0.0106  0.0260
27450SOL    HW182928   7.095   1.683   1.979 -0.8555  0.4067 -0.7178
27450SOL    HW282929   7.090   1.651   1.831 -1.0467 -1.9677 -0.2258
27451SOL     OW82930   3.638   1.641   8.547  0.1961 -0.2163  0.3998
27451SOL    HW182931   3.702   1.712   8.548 -1.3712  1.2701  0.1288
27451SOL    HW282932   3.584   1.655   8.625 -0.2087 -1.0634  0.2923
27452SOL     OW82933   2.624   1.321   7.033  0.0075  0.1844  0.1743
27452SOL    HW182934   2.631   1.225   7.040  0.1192 -0.0739 -2.4849
27452SOL    HW282935   2.530   1.337   7.024  0.0658  0.2116 -0.4201
27453SOL     OW82936   7.619   0.761   9.645  0.2022  0.4485  0.1430
27453SOL    HW182937   7.632   0.693   9.711  0.3113  0.6920  0.3726
27453SOL    HW282938   7.708   0.787   9.619  0.1653 -0.0037 -0.4737
27454SOL     OW82939   9.295   8.683   0.040 -0.0972 -0.2822 -0.0264
27454SOL    HW182940   9.242   8.650   0.113  1.1583 -1.4426  0.4087
27454SOL    HW282941   9.251   8.763   0.012 -2.0872 -1.2146  0.2775
27455SOL     OW82942   1.239   5.560   8.631 -0.1456 -0.1967  0.0635
27455SOL    HW182943   1.189   5.634   8.667  0.6711  0.4781 -0.1841
27455SOL    HW282944   1.193   5.482   8.665 -1.3245  0.3984 -0.0981
27456SOL     OW82945   7.812   7.148   4.205  0.2343  0.4808  0.2790
27456SOL    HW182946   7.898   7.108   4.197 -0.4581 -1.2647  1.0905
27456SOL    HW282947   7.804   7.203   4.127  1.3440 -0.7782 -0.7684
27457SOL     OW82948   2.896   9.757   4.529 -0.1550  0.0620  0.1474
27457SOL    HW182949   2.849   9.813   4.591 -0.1170 -0.2062  0.4244
27457SOL    HW282950   2.870   9.668   4.554  1.1134 -0.1413  0.8317
27458SOL     OW82951   5.081   0.075   1.253 -0.4237 -0.0114 -0.4134
27458SOL    HW182952   5.110   0.084   1.344 -0.3194  1.0902 -0.5321
27458SOL    HW282953   5.129  -0.001   1.220  2.4706  1.7506 -0.6012
27459SOL     OW82954   2.055   9.457   0.400 -0.1235 -0.0662 -0.0357
27459SOL    HW182955   1.998   9.426   0.470  1.4853 -0.6629  1.0691
27459SOL    HW282956   2.023   9.546   0.382 -2.1894 -0.8189 -0.3802
27460SOL     OW82957   7.992   0.987   1.046  0.6411 -0.1932  0.7174
27460SOL    HW182958   7.999   0.953   1.135 -0.8542  0.7862  1.2548
27460SOL    HW282959   8.071   1.039   1.033  2.6270 -3.1159  0.1386
27461SOL     OW82960   8.719   6.644   5.977  0.3322  0.2227  0.4408
27461SOL    HW182961   8.707   6.666   6.069  0.8272  1.3474  0.2522
27461SOL    HW282962   8.807   6.607   5.973 -0.0953 -0.8333  0.5830
27462SOL     OW82963   2.689   4.717   7.936  0.3451 -0.3721  0.4264
27462SOL    HW182964   2.669   4.773   7.861 -1.6355 -0.2006  1.0116
27462SOL    HW282965   2.709   4.631   7.898 -1.6223 -0.5517 -0.2967
27463SOL     OW82966   8.781   7.577   5.220 -0.7837  0.2304 -0.2807
27463SOL    HW182967   8.687   7.574   5.202 -0.5043 -0.1255 -1.8047
27463SOL    HW282968   8.800   7.495   5.265 -0.8679 -0.7019 -1.8722
27464SOL     OW82969   8.907   5.565   7.822  0.0281  0.6941  0.0308
27464SOL    HW182970   8.950   5.559   7.737  0.5795  1.8066  0.2145
27464SOL    HW282971   8.824   5.519   7.810  0.2289  0.5701 -1.0101
27465SOL     OW82972   8.931   7.405   3.567 -0.1084 -0.6004  0.0855
27465SOL    HW182973   9.023   7.425   3.546 -1.1646  2.7818 -2.2337
27465SOL    HW282974   8.924   7.422   3.661  1.6726 -1.2144  0.3696
27466SOL     OW82975   6.051   7.341   4.946  0.2445 -0.8419 -0.0538
27466SOL    HW182976   5.985   7.307   5.006 -0.7335  0.3376 -0.4357
27466SOL    HW282977   6.078   7.425   4.983  0.9593 -0.9421 -0.3199
27467SOL     OW82978   3.850   2.847   7.892 -0.0484  0.2734 -0.1752
27467SOL    HW182979   3.769   2.821   7.934 -0.5893  1.2088 -0.6106
27467SOL    HW282980   3.825   2.916   7.831  0.8670 -0.3101 -1.2686
27468SOL     OW82981   6.995   5.219   7.155  0.3150  0.2938  0.5914
27468SOL    HW182982   7.037   5.139   7.186 -0.9060 -1.1206 -1.2143
27468SOL    HW282983   7.059   5.259   7.096  0.0988 -0.5620 -0.2453
27469SOL     OW82984   0.531   5.969   0.206  0.2963  0.0458  0.0393
27469SOL    HW182985   0.625   5.983   0.214  0.2465  0.1869  0.3978
27469SOL    HW282986   0.519   5.875   0.218  0.4229 -0.0187 -0.3277
27470SOL     OW82987   9.186   6.408   8.201  0.1912 -0.0326 -0.3959
27470SOL    HW182988   9.242   6.483   8.180 -1.0610  0.8687 -0.6684
27470SOL    HW282989   9.115   6.413   8.137 -0.7297 -0.5535  0.5467
27471SOL     OW82990   0.454   9.731   8.619  0.2678  0.3801  0.0982
27471SOL    HW182991   0.527   9.706   8.563  0.6932  0.1124  0.7556
27471SOL    HW282992   0.479   9.699   8.706 -1.0558 -0.5661  0.1578
27472SOL     OW82993   5.628   6.703   7.681  0.2012 -0.0309 -0.1908
27472SOL    HW182994   5.647   6.665   7.767 -0.1253  1.8860  0.7782
27472SOL    HW282995   5.559   6.646   7.645  2.5336 -2.8031 -0.6821
27473SOL     OW82996   8.854   0.371   7.825 -0.2924 -0.2079  0.0379
27473SOL    HW182997   8.831   0.366   7.732  1.1716 -0.2580 -0.3470
27473SOL    HW282998   8.783   0.324   7.869 -2.5973  2.2958 -0.7200
27474SOL     OW82999   0.589   7.097   1.251 -0.1590  0.3447 -0.0532
27474SOL    HW183000   0.668   7.151   1.253 -1.5341  2.4675  1.3026
27474SOL    HW283001   0.607   7.030   1.185  2.5347  1.0597 -0.1641
27475SOL     OW83002   7.184   0.386   2.484 -0.0959  0.0168  0.2370
27475SOL    HW183003   7.140   0.414   2.404  0.4518 -0.9010 -0.3934
27475SOL    HW283004   7.125   0.415   2.554 -0.8741  0.2949 -0.5123
27476SOL     OW83005   0.572   3.532   2.570 -0.1015  0.1342  0.1934
27476SOL    HW183006   0.504   3.598   2.569 -0.6269 -0.3994  0.1898
27476SOL    HW283007   0.571   3.496   2.659 -0.0890 -0.1371  0.0871
27477SOL     OW83008   5.435   2.378   7.356 -0.7618  0.2582  0.0141
27477SOL    HW183009   5.430   2.344   7.267 -0.4256 -1.8008  0.7202
27477SOL    HW283010   5.379   2.455   7.356 -0.8212  0.2449 -1.9474
27478SOL     OW83011   2.116   6.576   1.015 -0.2428 -0.3037  0.2658
27478SOL    HW183012   2.022   6.596   1.017  0.1297  1.4824  1.0572
27478SOL    HW283013   2.156   6.640   1.073  1.3925 -1.6061  0.6462
27479SOL     OW83014   3.324   0.838   1.971 -0.1756 -0.0734 -0.2957
27479SOL    HW183015   3.249   0.894   1.987  0.2788  0.4492  0.0042
27479SOL    HW283016   3.343   0.797   2.056  0.0531  0.0076 -0.3078
27480SOL     OW83017   1.024   9.883   3.099 -0.0076  0.4222 -0.0758
27480SOL    HW183018   0.947   9.829   3.082  1.0487 -1.0779 -0.3007
27480SOL    HW283019   1.019   9.953   3.034 -0.3300 -0.5991 -1.1933
27481SOL     OW83020   6.443   0.683   6.762 -1.0343 -0.3856 -0.0178
27481SOL    HW183021   6.380   0.681   6.690 -1.0060  0.4760 -0.0816
27481SOL    HW283022   6.468   0.775   6.768  0.3157 -0.7300 -0.0767
27482SOL     OW83023   4.945   7.578   2.945  0.0141 -0.4588  0.3593
27482SOL    HW183024   4.981   7.655   2.902  0.7530 -0.9668  0.0330
27482SOL    HW283025   4.874   7.549   2.887 -0.1100 -0.1611  0.3637
27483SOL     OW83026   9.665   0.572   8.338 -0.3661 -0.4503  0.3488
27483SOL    HW183027   9.732   0.536   8.396  0.0820 -0.3378 -0.0929
27483SOL    HW283028   9.601   0.610   8.397  0.4774  0.3666  0.7611
27484SOL     OW83029   8.172   9.986   7.478  0.6682 -0.2248 -0.3432
27484SOL    HW183030   8.103   9.987   7.545  0.1601 -0.4344 -0.8485
27484SOL    HW283031   8.190   9.893   7.464  1.1252 -0.1658 -0.1464
27485SOL     OW83032   3.673   9.831   5.049 -0.7591  0.1092  0.0114
27485SOL    HW183033   3.702   9.750   5.090  1.1674 -0.6489 -2.5644
27485SOL    HW283034   3.601   9.805   4.991 -1.9411  0.7774  1.1057
27486SOL     OW83035   4.158   2.964   4.466 -0.1106 -0.1075 -0.0274
27486SOL    HW183036   4.078   2.976   4.518 -0.2845 -0.8432 -0.1106
27486SOL    HW283037   4.131   2.908   4.394  0.1961  0.6682 -0.7665
27487SOL     OW83038   3.782   0.520   1.734 -0.0777  0.1491 -0.2528
27487SOL    HW183039   3.846   0.467   1.780 -1.5207  0.0130  1.7305
27487SOL    HW283040   3.816   0.610   1.740 -0.1935  0.1231  1.0685
27488SOL     OW83041   3.751   4.940   8.634 -0.4424  0.3227  0.0298
27488SOL    HW183042   3.735   4.902   8.720  0.7851 -0.9771 -0.2643
27488SOL    HW283043   3.730   5.033   8.643 -3.6087 -0.3707  0.7884
27489SOL     OW83044   3.556   8.444   3.719 -0.3705 -0.2719  0.4391
27489SOL    HW183045   3.547   8.351   3.698 -1.6154 -0.2605  0.8486
27489SOL    HW283046   3.633   8.472   3.669 -2.4745 -0.4899 -3.2732
27490SOL     OW83047   9.921   1.793   5.140 -0.8429 -0.5873  1.0341
27490SOL    HW183048   9.868   1.821   5.215  0.2269 -0.9072  1.9407
27490SOL    HW283049   9.857   1.778   5.070 -2.0454 -1.5526  2.2554
27491SOL     OW83050   0.254   7.743   9.390  0.4088  0.3880  0.5654
27491SOL    HW183051   0.315   7.732   9.463  0.4926  1.6808  0.7293
27491SOL    HW283052   0.206   7.823   9.412  0.5767  0.9196 -0.8797
27492SOL     OW83053   9.193   5.930   7.014  0.1470 -0.2410  0.3105
27492SOL    HW183054   9.191   6.023   6.992 -1.5370 -0.2589  0.2455
27492SOL    HW283055   9.168   5.926   7.106  2.3667 -0.5134  0.9652
27493SOL     OW83056   4.174   9.400   9.865  0.0616  0.3977  0.3473
27493SOL    HW183057   4.110   9.330   9.872 -0.1134  0.2953 -1.6273
27493SOL    HW283058   4.204   9.414   9.954  0.3216 -2.3925  0.7967
27494SOL     OW83059   3.898   2.669   1.437 -0.2625  0.6268  0.1462
27494SOL    HW183060   3.944   2.627   1.364  1.4612  0.9756  0.9840
27494SOL    HW283061   3.858   2.747   1.399 -1.9477 -0.7199 -1.0292
27495SOL     OW83062   6.592   5.349   7.675  0.6578 -0.4179  0.0922
27495SOL    HW183063   6.600   5.372   7.768 -0.4616 -0.9696  0.3473
27495SOL    HW283064   6.500   5.326   7.664  1.2723 -2.8280 -0.5809
27496SOL     OW83065   0.752   9.735   1.906  0.2893  0.5410  0.2413
27496SOL    HW183066   0.838   9.695   1.905  0.2811  0.5358 -0.4135
27496SOL    HW283067   0.742   9.775   1.820 -0.6005  0.0300  0.0878
27497SOL     OW83068   3.352   8.234   3.449  0.0435 -0.3802 -0.1565
27497SOL    HW183069   3.284   8.185   3.404  0.2079  1.6789 -2.9328
27497SOL    HW283070   3.431   8.218   3.397  1.2360 -1.0319  1.7712
27498SOL     OW83071   7.648   2.697   3.858  0.3076  0.0354  0.0627
27498SOL    HW183072   7.606   2.777   3.825  0.6888 -0.1541 -0.9242
27498SOL    HW283073   7.577   2.645   3.894  0.3170  1.8569  3.0433
27499SOL     OW83074   8.541   8.650   8.606 -0.0273 -0.4324 -0.1569
27499SOL    HW183075   8.549   8.742   8.633 -0.3619 -0.6729  0.7943
27499SOL    HW283076   8.611   8.638   8.542 -0.8511  0.8597 -1.3723
27500SOL     OW83077   0.898   9.296   6.173  0.0722  0.2639  0.2341
27500SOL    HW183078   0.970   9.333   6.122 -0.6370 -0.5940 -1.5010
27500SOL    HW283079   0.884   9.209   6.135  0.2055 -0.8900  2.6758
27501SOL     OW83080   8.941   7.667   0.097  0.6928 -0.1408 -0.8847
27501SOL    HW183081   8.897   7.645   0.015  1.9417  0.9064 -1.8625
27501SOL    HW283082   8.905   7.752   0.122  1.1420  0.0710 -0.9516
27502SOL     OW83083   4.567   1.239   2.064 -0.3668  0.1371  0.0101
27502SOL    HW183084   4.613   1.315   2.099 -0.1750 -0.8820  2.1343
27502SOL    HW283085   4.476   1.250   2.094 -0.2163 -0.7280  0.8247
27503SOL     OW83086   4.530   4.967   8.793  0.3089 -0.2203 -0.2941
27503SOL    HW183087   4.562   5.000   8.709 -0.6647 -0.3825 -0.7377
27503SOL    HW283088   4.513   5.046   8.845 -1.5529  0.0050 -1.1792
27504SOL     OW83089   9.981   8.622   1.690  0.3712  0.4189 -0.0522
27504SOL    HW183090   9.998   8.545   1.744  1.7801  1.5341  1.1838
27504SOL    HW283091   9.936   8.683   1.749  2.5469  1.9292  0.1428
27505SOL     OW83092   1.830   9.767   7.863 -0.7865  0.1939 -0.2607
27505SOL    HW183093   1.803   9.683   7.900 -1.2303  0.3295 -0.2704
27505SOL    HW283094   1.923   9.755   7.841 -0.7598 -0.1826  0.0467
27506SOL     OW83095   8.863   8.203   1.834  0.0653  0.6878  0.1406
27506SOL    HW183096   8.823   8.121   1.804 -0.6474  1.4934 -1.1956
27506SOL    HW283097   8.792   8.267   1.830  0.0609  1.0167  3.0887
27507SOL     OW83098   4.941   5.912   4.538 -0.1537  0.3025  0.1291
27507SOL    HW183099   4.883   5.884   4.467 -0.3143  0.7628  0.0752
27507SOL    HW283100   4.898   5.988   4.576 -0.5584 -0.4990  1.3557
27508SOL     OW83101   4.937   4.683   2.864 -0.4331  0.0721  0.4212
27508SOL    HW183102   4.941   4.779   2.870 -2.7699  0.2641 -0.2323
27508SOL    HW283103   5.003   4.653   2.927 -1.6339  2.1035  2.8502
27509SOL     OW83104   4.689   8.761   0.880 -0.5639  0.0169 -0.0341
27509SOL    HW183105   4.709   8.681   0.929 -0.5522  0.2304  0.3172
27509SOL    HW283106   4.756   8.824   0.909 -0.5477  0.1408 -0.3397
27510SOL     OW83107   9.686   9.957   0.621  0.0920  0.1553  0.0692
27510SOL    HW183108   9.749   9.885   0.616  0.4792  0.5680 -1.3922
27510SOL    HW283109   9.733  10.027   0.667 -0.2833 -0.4913  1.4884
27511SOL     OW83110   6.218   5.227   6.376 -0.2728  0.0626  0.0894
27511SOL    HW183111   6.150   5.186   6.429 -1.7251  1.7255 -0.4136
27511SOL    HW283112   6.288   5.248   6.438 -1.8297  1.7400  1.3678
27512SOL     OW83113   7.898   2.146   9.808 -0.0983  0.1101  0.5095
27512SOL    HW183114   7.835   2.212   9.836  0.3989  0.8941 -0.1937
27512SOL    HW283115   7.887   2.141   9.713  0.2838 -0.4019  0.4883
27513SOL     OW83116   4.108   2.456   1.540 -0.2437  0.5594  0.0409
27513SOL    HW183117   4.202   2.446   1.550 -0.2861  0.3631  0.2547
27513SOL    HW283118   4.097   2.542   1.499 -0.0370  1.1586  1.2082
27514SOL     OW83119   7.886   0.686   7.692  0.1804 -0.2562  0.3686
27514SOL    HW183120   7.859   0.648   7.776  0.8884 -0.4193  0.5266
27514SOL    HW283121   7.982   0.682   7.693  0.2491  0.9072  0.0938
27515SOL     OW83122   3.754   8.492   2.910 -0.3921 -0.0758  0.1424
27515SOL    HW183123   3.714   8.482   2.997  0.8720 -0.0254  0.7436
27515SOL    HW283124   3.738   8.408   2.867 -0.7524 -0.2155  0.5377
27516SOL     OW83125   5.525   7.507   9.608  0.4546  0.1406  0.0320
27516SOL    HW183126   5.582   7.583   9.619 -0.9479  1.2288 -0.0105
27516SOL    HW283127   5.517   7.470   9.695  1.2272 -0.0305  0.0356
27517SOL     OW83128   6.260   5.960   6.804  0.3058  0.0416 -0.4999
27517SOL    HW183129   6.310   5.907   6.866 -0.0245  1.0790  0.6842
27517SOL    HW283130   6.325   5.999   6.747  0.8346  1.0120  0.7357
27518SOL     OW83131   2.408   2.253   6.038 -0.1915  0.7361 -0.3172
27518SOL    HW183132   2.353   2.238   6.115 -0.1363 -0.6526 -0.5257
27518SOL    HW283133   2.441   2.342   6.049  3.2123 -0.6647  3.4833
27519SOL     OW83134   1.424   4.443   1.236 -0.0312 -0.0864  0.7422
27519SOL    HW183135   1.432   4.358   1.194  1.2147 -0.1811  1.1430
27519SOL    HW283136   1.495   4.495   1.199  0.0657  0.3441  1.5122
27520SOL     OW83137   1.375   5.504   5.714 -0.4777  0.0159 -1.0922
27520SOL    HW183138   1.322   5.433   5.679  1.0400 -0.7225 -1.9712
27520SOL    HW283139   1.414   5.469   5.794 -1.7723  0.7889 -0.0611
27521SOL     OW83140   6.414   3.983   9.769  0.5385  0.9424 -0.1014
27521SOL    HW183141   6.426   4.078   9.767 -0.3171  1.0460 -0.4187
27521SOL    HW283142   6.374   3.966   9.855 -0.9967  1.0806 -0.7704
27522SOL     OW83143   1.908   3.880   0.632 -0.0428  0.5250  0.1958
27522SOL    HW183144   1.825   3.835   0.618  0.1585  0.0200  0.6079
27522SOL    HW283145   1.909   3.903   0.725 -0.1513  1.4125 -0.0077
27523SOL     OW83146   6.584   1.689   5.021  0.0286  0.0300 -0.4023
27523SOL    HW183147   6.594   1.765   5.079 -0.4366 -0.2924  0.1067
27523SOL    HW283148   6.498   1.701   4.980  0.7144  0.7243 -1.7377
27524SOL     OW83149   4.979   5.287   1.790 -0.1607  0.1280 -0.7645
27524SOL    HW183150   5.024   5.288   1.874  1.2673 -1.5377 -1.4419
27524SOL    HW283151   5.004   5.369   1.748  0.2148  0.3559 -0.1046
27525SOL     OW83152   3.743   4.205   7.120  0.0953 -0.0106  0.0497
27525SOL    HW183153   3.653   4.205   7.153 -0.0333  1.2302 -0.2507
27525SOL    HW283154   3.795   4.173   7.194 -0.3215  1.6781  1.1268
27526SOL     OW83155   7.682   3.380   1.893  0.6200  0.4492  0.3203
27526SOL    HW183156   7.736   3.333   1.956  1.6758  0.7745 -0.3104
27526SOL    HW283157   7.680   3.470   1.927  0.1802  0.3698  0.5174
27527SOL     OW83158   7.315   5.158   7.649 -0.7016  0.5720  0.1845
27527SOL    HW183159   7.228   5.196   7.635  0.0047  1.3529 -2.6754
27527SOL    HW283160   7.315   5.079   7.594  0.4393  0.6711  0.0240
27528SOL     OW83161   6.550   6.355   3.670  0.5647 -0.0434  0.5678
27528SOL    HW183162   6.521   6.282   3.615  4.2835 -0.0212 -1.8336
27528SOL    HW283163   6.508   6.432   3.632 -0.2427 -0.4942  0.5250
27529SOL     OW83164   1.331   0.638   2.652 -0.8414  0.7734  0.7858
27529SOL    HW183165   1.266   0.577   2.687  1.6373 -0.4173  3.7783
27529SOL    HW283166   1.310   0.722   2.694 -1.4940  0.8668  0.2909
27530SOL     OW83167   8.487   1.323   0.325 -0.3897 -0.1779 -0.1548
27530SOL    HW183168   8.569   1.286   0.291 -0.7575 -0.2435 -1.0116
27530SOL    HW283169   8.504   1.339   0.417  0.7547  0.2831 -0.4331
27531SOL     OW83170   6.976   6.344   3.048  0.2320 -0.0498 -0.7288
27531SOL    HW183171   6.971   6.364   3.142 -1.4150  2.0121 -1.1837
27531SOL    HW283172   7.017   6.422   3.009  1.4297 -1.1166 -1.7050
27532SOL     OW83173   3.658   8.673   7.007  0.0533  0.1545  0.4182
27532SOL    HW183174   3.598   8.611   7.048  0.8756 -0.2245  1.0889
27532SOL    HW283175   3.628   8.680   6.917 -0.3220 -0.8789  0.4507
27533SOL     OW83176   5.772   2.702   6.214 -0.8183 -0.2509 -0.2170
27533SOL    HW183177   5.731   2.627   6.257  0.4038 -1.4578 -1.0666
27533SOL    HW283178   5.769   2.772   6.279 -1.0174 -1.3536  0.9985
27534SOL     OW83179   1.626   0.003   5.513  0.1546  0.1741  0.4899
27534SOL    HW183180   1.532   0.009   5.530  0.4574 -1.5056  3.3250
27534SOL    HW283181   1.664   0.066   5.574  0.9734 -1.2982  1.5601
27535SOL     OW83182   6.102   3.308   7.440  0.1871  0.3655  0.0540
27535SOL    HW183183   6.153   3.249   7.385  0.6177  1.2110 -0.4837
27535SOL    HW283184   6.166   3.344   7.502  0.1651  1.1181 -0.3539
27536SOL     OW83185   6.783   6.389   5.586 -0.1693  0.2225 -0.0429
27536SOL    HW183186   6.775   6.437   5.669 -0.7465  0.0390  0.0094
27536SOL    HW283187   6.706   6.332   5.583 -0.1025  0.1564 -0.6649
27537SOL     OW83188   2.217   6.995   3.145 -0.2123  0.0186  0.1971
27537SOL    HW183189   2.280   7.029   3.208 -1.6835 -0.5354  2.0483
27537SOL    HW283190   2.159   7.069   3.126 -0.7562 -0.2518  0.7850
27538SOL     OW83191   1.463   2.163   2.808  0.2418  0.2140  0.5425
27538SOL    HW183192   1.461   2.103   2.734  0.1810  0.4997  0.3107
27538SOL    HW283193   1.548   2.207   2.801  0.1752  0.3460  0.5564
27539SOL     OW83194   8.576   7.421   3.551 -0.4378 -0.1780 -0.0151
27539SOL    HW183195   8.657   7.454   3.591  0.8539 -2.4593 -0.5898
27539SOL    HW283196   8.531   7.377   3.623 -0.5060 -0.0964 -0.0076
27540SOL     OW83197   1.906   0.389   7.894  0.0123 -0.0288 -0.2783
27540SOL    HW183198   1.836   0.455   7.898  0.2518  0.1595  1.8466
27540SOL    HW283199   1.984   0.435   7.927  0.5595 -0.9305 -0.2890
27541SOL     OW83200   4.285   6.547   2.667  0.2736 -0.0498  0.3399
27541SOL    HW183201   4.208   6.496   2.694 -2.0247  2.8098 -0.1999
27541SOL    HW283202   4.334   6.489   2.609 -0.1533 -2.8083  2.5220
27542SOL     OW83203   5.023   0.959   4.985 -0.3712  0.3925 -0.3858
27542SOL    HW183204   5.077   1.023   4.938 -0.6442  1.4885  0.7260
27542SOL    HW283205   4.936   0.999   4.989 -0.0153  1.1281  2.3511
27543SOL     OW83206   7.483   0.908   2.123 -0.3862 -0.9432  0.2871
27543SOL    HW183207   7.503   0.968   2.196  0.4253  0.7170 -1.2341
27543SOL    HW283208   7.567   0.871   2.098 -0.4466 -0.4519 -0.6782
27544SOL     OW83209   0.104   5.931   2.810  0.1209  0.0840 -0.3980
27544SOL    HW183210   0.144   5.846   2.831  0.0329  0.0986 -0.1620
27544SOL    HW283211   0.027   5.935   2.866  1.6286  1.5353  1.7268
27545SOL     OW83212   2.952   5.837   9.708 -0.1871  0.4042  0.0514
27545SOL    HW183213   2.880   5.806   9.764  0.9639 -1.3809  0.6392
27545SOL    HW283214   3.028   5.787   9.737  0.6248 -0.1199 -2.7092
27546SOL     OW83215   2.280   7.586   1.877  0.1977 -0.1098 -0.2210
27546SOL    HW183216   2.209   7.647   1.898  1.1975  1.3214 -0.8182
27546SOL    HW283217   2.239   7.520   1.822 -0.4173  1.5028 -1.7948
27547SOL     OW83218   7.564   5.100   3.366  0.0711  0.0955 -0.3615
27547SOL    HW183219   7.508   5.164   3.410 -0.9159 -0.4707 -0.7592
27547SOL    HW283220   7.569   5.026   3.426 -0.8151 -0.4476 -0.9329
27548SOL     OW83221   8.756   0.719   3.489  0.0532  0.8843 -0.6861
27548SOL    HW183222   8.731   0.776   3.562  2.4645  0.7421  0.3751
27548SOL    HW283223   8.846   0.693   3.510 -0.1822 -1.5027 -2.2744
27549SOL     OW83224   1.751   0.330   7.643 -0.5104  0.1142 -0.1009
27549SOL    HW183225   1.842   0.323   7.672 -0.7429 -0.1658  0.5705
27549SOL    HW283226   1.740   0.423   7.621  0.0519  0.0743 -0.6022
27550SOL     OW83227   3.581   8.624   0.724  0.1163 -0.4022  0.1801
27550SOL    HW183228   3.615   8.562   0.659  3.3558  0.5429  0.7956
27550SOL    HW283229   3.635   8.702   0.713 -2.1886  1.4210  1.1306
27551SOL     OW83230   8.650   3.719   2.231 -0.3134  0.1823  0.1527
27551SOL    HW183231   8.613   3.661   2.298  0.8306 -0.9680 -0.1569
27551SOL    HW283232   8.721   3.765   2.276  0.9177 -1.1092 -0.3893
27552SOL     OW83233   7.876   8.930   2.708  0.2745 -0.1140  0.2813
27552SOL    HW183234   7.843   8.899   2.793 -1.2404  1.1062  0.1919
27552SOL    HW283235   7.971   8.925   2.716  0.1551 -0.4599  1.8905
27553SOL     OW83236   5.684   8.906   2.358  0.0608  0.6805  0.3933
27553SOL    HW183237   5.605   8.875   2.313  1.0506  0.0573 -0.9445
27553SOL    HW283238   5.754   8.899   2.294  1.2480  1.1661  1.5759
27554SOL     OW83239   3.695   9.683   6.137  0.5014 -0.2236 -0.0858
27554SOL    HW183240   3.790   9.672   6.140  0.6584  0.7502 -0.9220
27554SOL    HW283241   3.676   9.753   6.199  0.2869 -0.6294  0.3126
27555SOL     OW83242   1.656   0.304   9.340  0.2466  0.4088 -0.4140
27555SOL    HW183243   1.658   0.330   9.432 -2.2020  2.1264 -0.7425
27555SOL    HW283244   1.598   0.228   9.338 -0.6387  1.0760 -0.6458
27556SOL     OW83245   1.877   6.572   9.444  0.2159 -0.1568  0.3828
27556SOL    HW183246   1.858   6.534   9.530 -0.8880  0.8891  0.6319
27556SOL    HW283247   1.823   6.522   9.383 -1.6407  1.2480  0.7757
27557SOL     OW83248   0.332   8.380   9.787  0.0169 -0.1032  0.5163
27557SOL    HW183249   0.321   8.286   9.797  1.4392 -0.2853  0.6834
27557SOL    HW283250   0.243   8.416   9.786 -0.6003 -1.5625 -0.7903
27558SOL     OW83251   6.383   5.476   4.188  0.2565  0.0610 -0.1914
27558SOL    HW183252   6.431   5.535   4.246  1.7885  0.2397 -1.5571
27558SOL    HW283253   6.342   5.534   4.123  0.8560 -0.2760 -0.8881
27559SOL     OW83254   2.308   5.419   6.397 -0.4281  0.0167 -0.4227
27559SOL    HW183255   2.245   5.384   6.334 -3.3102  2.0422  1.0902
27559SOL    HW283256   2.379   5.455   6.343 -0.5769 -2.1764 -2.2111
27560SOL     OW83257   2.876   4.157   6.099  0.0700  0.3859  0.1911
27560SOL    HW183258   2.903   4.235   6.147 -0.6727  1.1569 -0.6052
27560SOL    HW283259   2.800   4.124   6.147 -0.1723  0.6914  0.0300
27561SOL     OW83260   2.504   7.450   1.513  0.2278 -0.2633 -0.5029
27561SOL    HW183261   2.409   7.451   1.525  0.1730  1.6877 -0.7756
27561SOL    HW283262   2.517   7.415   1.425 -0.5020  2.5874 -1.8606
27562SOL     OW83263   6.906   2.245   3.177 -0.7287 -0.0970 -0.4730
27562SOL    HW183264   6.968   2.192   3.127  0.2169 -1.3183  1.7987
27562SOL    HW283265   6.944   2.333   3.178  0.4342 -0.5808 -0.0506
27563SOL     OW83266   1.790   7.959   0.341 -0.0621  0.2349 -0.1859
27563SOL    HW183267   1.778   8.039   0.290  0.5919  1.0503  0.8994
27563SOL    HW283268   1.707   7.945   0.386  0.6826  1.9689  1.8827
27564SOL     OW83269   4.465   0.450   5.493  0.2291  0.0861  1.6304
27564SOL    HW183270   4.512   0.514   5.441 -1.0218  0.4765  0.9536
27564SOL    HW283271   4.373   0.462   5.470  0.0112 -2.6248  0.7055
27565SOL     OW83272   2.225   7.676   8.358  0.0620 -0.5289 -0.3537
27565SOL    HW183273   2.163   7.729   8.408 -1.6530 -0.3906 -2.4942
27565SOL    HW283274   2.243   7.727   8.280  0.2827 -2.0046 -1.3129
27566SOL     OW83275   6.041   1.416   9.863 -0.0366  0.2915  0.0093
27566SOL    HW183276   6.054   1.375   9.948  0.6337  1.4453  0.4952
27566SOL    HW283277   5.947   1.423   9.852 -0.1570 -1.0926  0.0312
27567SOL     OW83278   9.071   8.353   1.680 -0.1607 -0.3641  0.2568
27567SOL    HW183279   9.111   8.338   1.766  0.6905 -2.7913 -0.4893
27567SOL    HW283280   8.995   8.294   1.679  0.5275 -1.2576 -1.0727
27568SOL     OW83281   2.804   2.217   7.790 -0.2791  0.1829  0.4343
27568SOL    HW183282   2.735   2.153   7.769  0.0158  0.5648 -2.0880
27568SOL    HW283283   2.775   2.298   7.747  0.5946  1.0312  1.4072
27569SOL     OW83284   2.066   7.984   1.020  0.2382 -0.1725  0.1430
27569SOL    HW183285   2.078   7.906   0.966  0.7888 -0.6510  0.9168
27569SOL    HW283286   2.140   8.040   0.999  1.5526 -1.1901  1.7156
27570SOL     OW83287   5.641   9.111   1.502  0.2228 -0.3458 -0.7099
27570SOL    HW183288   5.687   9.109   1.418 -0.3560  2.1467 -1.1868
27570SOL    HW283289   5.706   9.145   1.563  0.5654 -1.9166 -0.1709
27571SOL     OW83290   3.085   8.429   1.601 -0.5304 -0.1476 -0.4669
27571SOL    HW183291   3.074   8.524   1.591  0.4309 -0.1631 -1.9865
27571SOL    HW283292   3.033   8.407   1.679 -0.8818  1.5935 -0.1626
27572SOL     OW83293   5.382   3.705   1.381  0.3928 -0.2219 -0.1697
27572SOL    HW183294   5.474   3.689   1.399  0.3129 -1.5859 -0.7987
27572SOL    HW283295   5.376   3.703   1.285 -0.3605 -0.7214 -0.1236
27573SOL     OW83296   1.355   4.523   3.930  0.1604 -0.0311  0.0096
27573SOL    HW183297   1.289   4.591   3.915  1.7074  1.6753  0.5205
27573SOL    HW283298   1.435   4.571   3.952  1.6628 -1.9953 -0.7781
27574SOL     OW83299   4.386   5.940   2.830  0.0042  0.6136 -0.0243
27574SOL    HW183300   4.367   5.859   2.783  0.0988 -0.0456  1.0331
27574SOL    HW283301   4.449   5.915   2.898  0.6970  1.7472 -0.2139
27575SOL     OW83302   0.782   8.732   3.780  0.3038 -0.5304 -0.1412
27575SOL    HW183303   0.833   8.759   3.856  0.7163  1.3317 -1.0320
27575SOL    HW283304   0.842   8.675   3.731  1.4781  1.3749 -1.0124
27576SOL     OW83305   3.501   9.950   4.477  0.2400  0.0658 -0.2901
27576SOL    HW183306   3.418   9.912   4.447 -0.6697  1.7267 -0.0436
27576SOL    HW283307   3.544   9.979   4.397 -0.5274  1.2884 -0.2819
27577SOL     OW83308   9.318   8.176   7.665  0.6372  0.3391  0.8418
27577SOL    HW183309   9.308   8.271   7.666  1.1172  0.4090  2.5934
27577SOL    HW283310   9.404   8.161   7.626 -1.1634  0.2899 -3.8035
27578SOL     OW83311   5.453   7.104   7.500 -0.3985 -0.4884  0.9984
27578SOL    HW183312   5.484   7.137   7.415 -0.5025 -1.2469  0.6579
27578SOL    HW283313   5.435   7.183   7.551  1.2406 -0.0211  0.9048
27579SOL     OW83314   3.606   1.244   5.407 -0.5346  0.0184 -0.6300
27579SOL    HW183315   3.587   1.239   5.501 -0.1253 -1.1917 -0.5970
27579SOL    HW283316   3.619   1.338   5.390  1.0703  0.1228  0.8735
27580SOL     OW83317   2.121   3.522   5.287 -0.2003 -0.3682 -0.1425
27580SOL    HW183318   2.175   3.444   5.291 -1.2253 -1.1599 -0.9904
27580SOL    HW283319   2.033   3.489   5.269 -0.3909  1.0267 -2.1781
27581SOL     OW83320   0.670   0.733   4.061  0.3620 -0.3552  0.5756
27581SOL    HW183321   0.628   0.753   3.977  1.4158  0.7995  0.2927
27581SOL    HW283322   0.728   0.660   4.041  3.1187  1.9631 -0.6010
27582SOL     OW83323   0.821   8.246   6.936  0.3250 -0.1146  0.1984
27582SOL    HW183324   0.791   8.161   6.968  0.7360 -0.8850 -1.4061
27582SOL    HW283325   0.915   8.245   6.952  0.4165 -0.1993 -0.3403
27583SOL     OW83326   1.111   1.455   8.157 -0.1200 -0.2136  0.1390
27583SOL    HW183327   1.189   1.445   8.103  0.5766 -2.0900  1.3954
27583SOL    HW283328   1.113   1.380   8.217 -0.7953  1.7880  2.8571
27584SOL     OW83329   1.567   2.233   4.027 -0.1714 -0.1564 -0.1804
27584SOL    HW183330   1.484   2.269   4.061  0.3943  1.2198 -0.1846
27584SOL    HW283331   1.563   2.248   3.933  0.8198  1.6426  0.0024
27585SOL     OW83332   7.564   5.361   7.053  0.1964 -0.4552  0.3037
27585SOL    HW183333   7.649   5.353   7.010  0.9149  0.8533  1.3980
27585SOL    HW283334   7.583   5.345   7.145 -0.1804  2.5406  0.9970
27586SOL     OW83335   1.235   9.403   1.690  0.2906  0.2096 -0.5352
27586SOL    HW183336   1.236   9.316   1.730 -0.5230  0.2089 -0.5103
27586SOL    HW283337   1.279   9.459   1.755 -0.0731  0.0086 -0.1119
27587SOL     OW83338   6.996   3.981   6.130  0.1787 -0.0350  0.0261
27587SOL    HW183339   6.973   3.975   6.223 -2.7460  1.1150 -0.4915
27587SOL    HW283340   7.028   4.071   6.119 -0.3225  0.1279 -0.1774
27588SOL     OW83341   9.339   1.090   7.223  0.5641  0.6914  0.0886
27588SOL    HW183342   9.331   1.003   7.184  1.3974  0.1321  1.0923
27588SOL    HW283343   9.423   1.123   7.191  0.3576  1.0307 -0.1037
27589SOL     OW83344   8.640   4.089   3.843 -0.1124 -0.4474  0.1308
27589SOL    HW183345   8.693   4.137   3.780  0.9083 -0.8008  0.6897
27589SOL    HW283346   8.549   4.110   3.820  0.2585 -0.0585 -1.0286
27590SOL     OW83347   7.997   2.686   4.633 -0.8883  0.4653 -0.2409
27590SOL    HW183348   8.011   2.729   4.718  1.4944  0.1262 -0.3928
27590SOL    HW283349   8.030   2.748   4.569  0.9667 -0.7979 -0.5905
27591SOL     OW83350   3.530   2.205   6.483 -0.1383  0.0557  0.5928
27591SOL    HW183351   3.625   2.192   6.482 -0.1874 -0.3017 -0.0292
27591SOL    HW283352   3.506   2.214   6.390 -0.6465  0.6355  0.7748
27592SOL     OW83353   1.804   0.576   3.542  0.1875  0.5143  0.0586
27592SOL    HW183354   1.724   0.628   3.553 -0.5375 -0.8318  1.6058
27592SOL    HW283355   1.810   0.524   3.622  0.3380 -2.4702 -1.7132
27593SOL     OW83356   0.021   5.569   2.563  0.4679  0.2397 -0.8513
27593SOL    HW183357  -0.016   5.484   2.539  0.4539  0.5865 -2.1702
27593SOL    HW283358   0.037   5.613   2.479  1.9727  0.9098 -0.2643
27594SOL     OW83359   7.481   5.462   8.221  0.3873 -0.1403  0.4471
27594SOL    HW183360   7.501   5.448   8.128 -0.3940 -0.5248  0.3229
27594SOL    HW283361   7.393   5.425   8.232  0.2204  0.4454  1.2041
27595SOL     OW83362   9.905   1.457   4.254 -0.3759  0.4274 -0.3733
27595SOL    HW183363   9.937   1.489   4.338 -0.4924 -0.1529 -0.1031
27595SOL    HW283364   9.963   1.498   4.189  0.4308 -0.0018  0.0608
27596SOL     OW83365   9.769   7.612   6.803  0.0798 -0.2633 -0.3813
27596SOL    HW183366   9.827   7.665   6.857 -1.5506  1.6811 -0.4150
27596SOL    HW283367   9.824   7.540   6.772  1.8745  0.2999  1.2846
27597SOL     OW83368   7.317   0.176   0.826 -0.2187 -0.2130 -0.0448
27597SOL    HW183369   7.285   0.090   0.798 -2.0611  0.4960 -0.2882
27597SOL    HW283370   7.250   0.207   0.887  0.7846  0.7561  0.5968
27598SOL     OW83371   4.356   7.519   9.431 -0.0115 -0.0312  0.0657
27598SOL    HW183372   4.351   7.553   9.520  1.4793  0.2457  0.0796
27598SOL    HW283373   4.297   7.575   9.380 -1.7827 -0.9346  1.0622
27599SOL     OW83374   8.110   7.178   4.205 -0.4616 -0.5372 -0.0084
27599SOL    HW183375   8.164   7.244   4.249  0.0373 -1.3575  0.6184
27599SOL    HW283376   8.106   7.208   4.114 -0.9207  0.7895  0.4200
27600SOL     OW83377   6.692   6.928   4.498 -0.7297  0.3875 -0.2397
27600SOL    HW183378   6.731   6.847   4.467  0.7269  1.1623 -0.5428
27600SOL    HW283379   6.744   6.952   4.575 -1.4957  0.7483  0.1749
27601SOL     OW83380   4.774   3.665   7.937 -0.1068  0.5321  0.3663
27601SOL    HW183381   4.697   3.681   7.882  0.3553 -0.0421 -0.4715
27601SOL    HW283382   4.796   3.573   7.922  2.6809  1.4244 -2.0159
27602SOL     OW83383   9.719   3.151   3.866  0.4321  0.2756  0.0637
27602SOL    HW183384   9.715   3.188   3.777 -2.4499 -1.6688 -0.7789
27602SOL    HW283385   9.784   3.081   3.860 -1.1656 -1.2158 -1.2410
27603SOL     OW83386   1.836   6.610   1.013 -0.0184  0.1897 -0.4638
27603SOL    HW183387   1.766   6.548   0.993 -1.3944  1.8812 -1.2067
27603SOL    HW283388   1.812   6.689   0.964  1.5460  1.3716  0.5866
27604SOL     OW83389   3.068   3.973   0.635 -0.3865  0.4950  0.1407
27604SOL    HW183390   2.979   3.939   0.645 -0.1158 -0.4386 -0.4997
27604SOL    HW283391   3.121   3.917   0.692  0.2557 -1.0403 -1.8321
27605SOL     OW83392   6.116   9.879   9.761 -0.0727  0.4890 -0.2601
27605SOL    HW183393   6.043   9.826   9.794 -1.3031  2.0491 -0.3173
27605SOL    HW283394   6.089   9.970   9.779  1.3014  1.1638 -1.4216
27606SOL     OW83395   5.996   8.966   2.396 -0.6259  1.2993 -0.2228
27606SOL    HW183396   5.937   8.936   2.466 -0.3261  1.4368  0.0923
27606SOL    HW283397   6.067   9.010   2.443  0.9471 -0.8778 -0.4336
27607SOL     OW83398   0.724   3.551   8.421 -0.6292 -0.3153 -0.0399
27607SOL    HW183399   0.645   3.497   8.408 -0.0773 -0.6386 -2.5694
27607SOL    HW283400   0.789   3.490   8.456 -0.6953 -0.7470 -0.6492
27608SOL     OW83401   7.606   4.519   1.760 -0.2380  0.3000 -0.1177
27608SOL    HW183402   7.553   4.446   1.728  0.6561 -1.1490  1.5260
27608SOL    HW283403   7.653   4.551   1.683  0.8827 -2.2172 -0.5682
27609SOL     OW83404   8.339   0.592   4.321  0.0696 -0.1762  0.0442
27609SOL    HW183405   8.365   0.514   4.273  0.8103  0.7210 -1.0894
27609SOL    HW283406   8.263   0.565   4.373 -0.5990 -1.2825 -1.4376
27610SOL     OW83407   5.632   6.707   7.031 -0.0342  0.4836  0.1429
27610SOL    HW183408   5.687   6.634   7.004  0.2473  0.7114  0.0915
27610SOL    HW283409   5.636   6.768   6.957  0.6173  1.0440  0.6242
27611SOL     OW83410   4.434   2.821   0.029  0.2495 -0.3603  0.0258
27611SOL    HW183411   4.481   2.861   0.102  0.6609  0.6814 -0.7836
27611SOL    HW283412   4.498   2.817  -0.042  0.1412 -2.2358 -0.0125
27612SOL     OW83413   9.573   2.977   5.129  0.2895 -0.1020 -0.6042
27612SOL    HW183414   9.634   2.954   5.059 -1.4034 -0.1956 -2.1436
27612SOL    HW283415   9.501   2.914   5.119 -0.5197  0.6165  0.4857
27613SOL     OW83416   2.217   1.665   0.265 -0.4171 -0.3766  0.1779
27613SOL    HW183417   2.216   1.707   0.179 -4.3932  0.9977  0.6795
27613SOL    HW283418   2.278   1.718   0.316  0.7054 -0.1824 -1.2689
27614SOL     OW83419   7.591   7.341   9.531  0.0478 -0.3379 -0.7529
27614SOL    HW183420   7.513   7.294   9.558 -0.1095 -0.5736 -1.5945
27614SOL    HW283421   7.662   7.278   9.540  0.7498  0.7803  3.1420
27615SOL     OW83422   6.052   5.058   7.346  0.0147  0.1267  0.3707
27615SOL    HW183423   5.960   5.067   7.323 -0.5978 -0.0197  2.4759
27615SOL    HW283424   6.087   5.147   7.343 -0.6960  0.4562  1.3220
27616SOL     OW83425   9.380   6.446   8.697 -0.1710 -0.5243  0.5385
27616SOL    HW183426   9.351   6.440   8.606  0.2562 -0.0348  0.3651
27616SOL    HW283427   9.461   6.396   8.700 -0.5501 -1.1259  0.8124
27617SOL     OW83428   0.529   4.920   7.778  0.1274 -0.2629  0.1717
27617SOL    HW183429   0.612   4.928   7.825 -0.8763 -0.1743  2.0096
27617SOL    HW283430   0.512   5.008   7.745  1.1219 -0.4513 -0.8996
27618SOL     OW83431   4.557   0.809   3.154 -0.3216 -0.6068 -0.8871
27618SOL    HW183432   4.462   0.808   3.153 -0.3855 -0.8039  0.9164
27618SOL    HW283433   4.580   0.802   3.247  1.4262  0.7710 -1.1403
27619SOL     OW83434   2.342   2.334   3.784 -0.5836 -0.0662  0.5296
27619SOL    HW183435   2.278   2.305   3.719  0.2319  1.3886 -1.0167
27619SOL    HW283436   2.289   2.370   3.855 -1.5062 -2.0106  0.8939
27620SOL     OW83437   5.370   5.031   1.686  0.1815  0.5536  0.0166
27620SOL    HW183438   5.371   4.946   1.729 -0.7760  0.8666  0.6895
27620SOL    HW283439   5.414   5.016   1.602  1.3856 -0.2376  0.7598
27621SOL     OW83440   4.746   7.438   8.011  0.0527  0.0995  0.2593
27621SOL    HW183441   4.670   7.475   8.056 -1.1148 -1.6180 -0.1839
27621SOL    HW283442   4.726   7.446   7.918  0.5647 -0.0638  0.1295
27622SOL     OW83443   7.272   5.001   8.230 -0.1675  0.0496 -0.4624
27622SOL    HW183444   7.223   5.007   8.312 -1.3349 -1.0589 -1.0589
27622SOL    HW283445   7.248   5.081   8.183 -1.7648 -0.6521 -0.9122
27623SOL     OW83446   3.680   1.983   6.722  0.4839  0.2481  0.3931
27623SOL    HW183447   3.723   2.020   6.645  0.0117  0.4147  0.2017
27623SOL    HW283448   3.607   1.931   6.687 -0.3667  1.1542  0.7481
27624SOL     OW83449   2.378   0.660   0.618  0.0742 -0.2619 -0.1276
27624SOL    HW183450   2.393   0.632   0.709 -0.1943  0.0448  0.0150
27624SOL    HW283451   2.292   0.702   0.621 -0.4123 -1.1681 -0.7346
27625SOL     OW83452   3.287   3.047   6.726 -0.2973 -0.2245  0.6355
27625SOL    HW183453   3.238   2.971   6.759 -1.2262  0.9938  2.2375
27625SOL    HW283454   3.229   3.121   6.744  0.6524  0.8839 -0.7469
27626SOL     OW83455   5.746   7.490   8.820 -0.6428  0.5785 -0.4208
27626SOL    HW183456   5.682   7.475   8.750 -0.8701  0.9678 -0.3017
27626SOL    HW283457   5.707   7.559   8.873 -0.2916  0.5560 -0.1289
27627SOL     OW83458   9.188   6.621   0.824  0.4983 -0.3439  0.3348
27627SOL    HW183459   9.108   6.603   0.873 -0.2287  1.6299 -0.0272
27627SOL    HW283460   9.168   6.597   0.734  0.3537  0.0081  0.2712
27628SOL     OW83461   1.223   7.062   6.764 -0.1115  0.3810  0.4547
27628SOL    HW183462   1.197   7.117   6.839  1.1182  1.7582 -0.0659
27628SOL    HW283463   1.147   7.065   6.705 -1.0936 -0.7143  1.5998
27629SOL     OW83464   3.517   4.424   3.973 -0.3541 -0.0882 -0.4920
27629SOL    HW183465   3.499   4.517   3.965  0.3198  0.2052  1.2042
27629SOL    HW283466   3.431   4.384   3.987 -0.5535  0.3599 -0.4380
27630SOL     OW83467   6.313   4.230   0.038  0.3088  0.6165 -0.3759
27630SOL    HW183468   6.224   4.201   0.056 -0.4627  2.4308 -1.0419
27630SOL    HW283469   6.312   4.254  -0.055  1.2515  1.3987 -0.2057
27631SOL     OW83470   0.064   1.040   4.860  0.6317 -0.3748 -0.2353
27631SOL    HW183471   0.097   1.120   4.900 -1.3235  1.3568 -1.8210
27631SOL    HW283472  -0.017   1.020   4.907  1.0552 -1.3857  0.0885
27632SOL     OW83473   2.897   6.458   8.059  0.1700  0.4633 -0.4686
27632SOL    HW183474   2.905   6.364   8.071  1.8742  0.5916 -0.3129
27632SOL    HW283475   2.952   6.478   7.983  1.8975  1.6034  0.9852
27633SOL     OW83476   9.795   0.732   3.072  0.1537  0.2278 -0.2435
27633SOL    HW183477   9.772   0.643   3.045  0.4724  0.5122 -1.5258
27633SOL    HW283478   9.815   0.777   2.990 -1.0329  1.7872  0.2813
27634SOL     OW83479   0.914   4.942   8.640  0.0387 -0.4178  0.1493
27634SOL    HW183480   0.894   4.880   8.570  0.0845  0.0850 -0.3194
27634SOL    HW283481   0.850   4.922   8.708 -0.6150 -0.3164 -0.4124
27635SOL     OW83482   1.780   6.617   2.713  0.0312  0.1571 -0.2565
27635SOL    HW183483   1.743   6.566   2.641  2.0027 -1.6692 -0.0959
27635SOL    HW283484   1.712   6.618   2.779 -0.5382 -1.2314 -0.7775
27636SOL     OW83485   2.851   2.792   4.230  0.0581 -0.0664 -0.2366
27636SOL    HW183486   2.827   2.760   4.143  0.9097  0.8514 -0.8330
27636SOL    HW283487   2.947   2.802   4.227 -0.0983  1.9616  0.0905
27637SOL     OW83488   3.561   3.856   0.064 -0.2229  0.3470 -0.0240
27637SOL    HW183489   3.537   3.947   0.080 -0.2398  0.3011  0.2157
27637SOL    HW283490   3.512   3.832  -0.014  0.5056  0.8248 -0.6355
27638SOL     OW83491   7.199   6.007   2.947  0.2574 -0.0998  0.2683
27638SOL    HW183492   7.195   6.100   2.926 -0.0887 -0.1013  0.3297
27638SOL    HW283493   7.242   5.967   2.872 -0.0244  0.0418  0.0328
27639SOL     OW83494   5.529   5.457   0.861 -1.2246 -0.4472 -0.8171
27639SOL    HW183495   5.489   5.378   0.824 -0.6152 -1.0293 -0.2671
27639SOL    HW283496   5.458   5.500   0.909 -1.0062 -2.0581  1.1042
27640SOL     OW83497   9.363   7.733   7.203 -0.5858  0.0662 -0.0515
27640SOL    HW183498   9.374   7.659   7.143  1.8516  1.0329 -0.9419
27640SOL    HW283499   9.316   7.799   7.151  2.0369  1.1308 -1.2887
27641SOL     OW83500   5.345   6.580   5.953 -0.2681 -0.3574 -0.0674
27641SOL    HW183501   5.268   6.569   5.897 -0.2505 -0.2207 -0.1168
27641SOL    HW283502   5.323   6.532   6.033 -0.0191 -1.1310 -0.4493
27642SOL     OW83503   0.578   6.451   8.299  0.5191  0.0491 -0.4836
27642SOL    HW183504   0.602   6.444   8.207 -1.7490 -1.6812 -1.0434
27642SOL    HW283505   0.492   6.494   8.298  0.1589 -0.5962  0.7619
27643SOL     OW83506   0.203   6.234   9.930  0.3808 -0.1912  0.5680
27643SOL    HW183507   0.112   6.203   9.939  0.6944 -1.1458  0.5954
27643SOL    HW283508   0.238   6.233  10.019  0.1559  1.0727  0.6898
27644SOL     OW83509   2.841   6.901   9.938 -0.5046 -0.1774 -0.0564
27644SOL    HW183510   2.896   6.882   9.862 -1.7172  0.9025 -1.2663
27644SOL    HW283511   2.889   6.969   9.986  0.8797 -1.7535  0.9139
27645SOL     OW83512   4.068   7.054   0.175 -0.6558 -0.4967 -0.0348
27645SOL    HW183513   4.080   6.965   0.207  1.1730 -0.6626 -1.0477
27645SOL    HW283514   4.139   7.067   0.113 -1.2318  1.4773 -0.3506
27646SOL     OW83515   1.701   3.014   2.058 -0.2362 -0.2698 -0.6996
27646SOL    HW183516   1.729   3.097   2.096 -1.0102 -0.4989  0.4072
27646SOL    HW283517   1.770   2.992   1.996 -0.0237  1.1994 -1.0307
27647SOL     OW83518   9.082   6.728   8.931 -0.2280 -0.2262 -0.4319
27647SOL    HW183519   9.033   6.702   9.009  0.2871 -1.9779 -0.6505
27647SOL    HW283520   9.171   6.742   8.962 -0.4351  1.0826 -0.3745
27648SOL     OW83521   0.813   8.559   7.963 -0.1341  0.0603  0.1472
27648SOL    HW183522   0.861   8.641   7.957 -1.2807  0.9885  2.3936
27648SOL    HW283523   0.724   8.584   7.988 -0.0987 -1.8767  2.6553
27649SOL     OW83524   6.644   2.230   9.228  0.0093 -0.0962 -0.4814
27649SOL    HW183525   6.629   2.242   9.134 -1.6388  0.5144 -0.1646
27649SOL    HW283526   6.739   2.236   9.237  0.1769  0.2168 -2.0571
27650SOL     OW83527   4.413   7.614   0.318  0.0868  0.4727 -0.1346
27650SOL    HW183528   4.463   7.587   0.395 -0.0131  0.5804 -0.0330
27650SOL    HW283529   4.357   7.685   0.349  0.7600  1.1857 -0.5351
27651SOL     OW83530   3.987   4.944   8.260 -0.4674 -0.4871  0.8991
27651SOL    HW183531   3.994   4.907   8.349 -1.5527 -0.3199  1.0623
27651SOL    HW283532   4.061   4.906   8.213  0.2437 -0.4150  1.9323
27652SOL     OW83533   6.628   0.860   4.948 -0.0975  0.6789  0.1453
27652SOL    HW183534   6.720   0.879   4.968  0.3565 -0.4536 -0.7195
27652SOL    HW283535   6.596   0.815   5.025  0.4615 -0.0511 -0.0321
27653SOL     OW83536   9.302   8.013   4.433  0.2196 -0.0673  0.1633
27653SOL    HW183537   9.262   7.941   4.482 -0.1721  1.3089  1.9650
27653SOL    HW283538   9.231   8.045   4.376 -0.5630  0.8149  1.5893
27654SOL     OW83539   2.115   6.293   8.220  0.6693 -0.3801 -0.1718
27654SOL    HW183540   2.025   6.278   8.250  1.1344 -0.7429  1.1514
27654SOL    HW283541   2.158   6.208   8.230  0.9775 -0.4101 -1.5366
27655SOL     OW83542   5.028   9.654   1.363 -0.2300 -0.0682 -0.0424
27655SOL    HW183543   5.079   9.673   1.284  1.3280 -1.5642  0.5243
27655SOL    HW283544   5.094   9.630   1.428 -1.6025 -0.7268  1.1583
27656SOL     OW83545   4.362   9.113   0.483  0.5948 -0.1044  0.2512
27656SOL    HW183546   4.420   9.159   0.543  1.2261 -1.1707  0.4844
27656SOL    HW283547   4.325   9.042   0.534  1.7617 -1.5236 -0.8051
27657SOL     OW83548   8.901   9.484   6.401  0.0155 -0.2367 -0.5652
27657SOL    HW183549   8.854   9.423   6.344 -1.0080  0.9273 -1.0340
27657SOL    HW283550   8.945   9.429   6.465 -0.3148 -1.4894 -1.3806
27658SOL     OW83551   0.617   2.560   6.815  0.3530 -1.0551  0.9189
27658SOL    HW183552   0.581   2.503   6.747  0.1840  1.3710 -1.1732
27658SOL    HW283553   0.709   2.535   6.821  0.1918 -1.8338  0.3675
27659SOL     OW83554   5.675   1.634   7.622  0.0536  0.8151  0.1378
27659SOL    HW183555   5.586   1.602   7.602  0.0116  1.2240 -0.3521
27659SOL    HW283556   5.703   1.581   7.697 -0.7665  0.9664  0.5628
27660SOL     OW83557   5.635   5.878   5.603  0.1068 -0.1882 -0.2249
27660SOL    HW183558   5.548   5.841   5.590 -0.2551  0.8668 -0.9711
27660SOL    HW283559   5.628   5.929   5.684  0.0921 -0.2833 -0.1661
27661SOL     OW83560   5.976   3.731   0.063 -0.4532  0.3702  0.2360
27661SOL    HW183561   5.947   3.746   0.153 -0.1200 -0.1450  0.4305
27661SOL    HW283562   6.059   3.684   0.072  0.3135  1.5462 -0.3159
27662SOL     OW83563   5.626   6.362   2.148 -0.2497  0.2040  0.4913
27662SOL    HW183564   5.557   6.393   2.207  0.7379  2.9195  0.3887
27662SOL    HW283565   5.593   6.383   2.060 -0.0110 -0.0520  0.3385
27663SOL     OW83566   5.651   9.419   2.840 -0.7971 -0.6073  0.2098
27663SOL    HW183567   5.652   9.491   2.778  0.6345  0.9621  1.9249
27663SOL    HW283568   5.559   9.408   2.863 -1.3028 -0.9264 -1.7817
27664SOL     OW83569   2.524   8.687   8.343  0.0773  0.7541  0.3017
27664SOL    HW183570   2.514   8.604   8.391 -0.1129 -0.4427 -1.6900
27664SOL    HW283571   2.618   8.695   8.328  0.2625  1.6954  1.7284
27665SOL     OW83572   0.140   9.411   8.505  0.3861 -0.0276  0.1911
27665SOL    HW183573   0.110   9.480   8.446 -2.9973 -0.7701  0.8377
27665SOL    HW283574   0.174   9.457   8.582  2.4823  0.8882 -1.1922
27666SOL     OW83575   1.794   1.483   4.186 -0.5890 -0.0218 -0.1336
27666SOL    HW183576   1.796   1.562   4.132  1.1346 -0.9803 -1.5655
27666SOL    HW283577   1.844   1.506   4.264  3.0848 -0.6117 -2.0761
27667SOL     OW83578   4.348   5.941   1.211  0.4352 -0.1799 -0.0161
27667SOL    HW183579   4.442   5.948   1.229  0.2861 -0.6129  1.0006
27667SOL    HW283580   4.331   5.847   1.208  0.0415 -0.1033 -0.2460
27668SOL     OW83581   1.481   2.400   3.528  0.5564 -0.1624  0.2258
27668SOL    HW183582   1.390   2.407   3.554  0.4894  0.6349 -0.1812
27668SOL    HW283583   1.523   2.478   3.565  1.3079 -1.0295  1.2876
27669SOL     OW83584   8.120   8.424   3.935 -0.0567 -0.4883  0.0033
27669SOL    HW183585   8.149   8.505   3.978 -1.6133 -0.1660  0.5150
27669SOL    HW283586   8.026   8.419   3.955 -0.4363 -1.3134 -1.8015
27670SOL     OW83587   1.488   0.700   4.845  0.0301 -0.6064 -0.1264
27670SOL    HW183588   1.518   0.609   4.837 -0.8609 -0.9363  0.1480
27670SOL    HW283589   1.429   0.699   4.920  1.9862  0.7396  1.5581
27671SOL     OW83590   9.799   7.578   5.633  0.5300 -0.0500  0.0148
27671SOL    HW183591   9.788   7.508   5.569  0.5820 -0.4186  0.3994
27671SOL    HW283592   9.724   7.636   5.619  1.2004  0.5599 -1.2139
27672SOL     OW83593   7.365   0.294   5.242  0.3588 -0.2048  0.3696
27672SOL    HW183594   7.387   0.376   5.198  1.6420 -0.3979  0.5991
27672SOL    HW283595   7.376   0.313   5.335  0.7977 -0.6556  0.4176
27673SOL     OW83596   9.773   9.398   1.968 -0.4459  0.2649 -0.3811
27673SOL    HW183597   9.855   9.348   1.961 -1.2617 -1.3966  1.1072
27673SOL    HW283598   9.712   9.351   1.911 -1.6099 -1.4505  2.0703
27674SOL     OW83599   1.703   9.073   5.075  0.5401  0.2801  0.6245
27674SOL    HW183600   1.642   9.001   5.090  1.2212 -0.3480  0.4812
27674SOL    HW283601   1.730   9.101   5.162  0.1067  0.5139  0.6864
27675SOL     OW83602   6.165   8.425   3.737  0.0029  0.0499  0.3700
27675SOL    HW183603   6.201   8.358   3.795 -0.0791  1.2872  1.9189
27675SOL    HW283604   6.193   8.399   3.649  2.9199 -0.1625  1.2677
27676SOL     OW83605   5.739   2.101   3.202  0.2207  0.0355 -0.1498
27676SOL    HW183606   5.780   2.165   3.144  1.3163 -0.0433  0.5139
27676SOL    HW283607   5.668   2.149   3.244 -0.3294  0.2057 -1.2436
27677SOL     OW83608   1.422   3.839   3.559  0.0682  0.3136 -0.4564
27677SOL    HW183609   1.495   3.899   3.544  0.2119  0.6181  1.2620
27677SOL    HW283610   1.369   3.882   3.626  0.6932 -1.8727  1.5772
27678SOL     OW83611   8.063   1.322   0.982 -0.6806  0.0836  0.3817
27678SOL    HW183612   7.968   1.329   0.992 -0.9379  1.0260 -2.1883
27678SOL    HW283613   8.091   1.409   0.956  0.4437 -0.8956 -1.8960
27679SOL     OW83614   2.710   1.347   0.270 -0.6783 -0.3822 -0.2094
27679SOL    HW183615   2.749   1.431   0.245 -1.7667  0.5070  0.9670
27679SOL    HW283616   2.781   1.283   0.259  0.2951  0.7466 -0.7173
27680SOL     OW83617   4.653   1.159   6.758 -0.0974  0.2192  0.0342
27680SOL    HW183618   4.732   1.132   6.712 -0.6910  0.4710 -1.1922
27680SOL    HW283619   4.684   1.214   6.830  0.8744 -0.3018  0.0253
27681SOL     OW83620   9.636   1.001   0.908  0.2722 -0.1876 -0.0778
27681SOL    HW183621   9.575   1.024   0.838  0.2776 -0.1870 -0.0821
27681SOL    HW283622   9.629   0.906   0.915  1.1161 -0.3144 -0.8603
27682SOL     OW83623   3.491   4.120   3.838  0.3160  0.4819 -0.4763
27682SOL    HW183624   3.565   4.079   3.793 -0.1807 -0.6010 -0.3265
27682SOL    HW283625   3.522   4.135   3.928 -0.8378 -3.6313  0.8011
27683SOL     OW83626   5.932   5.194   8.792  0.4326 -0.0776  0.2610
27683SOL    HW183627   5.902   5.270   8.841  0.6195  0.8859 -1.0404
27683SOL    HW283628   5.853   5.154   8.756  0.4599  0.9316 -1.0103
27684SOL     OW83629   9.040   3.369   8.052 -0.0985 -0.1126  0.2723
27684SOL    HW183630   9.061   3.387   8.144 -1.1275 -0.5606  0.6027
27684SOL    HW283631   8.945   3.360   8.050 -0.2621  1.3996 -1.1091
27685SOL     OW83632   4.427   0.702   5.153 -0.6918  0.7584 -0.0713
27685SOL    HW183633   4.348   0.663   5.114 -0.3991  0.3986 -0.3051
27685SOL    HW283634   4.393   0.764   5.218 -1.1966  1.8182 -1.3155
27686SOL     OW83635   0.775   7.181   7.967  0.2313 -0.4168 -0.7763
27686SOL    HW183636   0.780   7.275   7.949  0.4403 -0.2950 -0.1163
27686SOL    HW283637   0.696   7.152   7.923  0.2036  0.0595 -1.0405
27687SOL     OW83638   6.242   6.615   7.700 -0.6213 -0.4569  0.2918
27687SOL    HW183639   6.154   6.652   7.703 -0.3942  0.2132 -0.8169
27687SOL    HW283640   6.275   6.624   7.790 -1.6847 -0.7503  0.7213
27688SOL     OW83641   2.517   0.803   7.895 -0.2071  0.1328  0.0236
27688SOL    HW183642   2.581   0.746   7.854  0.9722  1.4539 -0.0322
27688SOL    HW283643   2.559   0.834   7.975  0.0408  2.5095 -0.9498
27689SOL     OW83644   9.182   2.288   9.446  0.0898  0.0311  0.2416
27689SOL    HW183645   9.178   2.374   9.488  0.1888 -0.0895  0.5009
27689SOL    HW283646   9.275   2.268   9.439  0.0630 -1.1429  2.4526
27690SOL     OW83647   0.122   4.076   3.488  0.1161 -0.3361 -0.2964
27690SOL    HW183648   0.107   4.082   3.582  0.4594 -2.3303 -0.0620
27690SOL    HW283649   0.215   4.095   3.477 -0.0680  0.5853 -0.3377
27691SOL     OW83650   0.726   7.268   7.636  0.3630  0.2893  0.0004
27691SOL    HW183651   0.771   7.326   7.697  0.2671  0.9451 -0.5398
27691SOL    HW283652   0.707   7.323   7.560  0.1319 -0.4107 -0.4600
27692SOL     OW83653   9.144   4.353   1.519 -0.1821 -0.3850  0.3348
27692SOL    HW183654   9.230   4.310   1.520 -0.3002 -0.6494  1.8005
27692SOL    HW283655   9.128   4.373   1.427  1.1677 -0.9009 -0.0366
27693SOL     OW83656   6.295   1.881   2.194  0.2812 -0.8775 -0.2986
27693SOL    HW183657   6.249   1.901   2.275  0.7296  0.4258 -0.3458
27693SOL    HW283658   6.298   1.785   2.191 -0.1980 -0.9467  0.9495
27694SOL     OW83659   7.752   4.823   4.102  0.0023  0.3080 -0.7210
27694SOL    HW183660   7.803   4.900   4.076 -0.1916  0.5334 -0.4458
27694SOL    HW283661   7.663   4.856   4.113 -0.0355  0.0981 -0.3601
27695SOL     OW83662   4.023   3.323   3.741  0.4516 -0.0429  0.4376
27695SOL    HW183663   3.968   3.382   3.691  1.1803  0.4911  0.2436
27695SOL    HW283664   3.976   3.311   3.824 -0.0809  0.1873  0.1731
27696SOL     OW83665   5.909   0.959   3.378  0.5522 -0.1600  0.1644
27696SOL    HW183666   5.952   0.875   3.362  1.7812  0.3937  0.3747
27696SOL    HW283667   5.894   0.995   3.291 -0.2060 -0.6884  0.0648
27697SOL     OW83668   4.648   0.760   7.910 -0.3243 -0.3506 -0.4230
27697SOL    HW183669   4.682   0.683   7.865 -0.3851  0.4515 -1.9024
27697SOL    HW283670   4.691   0.759   7.996  1.7975 -0.5423 -1.4236
27698SOL     OW83671   2.558   1.948   1.254 -0.2326  0.1465  0.4401
27698SOL    HW183672   2.511   2.029   1.232 -0.7814 -0.4474 -0.6607
27698SOL    HW283673   2.526   1.924   1.340 -0.2967  0.9283  0.6462
27699SOL     OW83674   2.483   5.101   1.950  0.5846 -0.2160  0.1976
27699SOL    HW183675   2.449   5.054   2.026  1.9931 -0.0890  0.9460
27699SOL    HW283676   2.565   5.140   1.980  2.0335 -1.5082 -1.8189
27700SOL     OW83677   1.171   2.435   3.043 -0.2429 -0.3384 -0.2223
27700SOL    HW183678   1.132   2.507   3.094 -1.7586 -2.1671  1.3771
27700SOL    HW283679   1.226   2.389   3.107 -0.3570 -1.3633 -0.8562
27701SOL     OW83680   4.035   3.661   9.089 -0.1888 -0.3095  0.4018
27701SOL    HW183681   4.122   3.696   9.112 -0.3283 -0.1859  0.7491
27701SOL    HW283682   3.980   3.684   9.164 -0.9033  1.0122 -0.4804
27702SOL     OW83683   4.277   8.971   2.030  0.2177  0.0750  0.2617
27702SOL    HW183684   4.297   9.041   2.093 -0.7479 -0.5515  1.2875
27702SOL    HW283685   4.239   8.901   2.082 -1.6177 -0.0573 -1.1378
27703SOL     OW83686   4.201   6.816   8.733  0.3479  0.1627 -0.6769
27703SOL    HW183687   4.257   6.886   8.766  0.2794 -0.2420  0.3377
27703SOL    HW283688   4.259   6.761   8.681  0.2732  1.2894 -1.9996
27704SOL     OW83689   2.945   7.394   0.082 -0.0091 -0.7011 -0.1275
27704SOL    HW183690   2.852   7.400   0.059 -0.1250 -2.4736 -0.2578
27704SOL    HW283691   2.973   7.485   0.093 -1.1560  0.0342 -2.4853
27705SOL     OW83692   8.493   9.245   5.312  0.2739 -0.3040  0.4065
27705SOL    HW183693   8.413   9.253   5.260  0.1003  0.3385  0.7600
27705SOL    HW283694   8.564   9.246   5.248  0.0954  1.0573  0.1882
27706SOL     OW83695   8.595   5.513   3.920 -0.5993  0.4016  0.3311
27706SOL    HW183696   8.594   5.608   3.932  2.2133  0.5142  0.3507
27706SOL    HW283697   8.551   5.499   3.837  0.6772  1.9761 -0.6887
27707SOL     OW83698   5.904   7.979   7.368  0.0296  0.2117 -0.4516
27707SOL    HW183699   5.950   7.920   7.308  0.3437 -0.9907  0.9270
27707SOL    HW283700   5.841   7.924   7.413 -0.7217  1.2560 -0.1872
27708SOL     OW83701   8.303   0.068   5.177 -0.8248  0.0575  0.7908
27708SOL    HW183702   8.371   0.129   5.208 -1.9097  1.3111  0.8025
27708SOL    HW283703   8.336   0.037   5.093  0.0189  0.2118  1.0486
27709SOL     OW83704   5.464   0.232   9.230 -0.4086 -0.2370  0.5737
27709SOL    HW183705   5.473   0.228   9.135 -2.8561 -0.3599  0.2908
27709SOL    HW283706   5.460   0.326   9.250 -0.1405 -0.2162  0.5328
27710SOL     OW83707   7.527   9.476   1.931 -0.1965  0.0338  0.1097
27710SOL    HW183708   7.527   9.435   2.018 -1.5457  0.5850  0.3912
27710SOL    HW283709   7.438   9.510   1.920 -0.2467 -0.5829 -1.7679
27711SOL     OW83710   9.599   4.570   1.519 -0.1573  0.3958  0.0485
27711SOL    HW183711   9.594   4.594   1.612 -2.6564 -2.4166  0.8164
27711SOL    HW283712   9.624   4.478   1.519  1.1947  0.6910 -2.2117
27712SOL     OW83713   4.458   7.368   2.892 -0.5063 -0.0263 -0.1651
27712SOL    HW183714   4.369   7.333   2.889 -0.6068  0.2684 -0.8301
27712SOL    HW283715   4.453   7.442   2.951 -0.7901  0.2257 -0.5052
27713SOL     OW83716   4.014   8.775   6.741 -0.5052  0.0995  0.1379
27713SOL    HW183717   4.052   8.853   6.783 -0.6250  0.2942 -0.1124
27713SOL    HW283718   4.041   8.702   6.797  1.6448  0.0277 -0.9320
27714SOL     OW83719   0.358   0.638   0.693 -0.1822  0.6775  0.1276
27714SOL    HW183720   0.339   0.732   0.702  0.6322  0.8553  0.0732
27714SOL    HW283721   0.454   0.633   0.697 -0.1115  0.0311 -1.5155
27715SOL     OW83722   0.253   8.601   7.689  0.4652 -0.1024 -0.0954
27715SOL    HW183723   0.268   8.507   7.682  1.9588  0.1158 -0.0774
27715SOL    HW283724   0.206   8.624   7.609 -3.0737 -1.3734  1.3974
27716SOL     OW83725   6.775   1.414   1.549  0.2418 -0.0832  0.0586
27716SOL    HW183726   6.737   1.387   1.465  0.3427 -1.3620  0.4045
27716SOL    HW283727   6.700   1.437   1.603  0.0954 -0.4543  0.0169
27717SOL     OW83728   4.295   6.776   2.549 -0.3726 -0.4841 -0.1710
27717SOL    HW183729   4.287   6.697   2.602  0.0393 -2.1483 -2.4513
27717SOL    HW283730   4.388   6.799   2.555 -0.2457 -0.9051 -0.4784
27718SOL     OW83731   0.825   6.532   8.479  0.0976  0.6116 -0.1666
27718SOL    HW183732   0.872   6.486   8.548 -1.1154 -0.2435  0.1167
27718SOL    HW283733   0.740   6.553   8.517 -0.3618  0.6770 -1.1961
27719SOL     OW83734   8.985   4.089   1.068 -0.4614 -0.0962 -0.3119
27719SOL    HW183735   8.991   4.000   1.032 -1.5101 -0.4224  0.2865
27719SOL    HW283736   8.957   4.143   0.994 -3.0858 -0.8451  0.0293
27720SOL     OW83737   0.111   5.269   2.275  0.6637  0.4168 -0.1896
27720SOL    HW183738   0.197   5.268   2.317  0.9287  1.5524 -0.6699
27720SOL    HW283739   0.051   5.299   2.343 -0.1343 -4.0359  1.4071
27721SOL     OW83740   7.975   1.425   4.797  0.3123 -0.0453  0.0573
27721SOL    HW183741   8.019   1.353   4.751 -0.2998 -0.2364 -0.2389
27721SOL    HW283742   7.996   1.503   4.746  2.9751  0.4143  1.6880
27722SOL     OW83743   9.426   9.350   0.373  0.0431  0.6328 -0.0591
27722SOL    HW183744   9.387   9.430   0.408 -0.1874  1.4931 -2.1795
27722SOL    HW283745   9.493   9.327   0.438  1.9379  4.0359 -0.5824
27723SOL     OW83746   0.310   1.658   5.670  0.1736 -0.0037  0.1560
27723SOL    HW183747   0.382   1.708   5.631 -0.4206 -0.6353 -1.8798
27723SOL    HW283748   0.252   1.725   5.706  1.5251  0.5348  1.4226
27724SOL     OW83749   3.042   9.842   2.047 -0.1372 -0.0605 -0.5282
27724SOL    HW183750   2.975   9.886   1.994  1.3630  2.5124 -0.4670
27724SOL    HW283751   3.039   9.751   2.019 -3.2359  0.0753 -0.9320
27725SOL     OW83752   7.855   3.465   0.490  0.3780  0.1760  0.5076
27725SOL    HW183753   7.826   3.393   0.546  0.5584  2.4396  3.7853
27725SOL    HW283754   7.775   3.499   0.451  0.1713 -1.0006 -0.1580
27726SOL     OW83755   6.184   7.367   6.666 -0.3406 -0.1336  0.0466
27726SOL    HW183756   6.105   7.411   6.634 -0.6602  0.7446  1.9347
27726SOL    HW283757   6.251   7.387   6.601 -0.8176  2.0574  0.1770
27727SOL     OW83758   9.869   4.570   0.440 -0.6640 -0.9959  0.1345
27727SOL    HW183759   9.886   4.663   0.426 -1.3821 -0.3064  3.1732
27727SOL    HW283760   9.795   4.549   0.382 -2.8414  1.3022  1.8831
27728SOL     OW83761   4.823   4.207   9.671 -0.3075 -0.1155 -0.2291
27728SOL    HW183762   4.858   4.200   9.759 -0.3426 -0.9504 -0.2761
27728SOL    HW283763   4.842   4.297   9.645 -0.2454  0.1215  0.6025
27729SOL     OW83764   5.212   5.549   1.474 -0.1550  1.0259 -0.3691
27729SOL    HW183765   5.292   5.504   1.499 -0.5435  1.1232  1.1820
27729SOL    HW283766   5.182   5.504   1.395 -0.0082 -0.8104  0.5729
27730SOL     OW83767   4.611   6.022   5.597 -0.2508  0.3220  0.3513
27730SOL    HW183768   4.563   5.981   5.525 -0.8597  0.8408  0.4443
27730SOL    HW283769   4.612   6.115   5.575  0.0041  0.4193  0.7630
27731SOL     OW83770   8.496   6.169   1.051  0.2255 -0.7164  0.6104
27731SOL    HW183771   8.548   6.174   0.971  0.5813  0.0065  0.8805
27731SOL    HW283772   8.534   6.235   1.109 -0.4959 -0.7217  1.1028
27732SOL     OW83773   9.413   4.881   6.369  0.0019 -0.2074  0.0750
27732SOL    HW183774   9.397   4.795   6.330 -0.2108  0.8070 -2.2973
27732SOL    HW283775   9.506   4.880   6.392 -0.2343 -1.4091  1.0761
27733SOL     OW83776   6.949   9.653   5.151  0.0059  0.1564  0.3454
27733SOL    HW183777   6.992   9.573   5.183  0.1438 -0.1549 -0.5931
27733SOL    HW283778   6.878   9.621   5.096  2.6648  0.5435 -3.6750
27734SOL     OW83779   0.555   9.080   9.679  0.0551  0.0206  0.7473
27734SOL    HW183780   0.587   8.998   9.642  1.6370  1.2512 -0.7614
27734SOL    HW283781   0.569   9.145   9.611 -1.1676  1.5695  1.8925
27735SOL     OW83782   1.120   9.129   9.041  0.3613  0.0473 -0.2854
27735SOL    HW183783   1.066   9.058   9.075  0.3094  1.0881  1.9593
27735SOL    HW283784   1.086   9.144   8.952 -2.7209  0.2725  0.7856
27736SOL     OW83785   6.335   2.805   1.747 -0.1529  0.0168  0.2903
27736SOL    HW183786   6.418   2.763   1.726 -0.0924  0.7472 -1.0563
27736SOL    HW283787   6.269   2.750   1.706 -0.4668 -1.1685  2.2757
27737SOL     OW83788   7.675   2.853   5.858 -0.2806 -0.3352 -0.3345
27737SOL    HW183789   7.747   2.861   5.795  0.6814  0.7430  0.8573
27737SOL    HW283790   7.688   2.767   5.898  0.3665 -0.1475 -0.1228
27738SOL     OW83791   8.907   4.876   8.498 -0.0258 -0.2426  0.3265
27738SOL    HW183792   8.861   4.798   8.530 -1.1043  1.1536  2.4821
27738SOL    HW283793   8.995   4.869   8.535  0.0796 -0.7309 -0.0109
27739SOL     OW83794   8.675   1.744   2.796  0.0111  0.3916  0.1323
27739SOL    HW183795   8.617   1.805   2.842 -0.2812 -0.5702  1.0704
27739SOL    HW283796   8.622   1.709   2.725  0.1482  1.1353 -0.3497
27740SOL     OW83797   2.057   7.644   8.077  0.1810  0.0070  0.2039
27740SOL    HW183798   1.972   7.612   8.046 -0.7493  1.9520  0.5983
27740SOL    HW283799   2.087   7.576   8.137  0.0060 -1.7873 -1.6472
27741SOL     OW83800   2.029   5.059   7.527 -0.2938 -0.1268 -0.6766
27741SOL    HW183801   2.032   5.055   7.431 -1.8520 -1.5901 -0.7116
27741SOL    HW283802   2.060   5.147   7.548  2.0320 -0.4221 -2.3887
27742SOL     OW83803   2.117   5.950   3.677  0.5975 -0.1964  0.4400
27742SOL    HW183804   2.069   6.033   3.677  1.2856  0.2651 -2.0703
27742SOL    HW283805   2.058   5.888   3.634  0.7709 -0.5831  0.7543
27743SOL     OW83806   1.378   9.822   5.615  0.3336  0.2357  0.0328
27743SOL    HW183807   1.430   9.757   5.568  0.7412  1.0954 -0.7222
27743SOL    HW283808   1.313   9.852   5.552 -0.1722  0.2048  0.5319
27744SOL     OW83809   2.696   0.804   5.497 -0.3404 -0.2272 -0.3809
27744SOL    HW183810   2.734   0.742   5.559 -0.2181 -0.2622 -0.4911
27744SOL    HW283811   2.655   0.749   5.430  0.6796 -0.1980 -1.0463
27745SOL     OW83812   6.218   4.976   2.396 -0.7099  0.2694 -0.0086
27745SOL    HW183813   6.163   4.924   2.337 -0.0033 -0.2533 -0.2303
27745SOL    HW283814   6.264   5.037   2.339  1.9313 -1.9422 -0.4399
27746SOL     OW83815   6.685   6.231   6.153  0.0030 -0.2319  0.1598
27746SOL    HW183816   6.650   6.146   6.130 -2.0947  0.5031  0.4074
27746SOL    HW283817   6.680   6.234   6.249  0.6190 -0.0429  0.1906
27747SOL     OW83818   5.163   6.474   5.749 -0.1489 -0.5800 -0.5763
27747SOL    HW183819   5.079   6.453   5.790 -0.3556 -1.2718 -1.3376
27747SOL    HW283820   5.199   6.389   5.724  0.5523 -0.2497 -0.7077
27748SOL     OW83821   0.172   7.289   3.377  0.5378  0.2033 -0.1358
27748SOL    HW183822   0.098   7.247   3.421  1.0975 -2.1466 -1.2626
27748SOL    HW283823   0.216   7.338   3.446  1.1125 -2.9267  1.9416
27749SOL     OW83824   2.965   9.094   6.309  0.3728  0.1864  0.0595
27749SOL    HW183825   2.932   9.180   6.336 -1.6965 -0.1263 -1.2422
27749SOL    HW283826   2.909   9.031   6.355 -0.8221 -0.3779 -2.0616
27750SOL     OW83827   6.732   2.307   8.503  0.3163  0.1719 -0.1163
27750SOL    HW183828   6.664   2.366   8.470  0.3404 -0.2789 -1.0256
27750SOL    HW283829   6.685   2.225   8.522  0.6409 -0.2504 -1.0684
27751SOL     OW83830   4.573   2.347   2.125  0.0822 -0.9861  0.2096
27751SOL    HW183831   4.561   2.375   2.034 -0.3063 -0.8949  0.2869
27751SOL    HW283832   4.506   2.396   2.174 -1.8573 -3.3215  0.1068
27752SOL     OW83833   0.484   4.769   2.683 -0.2221  0.3888 -0.9641
27752SOL    HW183834   0.470   4.858   2.713 -2.9279  0.2207 -1.4733
27752SOL    HW283835   0.478   4.774   2.587  0.1464 -0.2596 -1.0284
27753SOL     OW83836   6.829   5.440   6.254  0.3454  0.0907  0.1101
27753SOL    HW183837   6.824   5.345   6.243 -1.6265 -0.0403  1.5347
27753SOL    HW283838   6.802   5.475   6.169 -0.0521 -0.6371 -0.0753
27754SOL     OW83839   4.939   1.912   4.744  0.1172  0.1919  0.7521
27754SOL    HW183840   4.861   1.952   4.704 -1.3912 -1.3327  1.9856
27754SOL    HW283841   4.959   1.970   4.818 -0.7541 -0.1500  1.2754
27755SOL     OW83842   7.996   7.837   6.184 -0.6255  0.1694  0.3077
27755SOL    HW183843   7.948   7.879   6.255 -0.0281  0.4439  0.5633
27755SOL    HW283844   8.019   7.910   6.125 -1.8284 -0.1656 -0.6041
27756SOL     OW83845   4.389   3.860   9.172  0.6202  0.7504 -0.1766
27756SOL    HW183846   4.435   3.780   9.147 -0.8603  0.1231 -0.9851
27756SOL    HW283847   4.427   3.929   9.117 -0.4138 -0.0404 -1.9516
27757SOL     OW83848   6.995   7.798   0.712  0.9253  0.4148  0.5357
27757SOL    HW183849   6.942   7.746   0.773  1.4424 -2.0683 -1.0191
27757SOL    HW283850   6.971   7.889   0.732 -2.0355 -0.4723  1.6064
27758SOL     OW83851   8.500   1.071   2.190 -0.5139  0.2293  0.4060
27758SOL    HW183852   8.422   1.118   2.220 -1.8467 -2.2094  1.0349
27758SOL    HW283853   8.511   1.099   2.099 -2.3119  0.4317  0.2077
27759SOL     OW83854   9.794   6.624   0.874 -0.4161  0.4413 -0.4665
27759SOL    HW183855   9.746   6.555   0.829  0.0737  1.1305 -2.1353
27759SOL    HW283856   9.867   6.579   0.916 -2.2900 -0.5838  1.9212
27760SOL     OW83857   3.094   9.831   8.494  0.0138 -0.1559 -0.6916
27760SOL    HW183858   3.146   9.858   8.419 -0.4536  0.7561 -0.7096
27760SOL    HW283859   3.146   9.763   8.537  0.6234 -0.1562 -1.4200
27761SOL     OW83860   5.141   5.345   9.930 -0.8149 -0.1573 -0.1957
27761SOL    HW183861   5.050   5.335   9.901 -0.8971 -2.5924  0.6884
27761SOL    HW283862   5.193   5.311   9.858 -0.6995 -0.3333 -0.0300
27762SOL     OW83863   4.620   7.331   9.781 -0.0968  0.5287  0.0217
27762SOL    HW183864   4.623   7.377   9.697  1.1604  1.9354  0.8062
27762SOL    HW283865   4.544   7.368   9.826  0.0264  0.7472  0.0486
27763SOL     OW83866   2.309   6.871   8.087  0.0957  0.8075  0.5148
27763SOL    HW183867   2.284   6.800   8.029  1.3576  0.0051  0.8974
27763SOL    HW283868   2.397   6.896   8.058 -0.3060  2.1823  0.4244
27764SOL     OW83869   6.493   8.469   9.906  0.0227  0.1604  0.3572
27764SOL    HW183870   6.489   8.549   9.854 -2.4318 -0.1935 -0.1539
27764SOL    HW283871   6.542   8.407   9.852 -0.3562  0.5515 -0.4523
27765SOL     OW83872   9.553   8.662   9.292  0.5963 -0.4023  0.2072
27765SOL    HW183873   9.643   8.692   9.280  0.1428  1.2960  0.7761
27765SOL    HW283874   9.540   8.598   9.222  1.7532  0.4481 -0.8379
27766SOL     OW83875   4.572   2.802   4.702 -0.2720  0.2388  0.0802
27766SOL    HW183876   4.608   2.806   4.790 -0.0148 -1.8828  0.1268
27766SOL    HW283877   4.477   2.811   4.714 -0.4026 -1.5718  0.8004
27767SOL     OW83878   9.745   8.870   4.559  0.3788  0.5196 -0.1914
27767SOL    HW183879   9.805   8.871   4.633 -0.3292 -0.3613  0.4191
27767SOL    HW283880   9.802   8.874   4.482  1.2322 -0.3425  0.3738
27768SOL     OW83881   6.324   8.555   2.740  0.2056  0.0510 -0.2107
27768SOL    HW183882   6.250   8.530   2.796  0.0070  1.3014  0.1100
27768SOL    HW283883   6.360   8.471   2.709 -1.3926 -0.5724 -0.4590
27769SOL     OW83884   8.008   8.068   9.955 -0.3409 -0.5146  0.2741
27769SOL    HW183885   7.937   8.039   9.897 -1.3304  1.7219  0.2592
27769SOL    HW283886   7.979   8.043  10.043 -0.1349 -1.4615  0.0823
27770SOL     OW83887   1.167   8.626   3.249  0.0259 -0.3307  0.5457
27770SOL    HW183888   1.151   8.566   3.322 -0.2884  1.5848  2.1321
27770SOL    HW283889   1.080   8.641   3.212  0.2565 -1.7576 -0.6567
27771SOL     OW83890   7.462   4.374   9.833 -0.0616 -0.0884  0.0574
27771SOL    HW183891   7.497   4.285   9.836 -2.0576 -0.9218  3.9954
27771SOL    HW283892   7.386   4.368   9.775 -0.5669 -1.1266  0.8106
27772SOL     OW83893   4.826   9.796   3.536 -0.2297 -0.4981 -0.3562
27772SOL    HW183894   4.848   9.712   3.577 -0.1774 -0.0662  0.5390
27772SOL    HW283895   4.853   9.862   3.601  0.6773  0.2616 -1.4656
27773SOL     OW83896   5.742   8.426   3.377  0.1917 -0.2310  0.2564
27773SOL    HW183897   5.685   8.378   3.437  0.3416  1.2623  1.6754
27773SOL    HW283898   5.831   8.408   3.410  0.3278 -0.0247  0.0013
27774SOL     OW83899   7.045   4.060   4.636 -0.0715 -0.4576  0.4723
27774SOL    HW183900   7.116   4.118   4.662 -1.6435  1.1035  1.5412
27774SOL    HW283901   7.051   4.055   4.541 -0.4785  2.3381  0.2336
27775SOL     OW83902   5.988   9.195   6.533  0.2425  0.2753  0.2423
27775SOL    HW183903   6.077   9.205   6.498  0.2590  1.1711  0.5167
27775SOL    HW283904   6.000   9.169   6.624  0.2235  0.6486  0.3503
27776SOL     OW83905   1.271   4.645   7.118  0.4429 -0.4597 -0.8638
27776SOL    HW183906   1.293   4.552   7.114  1.6126 -0.2372 -0.0534
27776SOL    HW283907   1.314   4.683   7.041 -0.8627 -0.7241 -1.7550
27777SOL     OW83908   3.376   1.519   4.336  0.8368 -0.2737  0.2035
27777SOL    HW183909   3.351   1.443   4.388  0.0065  0.4882  0.9660
27777SOL    HW283910   3.293   1.552   4.300  1.0485  0.8181  0.6773
27778SOL     OW83911   2.701   5.166   3.603 -0.3031  0.0605  0.5463
27778SOL    HW183912   2.688   5.082   3.647  2.5982 -0.8633 -0.1747
27778SOL    HW283913   2.691   5.231   3.673 -1.7681 -0.9016  1.2758
27779SOL     OW83914   1.744   4.807   9.609 -0.5442 -0.0435  0.1012
27779SOL    HW183915   1.686   4.828   9.536 -0.1033  0.8513 -0.0082
27779SOL    HW283916   1.756   4.891   9.655  0.6879 -0.1995  0.0931
27780SOL     OW83917   8.642   5.617   8.733  0.4467  0.5248  0.6559
27780SOL    HW183918   8.649   5.528   8.768 -2.8438 -0.7895 -1.5316
27780SOL    HW283919   8.707   5.620   8.662  1.1527  0.1967  1.2754
27781SOL     OW83920   9.803   0.526   5.769 -0.1449  0.3268  0.0614
27781SOL    HW183921   9.887   0.482   5.782  0.8936  2.0310 -0.4868
27781SOL    HW283922   9.775   0.548   5.858 -0.8786 -1.6975  0.3742
27782SOL     OW83923   7.661   7.271   5.083 -0.0317 -0.2005 -0.0868
27782SOL    HW183924   7.615   7.355   5.093 -0.2438 -0.3273 -0.0000
27782SOL    HW283925   7.630   7.236   5.000  0.6674  0.1860 -0.5263
27783SOL     OW83926   6.148   2.922   5.995  0.2539 -0.0113  0.1040
27783SOL    HW183927   6.158   2.830   5.968 -0.0255  0.3493 -1.3421
27783SOL    HW283928   6.086   2.919   6.068  0.3535 -0.9859  0.1657
27784SOL     OW83929   1.609   3.590   9.773  0.2930 -0.0252 -0.2923
27784SOL    HW183930   1.564   3.517   9.817 -0.9143  0.1199 -1.2219
27784SOL    HW283931   1.567   3.668   9.809 -0.4910  0.1023 -1.4385
27785SOL     OW83932   0.862   1.380   8.112 -0.3630  0.2187  0.7150
27785SOL    HW183933   0.821   1.399   8.197  0.9024  0.6730  1.2368
27785SOL    HW283934   0.944   1.429   8.113 -0.9703  1.3815 -1.3649
27786SOL     OW83935   7.748   1.307   5.389  0.1472 -0.3822  0.1245
27786SOL    HW183936   7.770   1.386   5.340  0.1487  0.9417  2.1571
27786SOL    HW283937   7.686   1.261   5.332 -2.3019  2.6174  0.0729
27787SOL     OW83938   9.542   5.188   1.763 -0.3677  0.0895  0.0681
27787SOL    HW183939   9.620   5.237   1.739  0.2762 -0.2706  1.3349
27787SOL    HW283940   9.510   5.152   1.680  1.2952 -0.4655 -0.3700
27788SOL     OW83941   6.417   8.010   8.350  0.0243 -0.4341 -0.4181
27788SOL    HW183942   6.463   7.954   8.412  0.3303  1.0742  0.7734
27788SOL    HW283943   6.336   7.964   8.331  0.4657 -1.4808  0.1640
27789SOL     OW83944   0.986   1.758   9.874  0.3236  0.4728 -0.2331
27789SOL    HW183945   1.042   1.791   9.945  0.6526 -0.4053 -0.0718
27789SOL    HW283946   0.928   1.696   9.917 -0.6465  1.2034 -0.4391
27790SOL     OW83947   2.057   9.113   2.561  0.1827  0.0986 -0.0643
27790SOL    HW183948   2.116   9.087   2.490 -2.7806 -2.5359 -1.8438
27790SOL    HW283949   2.060   9.039   2.622  1.0718  1.4096  1.5863
27791SOL     OW83950   7.682   0.564   5.313 -0.3971  0.0303 -0.0301
27791SOL    HW183951   7.604   0.615   5.295 -0.6632  0.2311  1.5831
27791SOL    HW283952   7.725   0.555   5.228 -2.0351  0.1117 -0.9077
27792SOL     OW83953   1.628   9.774   4.821  0.5387  0.4454  0.3787
27792SOL    HW183954   1.546   9.737   4.787  1.4981 -1.5518  0.1221
27792SOL    HW283955   1.645   9.725   4.901  1.6143  0.6569  0.2879
27793SOL     OW83956   9.074   4.309   9.758  0.4481  0.3054  0.3900
27793SOL    HW183957   9.076   4.214   9.759 -0.4771  0.2760  0.1985
27793SOL    HW283958   9.075   4.333   9.666 -0.0348  0.4589  0.4236
27794SOL     OW83959   7.714   7.719   3.533 -0.5760  0.1339 -0.0002
27794SOL    HW183960   7.803   7.736   3.503 -0.2979 -0.7421  0.2959
27794SOL    HW283961   7.662   7.713   3.453  0.0852 -1.7825 -0.3315
27795SOL     OW83962   0.482   7.056   0.660 -0.0011 -0.1093  0.4279
27795SOL    HW183963   0.399   7.104   0.659 -0.6253 -1.1748  0.2524
27795SOL    HW283964   0.460   6.971   0.698  0.9041 -0.5922 -0.0987
27796SOL     OW83965   6.436   7.298   2.199 -0.7970  0.1031 -0.4212
27796SOL    HW183966   6.521   7.255   2.203 -0.6233  0.4710  2.8996
27796SOL    HW283967   6.373   7.227   2.186 -0.2274 -0.7308  1.0938
27797SOL     OW83968   0.550   4.799   9.652  0.4726  0.3587 -0.6838
27797SOL    HW183969   0.587   4.767   9.570  1.7234  1.2748 -0.5059
27797SOL    HW283970   0.624   4.837   9.699 -0.4105  0.7844  0.4236
27798SOL     OW83971   6.509   5.155   5.450 -0.2149 -0.0950  0.0643
27798SOL    HW183972   6.468   5.197   5.526  1.0931 -1.1365  1.4069
27798SOL    HW283973   6.602   5.156   5.470  0.4547  1.7844 -2.6844
27799SOL     OW83974   5.524   5.809   5.945 -0.2149  0.1877  0.3863
27799SOL    HW183975   5.467   5.757   6.001  0.7990 -0.7683  0.5541
27799SOL    HW283976   5.613   5.787   5.973  0.4044 -1.2354 -2.3061
27800SOL     OW83977   5.374   8.515   3.649 -0.4266  0.0280 -0.1901
27800SOL    HW183978   5.309   8.451   3.676 -0.2711 -0.1232 -0.1725
27800SOL    HW283979   5.376   8.579   3.720 -1.6508  0.8570 -0.8741
27801SOL     OW83980   7.591   5.788   0.649  0.4503  0.4796 -0.2194
27801SOL    HW183981   7.654   5.835   0.595  0.1906  0.4877 -0.5127
27801SOL    HW283982   7.567   5.850   0.717  1.1503  0.3045  0.2062
27802SOL     OW83983   4.004   4.860   7.108 -0.3833  0.1278  0.0108
27802SOL    HW183984   4.087   4.820   7.083 -0.3767  0.4617 -0.4981
27802SOL    HW283985   4.019   4.894   7.196  0.6779  2.0738 -0.8822
27803SOL     OW83986   2.110   2.209   9.811  0.2794 -0.2616  0.2087
27803SOL    HW183987   2.149   2.136   9.763 -0.8837 -1.3799  0.9013
27803SOL    HW283988   2.184   2.251   9.855  1.1533 -0.1531 -1.2766
27804SOL     OW83989   6.983   3.148   4.178 -0.2503  0.0315 -0.3822
27804SOL    HW183990   7.001   3.094   4.255  0.2021 -0.7410 -1.0004
27804SOL    HW283991   7.026   3.231   4.196 -0.0694 -0.1749  0.1582
27805SOL     OW83992   2.345   2.286   6.321  0.5059 -0.4654 -0.9700
27805SOL    HW183993   2.292   2.364   6.305 -1.3128 -1.4092  0.0992
27805SOL    HW283994   2.373   2.294   6.412  0.2789 -1.0445 -0.8407
27806SOL     OW83995   8.538   1.917   6.294 -0.0348  0.0372 -0.2391
27806SOL    HW183996   8.501   2.005   6.304 -2.0891 -0.8166  0.0470
27806SOL    HW283997   8.584   1.902   6.376  1.9302  1.5000 -0.9842
27807SOL     OW83998   7.385   7.127   6.484 -0.6893 -0.3843 -0.3162
27807SOL    HW183999   7.350   7.195   6.542 -0.0227  0.4900 -0.8963
27807SOL    HW284000   7.315   7.110   6.421 -1.3582 -1.2257  0.6343
27808SOL     OW84001   5.746   0.568   2.422 -0.0300  0.3418 -0.9443
27808SOL    HW184002   5.660   0.596   2.454  0.8878  0.1230  2.0325
27808SOL    HW284003   5.729   0.485   2.378 -1.3600  0.3388 -0.4939
27809SOL     OW84004   1.461   0.685   5.283 -0.2203 -0.1798 -0.0273
27809SOL    HW184005   1.515   0.702   5.360 -1.8220 -1.4357  1.4559
27809SOL    HW284006   1.505   0.613   5.238 -0.3437 -0.8415  0.8777
27810SOL     OW84007   7.344   8.381   5.051  0.2115 -0.3104 -0.0367
27810SOL    HW184008   7.363   8.400   4.959 -0.8622 -1.0900 -0.4381
27810SOL    HW284009   7.391   8.299   5.069  0.1026 -0.3639  0.0019
27811SOL     OW84010   0.433   9.801   4.705 -0.3687 -0.1875  0.2470
27811SOL    HW184011   0.450   9.811   4.611  1.8439 -0.3423  0.5883
27811SOL    HW284012   0.411   9.889   4.735 -1.1501 -0.1476 -0.3939
27812SOL     OW84013   2.635   1.519   4.860 -0.5644 -0.0724 -0.4223
27812SOL    HW184014   2.613   1.565   4.779  0.6235  1.5880  0.1611
27812SOL    HW284015   2.580   1.560   4.927  0.1858  0.2167  0.0265
27813SOL     OW84016   1.782   4.331   1.597 -0.2163  0.1001  0.4694
27813SOL    HW184017   1.783   4.309   1.690 -1.3464 -0.4223  0.3781
27813SOL    HW284018   1.856   4.390   1.585  0.6524 -0.7522  1.4620
27814SOL     OW84019   7.852   0.407   0.468  0.5407 -0.0739 -0.3850
27814SOL    HW184020   7.774   0.389   0.416  0.2746 -1.3163  0.3848
27814SOL    HW284021   7.878   0.321   0.501  0.9431  0.6122  1.1627
27815SOL     OW84022   5.713   0.519   7.145 -0.0053  0.2506  0.4450
27815SOL    HW184023   5.804   0.523   7.174  0.0832 -1.5264  0.4939
27815SOL    HW284024   5.662   0.555   7.218  0.5065 -0.6881  1.2798
27816SOL     OW84025   8.210   9.879   8.170  0.4518 -0.1987 -0.1301
27816SOL    HW184026   8.215   9.946   8.102  2.1862 -1.8178 -1.7291
27816SOL    HW284027   8.289   9.894   8.223  0.7917 -0.8804 -0.4333
27817SOL     OW84028   5.751   5.736   9.874  0.5026 -0.1080  0.6230
27817SOL    HW184029   5.660   5.712   9.887  0.4515 -0.5757 -0.4496
27817SOL    HW284030   5.799   5.686   9.940  0.2196 -1.9415 -0.4882
27818SOL     OW84031   8.764   1.349   6.856 -0.1441  0.5061  0.0648
27818SOL    HW184032   8.668   1.340   6.855 -0.1206  0.2666 -0.4900
27818SOL    HW284033   8.796   1.262   6.832  0.1868  0.8622 -0.8310
27819SOL     OW84034   1.585   9.425   9.766 -0.3653  0.0355  0.1540
27819SOL    HW184035   1.673   9.462   9.759  0.3645 -1.3070  1.6671
27819SOL    HW284036   1.571   9.411   9.859 -0.5364 -3.4567 -0.2581
27820SOL     OW84037   0.190   9.154   0.607  0.2033 -0.0411  0.1858
27820SOL    HW184038   0.264   9.109   0.648 -0.3836 -0.0308  1.2737
27820SOL    HW284039   0.203   9.138   0.513  0.5352 -1.6861  0.4688
27821SOL     OW84040   6.118   0.767   9.318 -0.3580 -0.3550 -0.1502
27821SOL    HW184041   6.056   0.827   9.359  1.5252  0.7049  1.3026
27821SOL    HW284042   6.157   0.719   9.391 -0.1260 -1.6898 -1.1150
27822SOL     OW84043   6.395   6.065   3.448 -0.4420 -0.0680 -0.5920
27822SOL    HW184044   6.482   6.037   3.420  1.4375  2.8619  1.6346
27822SOL    HW284045   6.373   6.138   3.389 -0.2016  0.7974  0.3611
27823SOL     OW84046   3.115   0.102   4.989  0.2358 -0.5549  0.0160
27823SOL    HW184047   3.055   0.062   5.051  0.3180 -0.2710  0.2818
27823SOL    HW284048   3.071   0.181   4.960  0.8580  0.1530  0.9212
27824SOL     OW84049   1.819   2.478   2.911 -0.1602 -0.8608  0.3641
27824SOL    HW184050   1.753   2.436   2.967 -2.6533  1.9034 -0.2749
27824SOL    HW284051   1.787   2.466   2.822  0.9349 -0.5957 -0.0863
27825SOL     OW84052   8.420   9.498   8.160  0.8618  0.3924  0.4317
27825SOL    HW184053   8.394   9.413   8.195 -1.3425  1.0951  0.6270
27825SOL    HW284054   8.426   9.554   8.237  0.8841  0.7680  0.1575
27826SOL     OW84055   3.372   5.474   2.972  0.5443 -0.8059 -0.1611
27826SOL    HW184056   3.319   5.394   2.965  1.0003 -1.0666 -0.8277
27826SOL    HW284057   3.360   5.504   3.062  0.7714 -1.9181  0.2554
27827SOL     OW84058   7.714   3.426   6.426 -0.1476  0.1102 -0.1496
27827SOL    HW184059   7.761   3.354   6.383  0.6653  0.6803 -0.2335
27827SOL    HW284060   7.761   3.505   6.400 -1.7526  0.8241 -1.0564
27828SOL     OW84061   7.144   0.287   8.619 -0.6711 -1.0282 -0.2095
27828SOL    HW184062   7.093   0.303   8.540  1.2026 -1.0983 -1.5035
27828SOL    HW284063   7.204   0.361   8.624  0.6346 -2.0676 -0.0587
27829SOL     OW84064   9.483   6.870   3.356  0.2891 -0.1353  0.1696
27829SOL    HW184065   9.410   6.927   3.333 -1.0683 -1.7949  0.1885
27829SOL    HW284066   9.525   6.849   3.272 -1.2082 -1.6624 -0.2515
27830SOL     OW84067   5.153   3.147   2.314 -0.2917  0.1457 -0.3009
27830SOL    HW184068   5.223   3.082   2.318 -0.8167 -0.4526 -0.6472
27830SOL    HW284069   5.176   3.211   2.381 -0.4214 -1.0623  0.9404
27831SOL     OW84070   1.570   0.737   3.510  0.5455 -0.2475  0.0202
27831SOL    HW184071   1.560   0.728   3.604 -0.3958  1.2688  0.1003
27831SOL    HW284072   1.482   0.725   3.475  0.6441  0.5212 -0.5261
27832SOL     OW84073   0.426   0.740   7.669 -0.9644  0.5884 -0.8105
27832SOL    HW184074   0.514   0.727   7.635 -1.3633  0.2235 -1.7109
27832SOL    HW284075   0.406   0.832   7.650 -0.5516  0.8415 -0.0550
27833SOL     OW84076   1.308   5.984   7.841  0.5794  0.2676  0.3041
27833SOL    HW184077   1.216   5.963   7.827  1.1099 -0.5865 -2.5367
27833SOL    HW284078   1.356   5.924   7.785  2.7352  2.4045 -0.3551
27834SOL     OW84079   5.287   2.638   7.072 -0.5814  0.3940 -0.2884
27834SOL    HW184080   5.308   2.708   7.010 -2.5945 -0.3577 -1.9543
27834SOL    HW284081   5.288   2.558   7.019  1.3312 -0.8528  1.4870
27835SOL     OW84082   6.810   4.713   7.276 -0.6878 -0.2997  0.0720
27835SOL    HW184083   6.830   4.740   7.186 -0.8199 -0.0507  0.1164
27835SOL    HW284084   6.890   4.733   7.325 -0.1570 -1.5999 -0.2297
27836SOL     OW84085   9.200   4.984   1.169  0.0958  0.4912 -0.4637
27836SOL    HW184086   9.123   5.019   1.214  0.2299  0.0440  0.1375
27836SOL    HW284087   9.176   4.984   1.077 -0.8253 -0.0951 -0.2400
27837SOL     OW84088   3.919   9.343   7.750 -0.1889  0.4380  0.1876
27837SOL    HW184089   3.856   9.398   7.703 -0.4465 -1.1237 -1.3660
27837SOL    HW284090   4.004   9.371   7.718 -0.3182 -0.0549 -0.5954
27838SOL     OW84091   2.085   6.612   1.472  0.3168 -0.0707 -0.2211
27838SOL    HW184092   2.125   6.650   1.550  1.5000 -2.7008  0.5434
27838SOL    HW284093   2.125   6.660   1.399 -2.8138  4.4023  0.5662
27839SOL     OW84094   6.776   2.776   9.692 -0.1905  0.4295 -0.0899
27839SOL    HW184095   6.689   2.768   9.655 -0.0142 -0.8665 -0.2389
27839SOL    HW284096   6.765   2.837   9.765 -0.9620  1.2490 -0.8653
27840SOL     OW84097   8.329   5.059   7.182  0.0489 -0.8060  0.7430
27840SOL    HW184098   8.296   5.059   7.092 -0.2374 -1.0015  0.8466
27840SOL    HW284099   8.320   4.968   7.211  1.9407 -1.1768  0.3278
27841SOL     OW84100   1.506   2.924   9.228  0.2432 -0.0991  0.3326
27841SOL    HW184101   1.436   2.990   9.226 -1.2562 -1.5967  0.8862
27841SOL    HW284102   1.503   2.883   9.142 -0.5798 -1.1489  0.8438
27842SOL     OW84103   9.225   7.964   2.669  0.1500  0.0205  0.2174
27842SOL    HW184104   9.209   7.968   2.575 -1.1227  3.1835  0.4644
27842SOL    HW284105   9.140   7.939   2.706  0.5594 -0.8660  0.6093
27843SOL     OW84106   2.855   9.450   7.116 -0.2176 -0.4020  0.2378
27843SOL    HW184107   2.868   9.467   7.210 -0.4819 -1.4676  0.4949
27843SOL    HW284108   2.940   9.419   7.085  0.4951  2.0431 -0.4190
27844SOL     OW84109   7.109   6.311   3.721 -0.0058  0.2791  0.1093
27844SOL    HW184110   7.101   6.228   3.768 -2.4784  0.7547  0.6645
27844SOL    HW284111   7.142   6.287   3.635  1.3809 -1.0060  0.9645
27845SOL     OW84112   0.340   3.023   6.041 -0.2125 -0.3911  0.1748
27845SOL    HW184113   0.340   2.951   6.104 -1.3621 -0.4867  0.0887
27845SOL    HW284114   0.283   3.089   6.080 -0.2035 -0.0729 -0.3424
27846SOL     OW84115   6.510   0.211   7.322  0.4447  0.0188 -0.5444
27846SOL    HW184116   6.533   0.148   7.390 -1.7762  0.8353  1.1163
27846SOL    HW284117   6.540   0.295   7.356  2.2816  0.0702 -2.1711
27847SOL     OW84118   2.888   8.456   3.867 -0.4630  0.0709 -0.6384
27847SOL    HW184119   2.925   8.397   3.933  0.9348  1.3876 -0.2031
27847SOL    HW284120   2.798   8.472   3.897 -0.3637 -0.6276  0.0476
27848SOL     OW84121   3.231   9.902   1.735 -0.2285 -0.3265 -0.1035
27848SOL    HW184122   3.165   9.894   1.666  0.1373  0.7057 -0.5959
27848SOL    HW284123   3.314   9.882   1.692 -0.1130 -0.6988  0.2873
27849SOL     OW84124   7.295   4.379   8.579 -0.3521  0.3841 -0.5020
27849SOL    HW184125   7.359   4.354   8.646  0.6153  1.2996 -1.0650
27849SOL    HW284126   7.307   4.473   8.568 -1.0200  0.3741 -1.4166
27850SOL     OW84127   0.529   5.787   9.176  0.0970 -0.0125 -0.0980
27850SOL    HW184128   0.538   5.844   9.100 -0.5638 -0.6115 -0.6447
27850SOL    HW284129   0.470   5.717   9.147 -0.7544  0.1378  1.1895
27851SOL     OW84130   9.869   5.001   7.366  1.0661  0.3149 -0.1037
27851SOL    HW184131   9.823   5.084   7.358 -1.6955 -1.2720 -2.2693
27851SOL    HW284132   9.834   4.962   7.446  0.6851  0.2834 -0.2855
27852SOL     OW84133   2.959   8.676   1.630 -0.8310 -0.1952 -0.1294
27852SOL    HW184134   2.959   8.729   1.710 -0.9818  0.8114 -0.7818
27852SOL    HW284135   2.868   8.648   1.619 -1.0248  0.5608 -0.5153
27853SOL     OW84136   7.316   3.059   6.693  0.2273  0.7297 -0.0848
27853SOL    HW184137   7.327   3.154   6.706 -1.4835  1.2270 -1.7248
27853SOL    HW284138   7.222   3.045   6.701  0.3547 -0.6789 -0.8391
27854SOL     OW84139   1.292   1.156   8.488  0.7275 -0.6775  0.4430
27854SOL    HW184140   1.383   1.179   8.471  0.9007 -1.3013  0.5056
27854SOL    HW284141   1.294   1.063   8.510  0.1568 -0.5563  1.0602
27855SOL     OW84142   3.357   7.596   8.875  0.1812  0.7122  0.3777
27855SOL    HW184143   3.398   7.543   8.807  1.8793  0.5008  1.5061
27855SOL    HW284144   3.268   7.611   8.844  0.5754 -0.3159 -1.3428
27856SOL     OW84145   6.037   2.357   1.265 -0.6100 -0.7432 -0.1396
27856SOL    HW184146   6.077   2.271   1.252 -1.1058 -0.9514 -0.3189
27856SOL    HW284147   6.100   2.405   1.318 -0.9152 -1.6859  1.1383
27857SOL     OW84148   4.386   3.181   3.968  0.5113  0.2470  0.2290
27857SOL    HW184149   4.475   3.212   3.983  1.5252 -1.6449 -1.5562
27857SOL    HW284150   4.370   3.195   3.875 -0.3661 -1.1365  0.1425
27858SOL     OW84151   2.415   8.034   6.884 -0.1493 -0.0185  0.4329
27858SOL    HW184152   2.498   8.073   6.912 -1.3256  3.1492 -0.1054
27858SOL    HW284153   2.371   8.009   6.965  0.1148  1.0517  0.9245
27859SOL     OW84154   2.992   8.925   7.652 -0.1327 -0.3407 -0.2213
27859SOL    HW184155   2.971   8.868   7.579 -1.9883  0.1304 -0.0929
27859SOL    HW284156   3.052   8.990   7.615  1.3334 -1.8075 -0.5619
27860SOL     OW84157   9.604   4.161   6.928 -0.2197 -0.0731  0.3478
27860SOL    HW184158   9.586   4.142   7.020  1.5640  1.4004  1.0602
27860SOL    HW284159   9.528   4.126   6.881 -0.4018 -2.3822  2.1726
27861SOL     OW84160   8.474   2.886   6.465  0.4160  0.1939 -0.2582
27861SOL    HW184161   8.403   2.827   6.488  0.4331  0.0167 -0.6703
27861SOL    HW284162   8.431   2.969   6.445  0.2637 -0.1184 -1.2376
27862SOL     OW84163   9.042   6.238   6.333 -0.2445  0.2962  0.0453
27862SOL    HW184164   8.947   6.234   6.342 -0.1545  0.3651  1.0969
27862SOL    HW284165   9.056   6.271   6.244 -1.1657 -1.9688 -1.0181
27863SOL     OW84166   1.638   7.198   2.092 -0.9316 -1.0210  0.1739
27863SOL    HW184167   1.635   7.107   2.122  1.5823 -1.3596 -0.3737
27863SOL    HW284168   1.661   7.191   1.999  0.4282  0.1373  0.3839
27864SOL     OW84169   7.912   5.972   8.242  0.3601 -0.4261 -0.8278
27864SOL    HW184170   7.919   6.044   8.180  0.2444  0.3902  0.0853
27864SOL    HW284171   7.938   6.010   8.326 -0.0218 -1.3557 -0.2712
27865SOL     OW84172   5.046   9.765   8.813  0.2510  0.1316  0.0994
27865SOL    HW184173   4.954   9.764   8.841 -0.3271  0.4684 -1.6244
27865SOL    HW284174   5.096   9.763   8.894 -1.2916  1.7287  1.1808
27866SOL     OW84175   2.436   7.068   9.144 -0.2012  0.0733 -0.0472
27866SOL    HW184176   2.449   7.122   9.222 -0.5979 -1.4355  1.1228
27866SOL    HW284177   2.412   6.982   9.178  0.0257 -0.7589 -1.8432
27867SOL     OW84178   3.000   1.472   6.683 -0.0666  0.0863  0.0096
27867SOL    HW184179   2.984   1.526   6.760 -0.1162  0.2144 -0.0909
27867SOL    HW284180   3.074   1.416   6.707  1.7696  2.0425 -0.8196
27868SOL     OW84181   4.577   7.225   6.888  0.5011  0.1355  0.3400
27868SOL    HW184182   4.668   7.198   6.871 -0.0811 -0.8375 -1.5715
27868SOL    HW284183   4.544   7.252   6.802 -1.6271 -1.5318  0.5491
27869SOL     OW84184   7.791   8.515   3.180  0.3058  0.0106  0.1270
27869SOL    HW184185   7.799   8.544   3.271  0.3819 -0.9063  0.4223
27869SOL    HW284186   7.776   8.421   3.186 -2.3366  0.2942 -0.6978
27870SOL     OW84187   6.438   8.770   8.052 -0.0880  0.0789  0.1160
27870SOL    HW184188   6.443   8.824   8.130 -1.5045 -0.1852  0.4064
27870SOL    HW284189   6.430   8.680   8.085 -0.9001 -0.0147 -0.3236
27871SOL     OW84190   2.891   9.183   7.723 -0.5747  0.4844  0.2505
27871SOL    HW184191   2.940   9.232   7.789  0.3921  1.0783 -0.8598
27871SOL    HW284192   2.926   9.094   7.727  0.6527  0.9012 -0.5279
27872SOL     OW84193   1.534   1.027   7.954  0.9461 -0.1064 -0.5070
27872SOL    HW184194   1.458   1.085   7.945 -0.1841 -1.5348 -0.6654
27872SOL    HW284195   1.515   0.954   7.894  1.5511 -1.3965  0.8109
27873SOL     OW84196   2.709   5.903   9.379  0.1319  0.7443  0.0612
27873SOL    HW184197   2.728   5.810   9.387 -2.3181 -0.0057 -1.5350
27873SOL    HW284198   2.711   5.920   9.285  0.1376  2.2062  0.3021
27874SOL     OW84199   2.817   5.836   0.314 -0.5548 -0.9903  0.4699
27874SOL    HW184200   2.774   5.906   0.265  0.7382  0.2645  1.0795
27874SOL    HW284201   2.865   5.787   0.247 -2.6952 -2.3140 -0.1968
27875SOL     OW84202   9.179   5.111   6.832  0.8841  0.2676 -0.4567
27875SOL    HW184203   9.227   5.187   6.863  0.1895  0.3130  0.5377
27875SOL    HW284204   9.221   5.037   6.876  1.0686  0.1367 -0.8405
27876SOL     OW84205   0.600   2.590   0.880 -0.7614 -0.2340  0.1071
27876SOL    HW184206   0.504   2.582   0.882 -0.7377 -0.5166  0.1881
27876SOL    HW284207   0.628   2.529   0.812 -0.7720  1.3629 -1.3873
27877SOL     OW84208   0.604   8.459   6.423  0.2623  0.0430  0.1616
27877SOL    HW184209   0.676   8.511   6.458  1.0739 -0.5718 -0.5245
27877SOL    HW284210   0.536   8.462   6.490  1.0417  0.3973  0.9484
27878SOL     OW84211   2.743   7.249   1.395 -0.0908 -0.1126  0.3063
27878SOL    HW184212   2.736   7.308   1.320 -1.7418  1.0282  1.2917
27878SOL    HW284213   2.831   7.265   1.429  0.6157 -0.5074 -1.2280
27879SOL     OW84214   1.956   6.983   7.953 -0.2197  0.4337 -0.0024
27879SOL    HW184215   1.908   6.904   7.927 -0.7215 -0.1435  2.4139
27879SOL    HW284216   1.900   7.055   7.924 -1.0896 -0.1780  0.0950
27880SOL     OW84217   7.216   3.153   1.439 -0.6691 -0.4833 -0.1234
27880SOL    HW184218   7.172   3.208   1.503 -2.3857  0.8058 -2.2966
27880SOL    HW284219   7.157   3.151   1.364  0.8221 -2.7016 -1.3486
27881SOL     OW84220   2.369   6.228   7.214  0.1826 -0.0533  0.2825
27881SOL    HW184221   2.290   6.228   7.161 -0.1622  1.0022  0.7537
27881SOL    HW284222   2.438   6.200   7.155 -0.0387  1.8850 -0.9865
27882SOL     OW84223   8.599   1.214   1.063 -0.0710  0.9465  0.5219
27882SOL    HW184224   8.580   1.197   0.971  0.7585  2.8778 -0.0648
27882SOL    HW284225   8.687   1.179   1.076 -1.2453 -1.9846  1.4521
27883SOL     OW84226   1.623   8.153   8.083 -0.5025  0.4121 -0.4842
27883SOL    HW184227   1.577   8.201   8.015 -3.6031 -1.9464 -0.2834
27883SOL    HW284228   1.582   8.182   8.165 -1.8488 -1.7384 -0.2988
27884SOL     OW84229   4.000   0.205   0.049 -0.3346 -0.0983 -0.2814
27884SOL    HW184230   3.926   0.226  -0.008 -1.1250 -1.8228  0.0701
27884SOL    HW284231   4.013   0.111   0.038  0.8456 -0.0827  0.8202
27885SOL     OW84232   5.428   1.730   4.532  0.4437 -0.0065  0.4973
27885SOL    HW184233   5.362   1.762   4.594  0.8258 -0.1074  0.9691
27885SOL    HW284234   5.428   1.793   4.461 -2.1885 -1.4844 -0.9501
27886SOL     OW84235   4.614   6.294   3.021  1.5808  0.8023 -0.2461
27886SOL    HW184236   4.574   6.235   3.085  0.4975  1.5871 -0.1669
27886SOL    HW284237   4.706   6.268   3.018  1.0678 -1.1456 -0.5045
27887SOL     OW84238   8.666   6.032   2.333  0.1174  0.5880 -0.2972
27887SOL    HW184239   8.756   6.066   2.329 -0.2851  1.5952 -1.4175
27887SOL    HW284240   8.667   5.955   2.276  0.3512  0.3843 -0.0209
27888SOL     OW84241   0.141   0.138   8.160 -0.1848  0.8506 -0.8554
27888SOL    HW184242   0.206   0.111   8.095 -0.4005  0.9783 -1.1266
27888SOL    HW284243   0.178   0.111   8.244  0.9264  2.2519 -0.8592
27889SOL     OW84244   6.866   7.282   7.597  0.9545  0.3646  0.4522
27889SOL    HW184245   6.887   7.241   7.681  0.4246 -1.9394 -0.4622
27889SOL    HW284246   6.825   7.212   7.546 -1.2310  2.3842 -0.7885
27890SOL     OW84247   0.245   0.533   1.691 -0.5571 -0.1217 -0.1589
27890SOL    HW184248   0.159   0.492   1.700  0.5509 -2.8896 -1.1325
27890SOL    HW284249   0.294   0.504   1.769 -0.1327  0.3658 -0.2392
27891SOL     OW84250   0.762   9.126   7.501 -0.1612 -0.2545 -0.0657
27891SOL    HW184251   0.763   9.212   7.542  0.7893  1.3169 -3.0855
27891SOL    HW284252   0.829   9.076   7.548  0.4413  1.2015  0.7020
27892SOL     OW84253   8.540   0.313   8.128 -0.2112 -0.2813  0.0333
27892SOL    HW184254   8.525   0.400   8.163  1.2636  0.0447 -0.0582
27892SOL    HW284255   8.626   0.288   8.162  1.7272  0.3615 -3.8130
27893SOL     OW84256   0.814   3.185   3.114 -0.0464 -0.4097  0.1627
27893SOL    HW184257   0.824   3.134   3.034 -0.4977 -1.9414  1.0284
27893SOL    HW284258   0.858   3.268   3.096  2.0489 -1.6577 -0.8301
27894SOL     OW84259   1.809   4.534   3.012  0.4296  0.0386 -0.5361
27894SOL    HW184260   1.819   4.463   3.075 -0.9925  0.3020  0.0267
27894SOL    HW284261   1.876   4.597   3.037  0.8188 -0.5054 -0.1894
27895SOL     OW84262   8.066   1.585   9.188 -0.1778 -0.0890 -0.1849
27895SOL    HW184263   8.078   1.554   9.278 -3.1608  0.5162  0.5397
27895SOL    HW284264   8.094   1.677   9.191 -0.3553 -0.0448  0.1543
27896SOL     OW84265   6.084   8.305   2.607  0.0303 -0.4571  0.0904
27896SOL    HW184266   5.997   8.330   2.576  0.0187 -0.1734  0.3592
27896SOL    HW284267   6.067   8.244   2.679  0.0304  0.8163  1.2039
27897SOL     OW84268   6.207   6.376   6.153  0.5811 -0.1248  0.0862
27897SOL    HW184269   6.247   6.317   6.089  1.1632  0.4727 -0.1120
27897SOL    HW284270   6.154   6.436   6.101 -1.7718 -1.7455  0.4340
27898SOL     OW84271   6.815   0.276   5.733 -0.3437 -0.1751  0.3233
27898SOL    HW184272   6.872   0.234   5.798 -1.0755 -0.8111  0.5620
27898SOL    HW284273   6.793   0.361   5.771 -0.5165 -0.4169  0.7642
27899SOL     OW84274   0.231   6.500   8.213 -0.0364 -0.8694  0.6780
27899SOL    HW184275   0.205   6.435   8.147  0.4920  0.3269 -0.7528
27899SOL    HW284276   0.291   6.558   8.167 -2.2173  2.0231  1.2152
27900SOL     OW84277   6.582   7.538   8.748  0.2466 -0.8107 -0.0784
27900SOL    HW184278   6.580   7.630   8.773  1.5408 -0.9513  0.6372
27900SOL    HW284279   6.651   7.500   8.802  1.1587 -1.7667 -1.8202
27901SOL     OW84280   0.698   9.351   0.126  0.3708  0.5668 -1.0087
27901SOL    HW184281   0.750   9.376   0.202  0.9588  0.1929 -1.2838
27901SOL    HW284282   0.608   9.368   0.152  0.5599  0.3403 -0.1888
27902SOL     OW84283   9.279   7.112   5.796 -0.3436 -0.5244  0.0411
27902SOL    HW184284   9.210   7.087   5.734 -2.9641  0.4091  2.3996
27902SOL    HW284285   9.276   7.046   5.865  1.7784 -0.9259 -0.1544
27903SOL     OW84286   0.562   6.044   1.650  0.4577  0.3288  0.0289
27903SOL    HW184287   0.554   6.139   1.642  0.1260  0.3499  0.5461
27903SOL    HW284288   0.485   6.018   1.701  1.7011  0.0503  1.8752
27904SOL     OW84289   4.509   8.075   5.283 -0.0843  0.0948 -0.4314
27904SOL    HW184290   4.424   8.078   5.239  0.5883 -2.3214 -2.1477
27904SOL    HW284291   4.564   8.134   5.232 -0.4224  0.7436 -0.0535
27905SOL     OW84292   3.446   0.333   5.432  0.3060 -0.6010 -0.0742
27905SOL    HW184293   3.452   0.427   5.451  1.5259 -0.6093 -0.3613
27905SOL    HW284294   3.477   0.291   5.511  1.0555 -0.7256 -0.4257
27906SOL     OW84295   4.752   6.827   1.196  0.4015  0.1585 -0.1647
27906SOL    HW184296   4.786   6.751   1.149 -0.9060 -0.5140 -0.0784
27906SOL    HW284297   4.780   6.815   1.287  1.5628  0.6317 -0.4416
27907SOL     OW84298   7.317   1.391   0.392 -0.7779  0.3425 -0.1059
27907SOL    HW184299   7.307   1.417   0.301  1.0475 -0.4737 -0.5946
27907SOL    HW284300   7.410   1.370   0.401 -0.5453  2.0014  2.3992
27908SOL     OW84301   8.843   6.926   2.980 -0.1339 -0.4747  0.1668
27908SOL    HW184302   8.920   6.947   2.926  0.1235 -0.9783  0.3321
27908SOL    HW284303   8.844   6.991   3.050 -0.4379  0.1502 -0.3962
27909SOL     OW84304   7.210   1.674   7.577  0.5598 -0.4930  0.0303
27909SOL    HW184305   7.268   1.750   7.588 -0.0357  0.6004 -3.2223
27909SOL    HW284306   7.269   1.602   7.556  0.9171  0.0982 -1.0672
27910SOL     OW84307   6.645   3.741   3.212 -0.7083  0.7877 -0.2865
27910SOL    HW184308   6.664   3.654   3.178  0.2235  0.3424  1.2701
27910SOL    HW284309   6.699   3.800   3.158  0.0213  0.2015 -0.2177
27911SOL     OW84310   8.589   1.073   0.813 -0.0366  0.0601  0.5350
27911SOL    HW184311   8.678   1.074   0.777 -0.2620 -0.2985 -0.0431
27911SOL    HW284312   8.533   1.098   0.740 -0.5269 -0.9380  0.5489
27912SOL     OW84313   6.428   3.196   4.455 -0.7334  0.1927  0.1456
27912SOL    HW184314   6.338   3.172   4.435 -1.2018  0.5279  1.6937
27912SOL    HW284315   6.422   3.245   4.537  0.9973 -1.0812  1.1114
27913SOL     OW84316   7.269   8.973   5.122  0.1656  0.4988 -0.4040
27913SOL    HW184317   7.358   8.993   5.149 -0.4607  0.8637  1.5304
27913SOL    HW284318   7.216   9.045   5.156 -1.0765 -0.5015 -0.1239
27914SOL     OW84319   6.763   5.200   2.902  0.1408  0.0837 -0.3236
27914SOL    HW184320   6.744   5.123   2.956 -0.2031 -0.3588 -1.0660
27914SOL    HW284321   6.851   5.186   2.870 -0.2429 -0.4404 -1.1762
27915SOL     OW84322   8.243   1.126   0.179  0.6213  0.4441 -0.1440
27915SOL    HW184323   8.228   1.131   0.273  4.5241  0.4145  0.6583
27915SOL    HW284324   8.228   1.216   0.148 -3.0328 -0.0053 -0.1031
27916SOL     OW84325   1.885   4.874   5.055  0.4582  0.3425  0.1228
27916SOL    HW184326   1.799   4.839   5.031  0.1897  0.1241  1.3049
27916SOL    HW284327   1.943   4.798   5.051  0.5928  0.4796 -0.6254
27917SOL     OW84328   0.783   6.138   4.128  0.0394 -0.4324  0.0208
27917SOL    HW184329   0.781   6.234   4.131 -1.0466 -0.3081 -2.4074
27917SOL    HW284330   0.867   6.117   4.087 -0.0745 -0.4623 -0.2007
27918SOL     OW84331   6.667   5.155   6.648 -0.3290  0.6292 -0.2521
27918SOL    HW184332   6.687   5.242   6.611  1.9710  0.3952  0.3278
27918SOL    HW284333   6.665   5.169   6.743  0.3392 -0.0062 -0.1409
27919SOL     OW84334   7.762   4.888   4.566  0.4478 -0.3312  0.2828
27919SOL    HW184335   7.803   4.886   4.479 -3.1433  1.4504 -1.6597
27919SOL    HW284336   7.795   4.968   4.606 -0.2250  0.5226 -0.8095
27920SOL     OW84337   1.953   4.470   7.344 -0.1160 -0.0390  0.1387
27920SOL    HW184338   2.027   4.468   7.405 -0.8141 -1.1218  0.9927
27920SOL    HW284339   1.903   4.391   7.365 -0.6260 -0.2111 -1.5495
27921SOL     OW84340   6.072   6.080   6.621  0.4948 -0.1087 -0.0345
27921SOL    HW184341   6.135   6.026   6.670  1.7280  0.5001 -0.9065
27921SOL    HW284342   6.126   6.146   6.578 -0.8746  1.1098  0.0641
27922SOL     OW84343   1.156   9.565   9.197 -0.2500  0.4876 -0.6751
27922SOL    HW184344   1.196   9.515   9.126  1.8570 -0.2262  0.8837
27922SOL    HW284345   1.086   9.507   9.229  0.8976 -0.6654 -0.1416
27923SOL     OW84346   3.057   5.034   6.662  0.3013  0.1151 -0.1448
27923SOL    HW184347   3.031   5.119   6.697 -0.0489 -1.1462  2.9690
27923SOL    HW284348   3.035   5.039   6.569 -0.3964  3.1254  0.0667
27924SOL     OW84349   1.559   3.794  -0.008 -0.2049  0.5589 -0.1424
27924SOL    HW184350   1.583   3.886  -0.018 -0.6257  0.9706  2.0534
27924SOL    HW284351   1.568   3.777   0.086 -2.0068 -1.0846 -0.1926
27925SOL     OW84352   3.092   2.865   1.655  0.5405 -0.1251  0.1160
27925SOL    HW184353   3.108   2.932   1.722  0.9943  0.5388 -0.6418
27925SOL    HW284354   3.085   2.783   1.704 -0.6119  0.5451  1.1246
27926SOL     OW84355   0.733   6.579   2.488 -0.9682  0.3919 -0.2777
27926SOL    HW184356   0.671   6.508   2.471 -1.4318  0.7788 -0.2134
27926SOL    HW284357   0.679   6.657   2.498 -0.4789  0.7164 -0.1080
27927SOL     OW84358   4.914   3.343   6.394  0.1359  0.1494  0.1486
27927SOL    HW184359   4.862   3.339   6.314 -1.0103  0.8106  0.8489
27927SOL    HW284360   4.966   3.423   6.385 -0.3285  0.4649  0.2694
27928SOL     OW84361   1.884   8.776   3.124 -0.2799  0.3163 -0.0847
27928SOL    HW184362   1.972   8.800   3.097 -0.9465  1.1583 -1.6321
27928SOL    HW284363   1.880   8.801   3.216  1.3470 -0.5395  0.2575
27929SOL     OW84364   3.166   4.943   0.559 -0.6039  0.6198  0.1901
27929SOL    HW184365   3.112   4.910   0.631  0.1444  0.8519  0.8648
27929SOL    HW284366   3.103   4.965   0.491 -1.3157  0.2676  0.7167
27930SOL     OW84367   9.816   9.657   0.919 -1.1124  0.2560  0.5861
27930SOL    HW184368   9.760   9.729   0.945 -1.0765  0.2466  0.6916
27930SOL    HW284369   9.848   9.620   1.001 -1.2935 -0.0086  0.5396
27931SOL     OW84370   8.335   5.452   4.839  0.5342  0.3580  0.1508
27931SOL    HW184371   8.261   5.511   4.823 -1.0589 -1.5161  0.2456
27931SOL    HW284372   8.390   5.461   4.760 -0.0330  1.4133 -0.1441
27932SOL     OW84373   1.185   1.316   4.347 -0.2557  0.4382 -0.0130
27932SOL    HW184374   1.092   1.321   4.324  0.1568  3.6613 -1.5834
27932SOL    HW284375   1.191   1.358   4.433 -0.2241  0.7075 -0.1438
27933SOL     OW84376   1.724   9.345   2.275  0.8351  0.6049  0.1296
27933SOL    HW184377   1.691   9.351   2.365  0.5606  0.7615  0.0173
27933SOL    HW284378   1.649   9.318   2.223  1.1678 -0.2069  0.0549
27934SOL     OW84379   3.368   7.293   1.416  0.1687 -0.0103  0.3604
27934SOL    HW184380   3.381   7.209   1.460 -2.8398  0.0754  1.6768
27934SOL    HW284381   3.378   7.359   1.485 -1.2198  0.3775  0.2371
27935SOL     OW84382   2.447   0.306   2.262  0.4104  0.0393  0.4220
27935SOL    HW184383   2.473   0.397   2.275  0.4236 -0.0643  1.1216
27935SOL    HW284384   2.493   0.279   2.182  0.0878  0.7654 -0.0212
27936SOL     OW84385   7.294   4.673   7.091  0.2443 -0.0501 -0.0315
27936SOL    HW184386   7.368   4.632   7.047  1.1998  0.0260  1.4529
27936SOL    HW284387   7.255   4.729   7.024  0.7169 -1.0707 -1.2140
27937SOL     OW84388   6.896   6.182   3.993 -0.3770  0.2098  0.3030
27937SOL    HW184389   6.940   6.143   3.918 -1.5345 -1.2368  0.3210
27937SOL    HW284390   6.959   6.177   4.065  0.5503  1.1294 -0.4333
27938SOL     OW84391   7.035   1.992   2.418 -0.4182 -0.0220  0.0071
27938SOL    HW184392   7.129   1.982   2.408 -0.0133  0.3532  2.6091
27938SOL    HW284393   7.006   1.909   2.457 -0.8790  0.4151  0.6132
27939SOL     OW84394   1.113   4.310   2.913  0.9836 -0.3689 -0.2002
27939SOL    HW184395   1.151   4.302   2.825 -0.1467 -1.1170 -0.6436
27939SOL    HW284396   1.020   4.290   2.901  0.7777 -0.3224  1.1430
27940SOL     OW84397   2.356   1.232   6.323 -0.1750 -0.4471 -0.4217
27940SOL    HW184398   2.282   1.261   6.270 -1.7431  0.1812  1.9492
27940SOL    HW284399   2.389   1.312   6.364 -0.4127 -1.1145  1.1661
27941SOL     OW84400   4.445   0.379   6.273 -0.3702 -0.6416  0.1569
27941SOL    HW184401   4.492   0.324   6.336 -0.9921 -0.7861  0.5019
27941SOL    HW284402   4.452   0.467   6.308  1.0892 -0.3946 -0.6725
27942SOL     OW84403   7.817   1.787   0.073 -0.5387  0.3997 -0.0513
27942SOL    HW184404   7.794   1.695   0.067 -0.2925  0.3322  0.0288
27942SOL    HW284405   7.913   1.788   0.077 -0.5775  0.5910  1.2186
27943SOL     OW84406   8.453   8.209   9.301  0.7821  0.2499  0.5256
27943SOL    HW184407   8.528   8.231   9.247 -0.1428 -0.2411 -1.0326
27943SOL    HW284408   8.395   8.285   9.294 -0.8741 -1.1038 -2.0688
27944SOL     OW84409   4.235   3.469   3.767  0.2262  0.2321 -0.3105
27944SOL    HW184410   4.153   3.420   3.760  1.1189 -1.8830  2.0288
27944SOL    HW284411   4.275   3.462   3.681 -1.3016 -0.1559 -1.0178
27945SOL     OW84412   2.262   2.194   4.797  0.5114  0.0452  0.1904
27945SOL    HW184413   2.334   2.258   4.794  1.3236 -0.8788 -1.7122
27945SOL    HW284414   2.209   2.215   4.720  0.7459 -1.4833 -0.4155
27946SOL     OW84415   2.027   7.386   4.509  0.6049  0.3717 -0.1274
27946SOL    HW184416   2.020   7.396   4.604  2.2313  1.9541 -0.1056
27946SOL    HW284417   2.063   7.298   4.497 -0.9492 -0.4043  0.5989
27947SOL     OW84418   5.303   5.006   1.995 -0.4699  0.6780 -0.1993
27947SOL    HW184419   5.262   4.974   2.075 -3.4357  0.1525 -1.7968
27947SOL    HW284420   5.310   4.929   1.939  0.3532  1.2633 -0.9363
27948SOL     OW84421   4.651   0.828   4.527 -0.4259  0.3383  0.6596
27948SOL    HW184422   4.634   0.876   4.608 -1.6170 -1.0083  1.2608
27948SOL    HW284423   4.681   0.741   4.556 -0.7952 -0.1337 -0.3273
27949SOL     OW84424   2.139   5.847   1.419  0.1678  0.2488  0.0006
27949SOL    HW184425   2.223   5.888   1.396  1.1308 -0.9864  1.1358
27949SOL    HW284426   2.146   5.758   1.384 -0.1887 -0.2224  1.1089
27950SOL     OW84427   9.122   7.335   7.472  0.1685 -0.2907  0.1694
27950SOL    HW184428   9.154   7.340   7.562 -0.6294 -0.7310  0.4900
27950SOL    HW284429   9.153   7.416   7.431 -0.8243  0.7097  1.3069
27951SOL     OW84430   7.157   8.410   2.766  0.3259 -0.5609 -0.0048
27951SOL    HW184431   7.184   8.372   2.682  0.8027  0.6041 -0.3901
27951SOL    HW284432   7.239   8.437   2.807 -0.0301  0.2884  0.1502
27952SOL     OW84433   9.925   8.383   8.432 -0.5924  0.6072  0.0559
27952SOL    HW184434  10.010   8.418   8.459 -1.0061 -0.2628  2.7921
27952SOL    HW284435   9.940   8.350   8.344  1.7275  1.0669  0.2033
27953SOL     OW84436   6.829   4.824   7.021  0.1793 -0.3920  0.2076
27953SOL    HW184437   6.898   4.873   6.976  0.6611 -1.3362 -0.1176
27953SOL    HW284438   6.806   4.754   6.959  1.0800 -1.9080  1.5088
27954SOL     OW84439   7.529   1.239   4.082  0.4650 -0.0589 -0.3249
27954SOL    HW184440   7.507   1.302   4.013  0.9899  0.6175  0.1098
27954SOL    HW284441   7.470   1.262   4.155 -0.6224 -1.2599 -0.7954
27955SOL     OW84442   6.422   8.148   2.191  0.3057 -0.3926  0.3201
27955SOL    HW184443   6.472   8.117   2.115  1.4942  1.7867  0.1221
27955SOL    HW284444   6.489   8.167   2.257 -0.4166  0.7571  0.7486
27956SOL     OW84445   0.419   5.361   0.976  0.1603  0.2147 -0.0860
27956SOL    HW184446   0.469   5.281   0.994  0.2774  0.3308  0.1226
27956SOL    HW284447   0.387   5.388   1.062  0.1909  0.4371 -0.1451
27957SOL     OW84448   4.787   2.529   1.074  0.6130  0.1500 -0.2021
27957SOL    HW184449   4.787   2.457   1.137  0.0155 -0.9681 -1.4297
27957SOL    HW284450   4.806   2.488   0.990 -0.3247  1.3319 -1.0374
27958SOL     OW84451   6.898   1.500   2.339  0.0978  0.3321  0.0950
27958SOL    HW184452   6.868   1.513   2.249  1.4597  0.5476 -0.3539
27958SOL    HW284453   6.908   1.405   2.347  1.3120  0.3908 -0.4652
27959SOL     OW84454   4.315   8.530   5.564  0.2203 -0.0696 -0.3525
27959SOL    HW184455   4.343   8.578   5.487 -0.0529 -0.1235 -0.4878
27959SOL    HW284456   4.365   8.448   5.562  0.7512  0.2403 -0.0742
27960SOL     OW84457   3.815   7.409   3.400  0.2436 -0.4309  0.1030
27960SOL    HW184458   3.904   7.423   3.369  0.3239  2.0807  1.1887
27960SOL    HW284459   3.774   7.496   3.394 -2.2983 -1.6011 -0.7939
27961SOL     OW84460   3.980   3.963   1.811 -0.2439 -0.6708 -0.0238
27961SOL    HW184461   3.956   3.922   1.728  0.1943 -1.2084  0.1185
27961SOL    HW284462   4.064   4.005   1.794 -0.6393  0.1031 -0.1409
27962SOL     OW84463   1.741   7.842   8.812 -0.4690  0.3916 -0.1256
27962SOL    HW184464   1.668   7.800   8.858  0.4685 -0.3191  0.7687
27962SOL    HW284465   1.741   7.803   8.725 -1.0903  0.3349 -0.1055
27963SOL     OW84466   2.962   1.579   2.249 -0.4255  0.2626 -0.2191
27963SOL    HW184467   2.982   1.662   2.292  1.5611 -0.1141 -0.3162
27963SOL    HW284468   2.923   1.525   2.317 -1.2451  1.0859 -0.0233
27964SOL     OW84469   9.112   0.649   0.467 -0.3352  0.0778  0.0423
27964SOL    HW184470   9.017   0.646   0.479 -0.2434  1.6640  1.5988
27964SOL    HW284471   9.138   0.734   0.502  1.4418  0.5715 -2.2309
27965SOL     OW84472   4.172   4.669   6.537 -0.4345  0.3700  0.3738
27965SOL    HW184473   4.124   4.680   6.619  0.6466 -0.3315  1.1329
27965SOL    HW284474   4.237   4.601   6.556  0.1906  0.5773 -0.9072
27966SOL     OW84475   1.160   7.731   2.212 -0.3172 -0.1247  0.0242
27966SOL    HW184476   1.223   7.790   2.171 -0.1376  0.0221  0.4989
27966SOL    HW284477   1.198   7.712   2.298 -0.6007 -0.5609  0.0552
27967SOL     OW84478   4.193   1.599   7.546  0.0188  0.0260  0.5472
27967SOL    HW184479   4.246   1.625   7.621  0.7458  1.4681 -0.4145
27967SOL    HW284480   4.235   1.518   7.515  1.0227  0.5654  0.4476
27968SOL     OW84481   1.056   9.554   5.171  0.2177  0.2354 -0.1630
27968SOL    HW184482   1.087   9.520   5.088  0.1393 -1.4054  0.4464
27968SOL    HW284483   1.049   9.649   5.157  0.5431  0.0362 -1.8889
27969SOL     OW84484   4.842   3.682   9.080 -0.4082  0.3080  0.2530
27969SOL    HW184485   4.916   3.649   9.131 -0.1415  0.7497  0.1534
27969SOL    HW284486   4.847   3.632   8.998  0.0171  0.6203  0.0872
27970SOL     OW84487   3.138   5.735   9.227  0.3714  0.1671  0.6362
27970SOL    HW184488   3.116   5.684   9.305  3.4997  0.3714  1.8117
27970SOL    HW284489   3.234   5.739   9.228  0.5459  0.3145 -3.1775
27971SOL     OW84490   9.649   2.630   2.659  0.1969  0.7087  0.4084
27971SOL    HW184491   9.573   2.677   2.694 -1.1887 -1.8836  1.0947
27971SOL    HW284492   9.628   2.617   2.566 -0.6536 -0.6869  0.7586
27972SOL     OW84493   5.262   2.842   5.654  0.0422  0.3739 -0.5559
27972SOL    HW184494   5.287   2.788   5.729 -1.9478 -0.2046 -0.2493
27972SOL    HW284495   5.286   2.791   5.577  1.1942  0.5409 -0.3285
27973SOL     OW84496   5.260   3.492   3.453  0.1082  0.1486  0.5198
27973SOL    HW184497   5.309   3.505   3.372 -1.8858 -1.1291 -0.9693
27973SOL    HW284498   5.180   3.542   3.441 -0.5279 -0.6247  1.4085
27974SOL     OW84499   1.028   9.809   9.199  0.1732  0.6491 -0.1124
27974SOL    HW184500   1.087   9.741   9.231 -1.0895  0.3164  1.5940
27974SOL    HW284501   1.058   9.826   9.109  1.9060 -0.5475  0.1969
27975SOL     OW84502   7.949   8.943   4.124  0.0424 -0.4144  0.4225
27975SOL    HW184503   7.953   9.035   4.099  1.0824 -0.1463  1.4873
27975SOL    HW284504   7.944   8.895   4.041 -3.7006  0.6478 -0.1644
27976SOL     OW84505   7.845   9.522   3.563 -0.0397 -0.3046  0.0875
27976SOL    HW184506   7.899   9.601   3.555  1.0873 -1.1711 -1.9255
27976SOL    HW284507   7.901   9.460   3.610  0.3363 -0.8306 -0.9962
27977SOL     OW84508   4.394   6.050   5.260  0.0396  0.8649 -0.4130
27977SOL    HW184509   4.476   6.002   5.270 -0.5175 -0.3042 -1.2427
27977SOL    HW284510   4.415   6.123   5.202  0.2719 -0.0117 -1.4402
27978SOL     OW84511   9.193   1.417   1.102  0.1822 -0.2633 -0.2629
27978SOL    HW184512   9.227   1.336   1.139  1.7099  0.7606  0.7053
27978SOL    HW284513   9.242   1.486   1.147 -0.9051  1.1906 -1.2206
27979SOL     OW84514   2.267   8.481   5.572 -0.3869 -0.5145  0.3829
27979SOL    HW184515   2.305   8.526   5.496  2.4890 -1.0838  1.3537
27979SOL    HW284516   2.216   8.548   5.616  0.4904  0.7071 -0.3863
27980SOL     OW84517   3.718   4.213   8.533  0.2429 -0.4903  0.5123
27980SOL    HW184518   3.775   4.146   8.494  2.0831  1.6553 -0.6626
27980SOL    HW284519   3.745   4.216   8.625  1.0333 -0.5075  0.2916
27981SOL     OW84520   6.838   5.414   7.941  0.1942  0.1873  0.3661
27981SOL    HW184521   6.746   5.439   7.953  0.0322 -0.1937 -0.0780
27981SOL    HW284522   6.857   5.357   8.015  0.0660  0.2482  0.4466
27982SOL     OW84523   5.944   2.693   6.757  0.1346 -0.5559  0.0895
27982SOL    HW184524   5.936   2.609   6.803  2.9003 -1.2453 -0.4611
27982SOL    HW284525   5.953   2.669   6.665  0.1612  0.4089 -0.1704
27983SOL     OW84526   0.901   3.972   0.438  0.8679 -0.1946 -0.8106
27983SOL    HW184527   0.874   3.882   0.420  1.7197 -0.3068 -1.5772
27983SOL    HW284528   0.984   3.963   0.486  0.3080  0.1666  0.2546
27984SOL     OW84529   7.552   5.390   4.079 -0.2955  0.7361  0.3591
27984SOL    HW184530   7.623   5.415   4.019 -0.1939  1.6159  0.8235
27984SOL    HW284531   7.595   5.379   4.164 -0.5381  0.1488  0.4062
27985SOL     OW84532   4.465   5.354   2.218  0.3824 -0.3765 -0.0521
27985SOL    HW184533   4.478   5.301   2.297 -0.1916 -0.3235  0.0804
27985SOL    HW284534   4.549   5.349   2.172  0.7795 -0.2551  0.6514
27986SOL     OW84535   6.319   5.629   2.295  0.0900  0.4530 -0.0932
27986SOL    HW184536   6.329   5.724   2.304  0.2652  0.4958 -0.6886
27986SOL    HW284537   6.284   5.618   2.207 -0.2704 -0.0168  0.1098
27987SOL     OW84538   4.129   9.385   5.789  0.3046  0.0960  0.0434
27987SOL    HW184539   4.037   9.407   5.800  0.3671 -0.3820  1.6963
27987SOL    HW284540   4.137   9.298   5.827  1.3498 -0.0952 -0.5729
27988SOL     OW84541   0.276   0.519   3.193 -0.3613 -0.0188 -0.6950
27988SOL    HW184542   0.307   0.467   3.119 -0.2536 -1.6553  0.4549
27988SOL    HW284543   0.349   0.519   3.255 -0.9033  0.2216 -0.0359
27989SOL     OW84544   3.850   7.640   8.502 -0.2423  0.1087  0.0201
27989SOL    HW184545   3.839   7.546   8.488 -1.3586  0.3764 -1.0550
27989SOL    HW284546   3.762   7.673   8.516  0.2318  0.8604  1.4817
27990SOL     OW84547   0.338   6.384   8.772 -0.3374 -0.0957  0.3123
27990SOL    HW184548   0.383   6.309   8.734 -0.4952 -0.4108  0.7501
27990SOL    HW284549   0.298   6.429   8.697 -0.5308 -0.6338  0.0949
27991SOL     OW84550   7.187   6.167   9.023 -0.0671  0.1114  0.1752
27991SOL    HW184551   7.180   6.095   9.085 -0.5178 -0.2212 -0.2583
27991SOL    HW284552   7.218   6.126   8.942  1.0495  0.6245  0.3191
27992SOL     OW84553   7.972   3.619   3.128  0.0673  0.0598  0.0129
27992SOL    HW184554   7.989   3.671   3.050 -1.2539  2.9415  1.4781
27992SOL    HW284555   8.055   3.573   3.145  0.7187  0.2234 -2.4072
27993SOL     OW84556   4.243   7.153   9.589  0.1530  0.1961 -0.1195
27993SOL    HW184557   4.188   7.144   9.511  0.2904 -0.1448 -0.1815
27993SOL    HW284558   4.263   7.246   9.594 -2.6078  0.7927  1.4111
27994SOL     OW84559   2.768   5.253   8.352 -0.0186  0.3082  0.2488
27994SOL    HW184560   2.761   5.175   8.298  0.6804 -0.8218  1.7200
27994SOL    HW284561   2.823   5.313   8.301  2.9055 -1.7421  0.7275
27995SOL     OW84562   9.797   5.627   5.991 -0.3222 -0.1865  0.2823
27995SOL    HW184563   9.843   5.661   6.067  1.5873 -0.3780 -0.7368
27995SOL    HW284564   9.778   5.536   6.012  0.1241 -0.2131  0.5788
27996SOL     OW84565   0.740   8.066   9.217  0.2007 -0.2213  0.1717
27996SOL    HW184566   0.701   8.001   9.158  0.8335 -1.8829  1.4970
27996SOL    HW284567   0.677   8.139   9.217 -1.7563 -1.8171  0.4063
27997SOL     OW84568   9.929   5.613   8.915 -0.3509  0.4477  0.0653
27997SOL    HW184569   9.867   5.541   8.905 -0.1891  0.0764  1.5188
27997SOL    HW284570  10.010   5.579   8.876 -0.2048 -0.2629  0.9603
27998SOL     OW84571   9.673   2.198   2.706  0.2672  0.1420 -0.2483
27998SOL    HW184572   9.659   2.129   2.771 -1.2610  0.4436 -0.2131
27998SOL    HW284573   9.763   2.185   2.676  0.9791 -0.0730  1.8285
27999SOL     OW84574   2.570   5.030   3.786 -0.3086  0.4656  0.0953
27999SOL    HW184575   2.538   4.984   3.864  0.4940  1.0778  0.8089
27999SOL    HW284576   2.494   5.078   3.753 -0.6026  0.3795  0.6299
28000SOL     OW84577   8.890   0.989   2.943 -0.1947  0.2682  0.0209
28000SOL    HW184578   8.953   1.058   2.921  0.2913 -0.6979 -1.8748
28000SOL    HW284579   8.919   0.956   3.028 -0.6093  2.5278  1.1150
28001SOL     OW84580   1.599   0.378   8.629  0.2424 -0.4768  0.3589
28001SOL    HW184581   1.599   0.473   8.612  0.1940 -0.4286  0.6143
28001SOL    HW284582   1.690   0.351   8.612 -0.2920 -0.8820 -2.2880
28002SOL     OW84583   5.588   1.256   7.705 -0.0406  0.0531 -0.0321
28002SOL    HW184584   5.590   1.181   7.645  1.5999  0.2589 -0.2614
28002SOL    HW284585   5.497   1.259   7.736 -0.9310 -0.1458 -2.3903
28003SOL     OW84586   3.784   1.190   7.988  0.8030 -0.5141  0.5814
28003SOL    HW184587   3.750   1.263   7.936  0.8968 -0.6268  0.3614
28003SOL    HW284588   3.879   1.202   7.988  0.7360  0.3236  1.9624
28004SOL     OW84589   1.838   7.895   3.139  0.5283 -0.4217 -0.0140
28004SOL    HW184590   1.910   7.865   3.083  0.1408 -0.2102 -0.6368
28004SOL    HW284591   1.799   7.814   3.173  1.0733 -0.5349  0.3511
28005SOL     OW84592   8.078   4.072   9.277 -0.1777  0.4047  0.2313
28005SOL    HW184593   8.064   4.047   9.186 -0.2881 -2.4273  0.9573
28005SOL    HW284594   8.157   4.127   9.274 -0.8401  1.3586 -1.6548
28006SOL     OW84595   2.975   4.022   5.294  0.0317 -0.5476 -0.0844
28006SOL    HW184596   2.938   3.984   5.374 -0.2742 -1.2672 -0.5559
28006SOL    HW284597   2.911   4.001   5.226  0.3594 -0.0718 -0.5475
28007SOL     OW84598   1.806   7.270   8.403 -0.5880 -0.1489  0.6196
28007SOL    HW184599   1.713   7.252   8.404 -0.9720  1.5816  0.3179
28007SOL    HW284600   1.836   7.240   8.317 -0.8325 -0.7906  0.7544
28008SOL     OW84601   7.126   8.644   2.411  0.2248 -0.4841 -0.1852
28008SOL    HW184602   7.090   8.570   2.459  0.1889 -0.7425 -0.6061
28008SOL    HW284603   7.049   8.692   2.380  0.2281 -0.9783 -0.9971
28009SOL     OW84604   5.826   4.669   1.270 -0.1474  0.2042  0.0636
28009SOL    HW184605   5.820   4.581   1.308  0.1953  0.3427  0.4580
28009SOL    HW284606   5.813   4.656   1.176  1.8345 -0.5549 -0.1655
28010SOL     OW84607   5.453   1.768   2.741  0.3342  0.1497  0.5826
28010SOL    HW184608   5.444   1.807   2.654  0.7499  0.0241  0.4827
28010SOL    HW284609   5.367   1.731   2.760  0.1944  0.3271  0.2980
28011SOL     OW84610   9.169   8.241   2.223  0.5070 -0.2052  0.2788
28011SOL    HW184611   9.148   8.325   2.263 -0.8261 -0.8792  1.0653
28011SOL    HW284612   9.264   8.236   2.226  0.5258  0.5228  1.8061
28012SOL     OW84613   8.774   8.395   2.681 -0.0613  0.7085 -0.2042
28012SOL    HW184614   8.730   8.375   2.599 -0.8135 -0.2657  0.4153
28012SOL    HW284615   8.865   8.367   2.667 -0.3225 -0.0025 -0.5091
28013SOL     OW84616   1.924   4.690   9.328  0.2251  0.5028 -0.3648
28013SOL    HW184617   1.897   4.713   9.417 -1.0716 -0.6700 -0.4247
28013SOL    HW284618   1.965   4.769   9.294  0.4171  1.0814  1.1435
28014SOL     OW84619   8.563   3.274   5.862  0.0251  0.0366  0.2162
28014SOL    HW184620   8.639   3.241   5.910  0.6429  0.7862 -0.2232
28014SOL    HW284621   8.510   3.196   5.845  0.7163 -0.5053  0.4817
28015SOL     OW84622   8.416   9.780   8.842  0.0821  0.5278  0.2457
28015SOL    HW184623   8.440   9.689   8.823  0.7850  0.6586  0.4830
28015SOL    HW284624   8.325   9.786   8.814 -0.1495 -0.4009  0.7336
28016SOL     OW84625   8.972   7.514   2.745 -0.0715 -0.0394  0.0158
28016SOL    HW184626   8.947   7.477   2.829 -0.6767 -0.4725 -0.3479
28016SOL    HW284627   8.976   7.439   2.686  1.7132  0.0690 -0.0425
28017SOL     OW84628   6.894   8.192   6.413  0.2756  0.0165 -0.0066
28017SOL    HW184629   6.941   8.273   6.431  1.9259 -0.4482 -1.8662
28017SOL    HW284630   6.909   8.175   6.320  0.8242 -2.9133  0.5032
28018SOL     OW84631   4.206   5.160   5.641  0.2752  0.4833  0.6151
28018SOL    HW184632   4.252   5.191   5.719  0.3035  0.4240  0.6220
28018SOL    HW284633   4.138   5.225   5.626 -0.7016 -0.2978  1.5763
28019SOL     OW84634   1.432   8.249   5.337  0.3859  0.5292 -0.3724
28019SOL    HW184635   1.395   8.247   5.248 -0.5904  0.8009  0.0209
28019SOL    HW284636   1.481   8.331   5.340  0.9152  0.2420 -0.8434
28020SOL     OW84637   2.281   0.084   5.199  0.5016  0.4529 -0.2150
28020SOL    HW184638   2.201   0.034   5.212  0.4547  0.4587 -0.4773
28020SOL    HW284639   2.283   0.102   5.105  0.7192  0.6049 -0.1816
28021SOL     OW84640   5.267   5.158   8.762  0.1943  0.3302  0.3005
28021SOL    HW184641   5.335   5.224   8.776  0.2293  0.1825  0.8667
28021SOL    HW284642   5.185   5.202   8.785  0.0713  0.5614 -0.5492
28022SOL     OW84643   4.940   6.564   7.125  0.4433 -0.0822  0.1930
28022SOL    HW184644   4.993   6.494   7.163  1.0004  0.2584  0.0672
28022SOL    HW284645   4.890   6.521   7.055 -0.7984 -0.7673  1.4528
28023SOL     OW84646   0.100   1.422   4.685  0.3504  0.0654 -0.7083
28023SOL    HW184647   0.104   1.387   4.774 -0.9877  1.2179 -0.1700
28023SOL    HW284648   0.046   1.360   4.637 -0.4141  0.3777 -0.2551
28024SOL     OW84649   4.393   4.097   7.123  0.2509  0.3935  0.2082
28024SOL    HW184650   4.478   4.119   7.160 -0.2823  1.3223  0.9451
28024SOL    HW284651   4.337   4.171   7.146 -1.3147 -1.1307  1.6651
28025SOL     OW84652   4.966   6.772   8.786 -0.2634  0.3232 -0.0534
28025SOL    HW184653   4.919   6.822   8.852 -0.8658 -0.4729  0.1448
28025SOL    HW284654   5.051   6.753   8.826 -1.3625 -1.9653  1.4358
28026SOL     OW84655   1.188   8.850   3.706 -0.3436  0.5274 -0.1313
28026SOL    HW184656   1.277   8.877   3.685 -0.2539  1.0720  0.8399
28026SOL    HW284657   1.181   8.866   3.801 -0.6341 -1.9095  0.3286
28027SOL     OW84658   8.042   6.385   4.148 -0.8543 -0.1810  0.0527
28027SOL    HW184659   7.970   6.390   4.211 -1.0148 -1.1599 -0.0341
28027SOL    HW284660   8.028   6.460   4.089 -1.3921  0.0404  0.4534
28028SOL     OW84661   9.298   5.076   9.772  0.2213 -0.3050 -0.1494
28028SOL    HW184662   9.262   5.138   9.708 -1.0319 -0.3059  0.5327
28028SOL    HW284663   9.370   5.034   9.725  1.8794  2.4271 -0.3143
28029SOL     OW84664   7.965   6.911   3.225  0.5335 -0.3932  0.0042
28029SOL    HW184665   7.923   6.863   3.153  0.3297  0.7240 -0.6451
28029SOL    HW284666   7.893   6.937   3.282  0.6651 -1.0270  0.4660
28030SOL     OW84667   3.469   0.596   5.518 -0.4373  0.3586 -0.2500
28030SOL    HW184668   3.546   0.649   5.496 -0.9389  0.9614 -0.5902
28030SOL    HW284669   3.397   0.659   5.522 -1.0123 -0.2766 -0.4797
28031SOL     OW84670   7.960   4.124   5.547 -0.2295  0.0819 -0.5415
28031SOL    HW184671   8.012   4.102   5.624  0.5211  0.6764 -0.8571
28031SOL    HW284672   7.890   4.059   5.545 -0.2857  0.0857  0.6530
28032SOL     OW84673   6.030   0.567   7.296  0.2922  0.4348 -0.1939
28032SOL    HW184674   6.077   0.639   7.252 -0.7187  1.8029  0.8835
28032SOL    HW284675   6.027   0.593   7.388 -1.9848  0.1068 -0.1160
28033SOL     OW84676   7.446   6.576   1.852  0.3345 -0.1115 -0.0947
28033SOL    HW184677   7.434   6.506   1.916  2.3132 -0.4985 -0.0914
28033SOL    HW284678   7.431   6.656   1.901  1.1110 -0.4304  0.6792
28034SOL     OW84679   0.868   7.964   8.160 -0.2608 -0.1618  0.2724
28034SOL    HW184680   0.889   7.994   8.071 -1.0510 -1.3995 -0.3460
28034SOL    HW284681   0.952   7.965   8.205  0.3176 -0.4386 -0.7624
28035SOL     OW84682   8.716   0.890   6.942  0.6146  0.3669  0.1897
28035SOL    HW184683   8.773   0.957   6.903 -0.8537  0.6803 -1.5489
28035SOL    HW284684   8.775   0.815   6.956  1.4703  0.5937 -1.7628
28036SOL     OW84685   2.993   9.265   8.166  0.6517 -0.1186  0.1274
28036SOL    HW184686   2.962   9.192   8.113 -0.3289 -0.4897  1.1549
28036SOL    HW284687   3.024   9.330   8.103 -1.5192 -0.0678 -0.9845
28037SOL     OW84688   1.866   5.106   7.782  0.0372 -0.0100  0.6485
28037SOL    HW184689   1.930   5.133   7.716 -0.6238 -0.8605 -0.3743
28037SOL    HW284690   1.793   5.166   7.769 -0.4518 -0.7264 -0.0111
28038SOL     OW84691   5.213   6.204   4.585  0.8069 -0.0195  0.2410
28038SOL    HW184692   5.171   6.163   4.509  1.8343 -0.6329 -0.0132
28038SOL    HW284693   5.301   6.166   4.587  1.5081  1.5613  0.4997
28039SOL     OW84694   7.426   1.734   5.207  0.5895 -0.0459 -0.2256
28039SOL    HW184695   7.452   1.704   5.119  0.5780 -1.3687  0.2009
28039SOL    HW284696   7.507   1.729   5.258  0.2312 -0.9604  0.2679
28040SOL     OW84697   8.763   7.699   5.835  0.0931  0.1575  0.3920
28040SOL    HW184698   8.691   7.682   5.896 -0.6235  0.2190 -0.4307
28040SOL    HW284699   8.835   7.645   5.869 -0.6505 -0.7035  0.6370
28041SOL     OW84700   1.381   0.861   5.578 -0.4272  0.3174 -0.0882
28041SOL    HW184701   1.460   0.833   5.532 -0.1098 -0.7650  1.0530
28041SOL    HW284702   1.312   0.857   5.512  0.5355  1.8646 -1.2695
28042SOL     OW84703   2.401   9.815   0.740 -0.2584 -0.2402 -0.2493
28042SOL    HW184704   2.462   9.883   0.711 -0.3085  0.5687  1.4054
28042SOL    HW284705   2.322   9.830   0.689  0.1853  0.0945 -0.8534
28043SOL     OW84706   3.236   3.890   2.458 -0.4138  0.8251  0.2705
28043SOL    HW184707   3.253   3.977   2.493  0.4870  1.2121 -1.0694
28043SOL    HW284708   3.204   3.840   2.534  2.5510  1.2916  1.9940
28044SOL     OW84709   6.906   5.685   2.354  0.3618  0.0063  0.4047
28044SOL    HW184710   6.892   5.753   2.420  0.2623 -1.0807  1.5533
28044SOL    HW284711   6.949   5.614   2.402 -1.1598 -1.4610 -0.3029
28045SOL     OW84712   3.228   4.334   9.075  0.2557 -0.0112 -0.2453
28045SOL    HW184713   3.155   4.304   9.022 -1.2119 -0.4099  1.8670
28045SOL    HW284714   3.222   4.283   9.156  1.8323  1.1547  0.6796
28046SOL     OW84715   1.488   8.615   7.386  0.7671  0.0885  0.2800
28046SOL    HW184716   1.582   8.626   7.401  0.8855 -0.0523 -0.3530
28046SOL    HW284717   1.454   8.704   7.382  1.2130  0.2150 -1.5900
28047SOL     OW84718   7.980   2.130   2.836  0.8707  0.2908  0.4770
28047SOL    HW184719   7.987   2.206   2.778 -0.2402 -0.9534 -1.4033
28047SOL    HW284720   7.897   2.142   2.881 -0.8207 -1.1405 -2.0223
28048SOL     OW84721   5.994   7.639   1.831 -0.8351  0.2520 -0.2917
28048SOL    HW184722   5.990   7.553   1.791  1.5874  0.0931 -0.2993
28048SOL    HW284723   5.989   7.700   1.757  0.2131  0.0436 -0.5410
28049SOL     OW84724   5.903   8.423   0.080  0.1708 -0.3132 -0.6604
28049SOL    HW184725   5.894   8.344   0.028  0.8544  0.4539 -1.9917
28049SOL    HW284726   5.836   8.483   0.046 -0.8503 -0.5310  0.8328
28050SOL     OW84727   1.568   1.270   3.535  0.9604  0.0502 -0.2953
28050SOL    HW184728   1.474   1.279   3.524  1.0944  0.8304 -0.9503
28050SOL    HW284729   1.581   1.179   3.561  0.1682 -0.5830 -1.9555
28051SOL     OW84730   1.797   4.990   8.374  0.9285  0.3059 -0.0184
28051SOL    HW184731   1.876   4.937   8.387  0.8848 -0.4765 -2.5347
28051SOL    HW284732   1.815   5.042   8.296 -0.8126  0.5832 -0.2717
28052SOL     OW84733   5.470   2.188   7.877  0.7969 -0.4231  0.0307
28052SOL    HW184734   5.528   2.115   7.896 -1.3638 -2.0645  0.6104
28052SOL    HW284735   5.477   2.200   7.782 -0.1874 -2.6667 -0.3803
28053SOL     OW84736   4.246   2.621   5.765  0.5692 -0.7340 -0.3268
28053SOL    HW184737   4.154   2.633   5.788  0.8981 -0.3025  0.8277
28053SOL    HW284738   4.291   2.613   5.849  1.5651 -1.1289 -0.8854
28054SOL     OW84739   4.535   4.787   5.035 -0.5017  0.1794 -0.8653
28054SOL    HW184740   4.606   4.724   5.050 -1.9180 -1.0575  0.9589
28054SOL    HW284741   4.546   4.851   5.105 -1.9196 -0.7489  0.2502
28055SOL     OW84742   6.179   9.437   8.548  0.4704  0.4058  0.3142
28055SOL    HW184743   6.152   9.517   8.592  1.2766 -0.6619  2.9679
28055SOL    HW284744   6.132   9.367   8.594  2.9979 -0.9534  1.0686
28056SOL     OW84745   0.118   2.295   9.499 -0.3123  0.2703 -0.9257
28056SOL    HW184746   0.094   2.374   9.548  1.0853  0.0520  0.1919
28056SOL    HW284747   0.036   2.263   9.463 -1.2835  0.9147  0.6091
28057SOL     OW84748   5.898   4.471   5.920  0.2265 -0.2969  0.0605
28057SOL    HW184749   5.908   4.409   5.993 -0.3261 -0.6671 -0.1751
28057SOL    HW284750   5.805   4.494   5.921 -0.0119 -1.1196 -1.1814
28058SOL     OW84751   9.365   9.650   4.932 -0.1750  0.1994  0.4055
28058SOL    HW184752   9.331   9.710   4.866 -0.2941 -0.0905  0.2007
28058SOL    HW284753   9.288   9.621   4.980 -0.4635 -1.6826 -1.0688
28059SOL     OW84754   6.366   3.764   6.078 -0.1744  0.1241  0.6806
28059SOL    HW184755   6.407   3.839   6.034  0.2944 -0.9924 -0.8858
28059SOL    HW284756   6.284   3.752   6.031  1.0487 -2.0670 -1.0598
28060SOL     OW84757   2.336   0.395   3.088  0.5139 -0.4745 -0.2693
28060SOL    HW184758   2.398   0.411   3.017 -0.3459  1.5792 -0.6551
28060SOL    HW284759   2.390   0.395   3.167  1.2161 -0.4603 -0.7365
28061SOL     OW84760   0.856   2.161   8.053 -0.5119  0.4319  0.3787
28061SOL    HW184761   0.905   2.135   7.975 -0.9419 -2.5937  0.9719
28061SOL    HW284762   0.785   2.217   8.020  1.4334  2.2955 -0.8468
28062SOL     OW84763   8.572   4.418   2.035 -0.5670  0.2856  0.3541
28062SOL    HW184764   8.503   4.373   1.987  0.1915 -0.0020 -0.4973
28062SOL    HW284765   8.653   4.376   2.006 -0.0104  0.7948  1.1267
28063SOL     OW84766   2.778   6.222   5.197 -0.1958  0.0595  0.2036
28063SOL    HW184767   2.873   6.236   5.197 -0.2228  0.2443  0.4151
28063SOL    HW284768   2.762   6.165   5.272 -0.2559  0.0415  0.1771
28064SOL     OW84769   3.147   9.077   3.117 -0.5479  0.1287  0.1873
28064SOL    HW184770   3.098   8.994   3.112  0.5005 -0.5220  0.4326
28064SOL    HW284771   3.150   9.097   3.210  1.0333 -0.7122  0.3528
28065SOL     OW84772   2.678   5.785   5.652  0.1551  0.5293 -0.2695
28065SOL    HW184773   2.706   5.846   5.584  0.5819  0.7055  0.0647
28065SOL    HW284774   2.652   5.706   5.604  1.7243  0.1634 -0.5530
28066SOL     OW84775   4.083   0.405   1.514  0.3951  0.0385  0.1469
28066SOL    HW184776   4.102   0.422   1.606 -0.4511  1.3195  0.1150
28066SOL    HW284777   3.993   0.438   1.502 -0.0532 -1.4324 -0.7930
28067SOL     OW84778   3.992   8.425   0.228  0.9870 -0.3602  1.0680
28067SOL    HW184779   4.070   8.479   0.212  0.7114 -0.3089 -0.1907
28067SOL    HW284780   4.025   8.335   0.226  1.5596 -0.3063  3.7768
28068SOL     OW84781   3.278   9.571   5.536  0.3071 -0.1566  0.0880
28068SOL    HW184782   3.240   9.486   5.515  0.0415  0.1910 -0.8864
28068SOL    HW284783   3.332   9.555   5.614 -0.2053 -1.0824  0.2622
28069SOL     OW84784   9.858   8.432   7.196  0.8203  0.1638 -0.6008
28069SOL    HW184785   9.769   8.404   7.217  0.9056  2.4158  3.8208
28069SOL    HW284786   9.912   8.356   7.217  0.2010  0.0325  0.6284
28070SOL     OW84787   9.605   4.271   6.357 -0.2361 -0.0432  0.1510
28070SOL    HW184788   9.522   4.226   6.339 -1.7955  2.6944 -0.1853
28070SOL    HW284789   9.653   4.266   6.274 -0.7340 -0.3815 -0.1254
28071SOL     OW84790   4.050   7.213   7.392  0.4164 -0.2550  0.6374
28071SOL    HW184791   3.971   7.260   7.417  0.7549  0.1410  0.9833
28071SOL    HW284792   4.020   7.146   7.330 -0.1900 -0.1434  0.8056
28072SOL     OW84793   9.937   0.581   5.259  0.5558  0.1259 -0.1472
28072SOL    HW184794  10.014   0.526   5.273 -0.8055 -1.8460  0.0344
28072SOL    HW284795   9.890   0.579   5.342 -0.3266  0.2668 -0.6353
28073SOL     OW84796   3.638   7.045   9.692  1.0470  0.1829  0.1732
28073SOL    HW184797   3.594   6.991   9.758  0.0054  3.4204  2.4143
28073SOL    HW284798   3.727   7.056   9.725  0.7687  1.1137  0.6672
28074SOL     OW84799   0.704   3.610   0.123 -0.0443  0.6218  0.2446
28074SOL    HW184800   0.647   3.547   0.167 -2.1167  1.4593 -1.1094
28074SOL    HW284801   0.783   3.560   0.103 -0.1378 -0.5213  2.4096
28075SOL     OW84802   9.570   1.668   1.207 -0.2284  0.7477 -0.1498
28075SOL    HW184803   9.558   1.725   1.282 -2.0021 -0.0332  0.2126
28075SOL    HW284804   9.656   1.627   1.220  0.3820  2.1639  0.3544
28076SOL     OW84805   0.258   1.174   9.369 -0.2470  0.6167  0.1424
28076SOL    HW184806   0.330   1.144   9.425  1.5866  2.1952 -1.2426
28076SOL    HW284807   0.219   1.247   9.417 -2.0504 -1.1889  1.6123
28077SOL     OW84808   7.067   6.652   9.102  0.4656  0.3339  0.0721
28077SOL    HW184809   7.127   6.590   9.060  0.5348  1.2965 -1.3143
28077SOL    HW284810   6.994   6.597   9.132  1.5415 -0.7056  0.8768
28078SOL     OW84811   5.971   3.244   9.975 -0.1213  0.2571  0.3678
28078SOL    HW184812   5.975   3.233   9.880 -0.4647  2.9961 -0.0342
28078SOL    HW284813   5.878   3.253   9.994 -0.2382 -2.1629  1.2974
28079SOL     OW84814   8.768   4.069   0.428 -0.1394  0.2291  0.1399
28079SOL    HW184815   8.685   4.056   0.474 -0.6848 -0.6336 -1.0402
28079SOL    HW284816   8.772   3.997   0.365  2.2203 -0.6759  1.1743
28080SOL     OW84817   7.264   2.743   6.750  0.1499 -0.1509 -0.5460
28080SOL    HW184818   7.310   2.817   6.789  0.3840  1.0643 -2.9119
28080SOL    HW284819   7.179   2.742   6.793 -0.4528  2.5272 -1.4735
28081SOL     OW84820   8.993   4.250   3.921  0.0841  0.0235  0.0837
28081SOL    HW184821   9.052   4.180   3.894  1.8564  1.5629 -0.2957
28081SOL    HW284822   8.934   4.262   3.846  0.7850 -0.0413 -0.4927
28082SOL     OW84823   7.439   0.559   9.502 -0.4203  0.5503 -0.4666
28082SOL    HW184824   7.443   0.654   9.515  1.4672  0.3292  1.0456
28082SOL    HW284825   7.497   0.542   9.428 -0.1452  0.4990 -0.2385
28083SOL     OW84826   3.165   2.047   4.283 -0.0130  0.2293  0.4810
28083SOL    HW184827   3.239   2.067   4.225  0.5069  0.5929  1.2516
28083SOL    HW284828   3.102   2.003   4.226  0.5449  0.4371 -0.3271
28084SOL     OW84829   0.503   6.026   5.931 -0.5417  0.3077  0.0184
28084SOL    HW184830   0.516   6.054   5.841 -0.3394  0.5497  0.1217
28084SOL    HW284831   0.424   6.071   5.959  1.2013  2.9470  1.0449
28085SOL     OW84832   8.195   0.992   2.469 -0.6874  0.2047  0.6748
28085SOL    HW184833   8.235   0.957   2.390 -1.7004  0.5843 -0.0183
28085SOL    HW284834   8.268   1.031   2.518  0.1410 -1.1383  0.5458
28086SOL     OW84835   1.841   3.097   5.260 -0.3335 -0.5168  0.4342
28086SOL    HW184836   1.834   3.124   5.168  0.0334 -2.5595 -0.2303
28086SOL    HW284837   1.869   3.177   5.306 -0.6583  0.5789 -1.1839
28087SOL     OW84838   3.950   5.505   7.995  0.4990  0.8865 -0.0103
28087SOL    HW184839   3.909   5.572   7.941  0.1078 -0.4186 -1.4141
28087SOL    HW284840   3.943   5.538   8.085 -0.1593  2.4442 -0.6002
28088SOL     OW84841   8.480   5.873   1.357  0.3802 -0.2269  0.5528
28088SOL    HW184842   8.572   5.897   1.362  0.7972 -0.5900 -2.8171
28088SOL    HW284843   8.476   5.807   1.288 -2.3963 -0.2734  0.6259
28089SOL     OW84844   4.728   3.654   4.414 -0.1536 -0.2834 -0.1623
28089SOL    HW184845   4.783   3.732   4.407 -0.7915  0.3608  1.4589
28089SOL    HW284846   4.736   3.611   4.329  1.3387  0.7865 -0.6096
28090SOL     OW84847   5.314   7.928   8.701 -0.0829  0.3274 -0.5882
28090SOL    HW184848   5.399   7.969   8.719 -0.3039 -0.2716  2.1885
28090SOL    HW284849   5.329   7.835   8.716 -0.9380  0.0530 -1.3573
28091SOL     OW84850   1.090   1.312   5.387 -0.4992  0.0924 -0.2414
28091SOL    HW184851   1.092   1.286   5.295  0.5050 -0.6428 -0.0303
28091SOL    HW284852   1.090   1.230   5.436 -0.6959  0.4772  0.4206
28092SOL     OW84853   8.245   5.669   9.787 -0.3674 -0.2393  0.2962
28092SOL    HW184854   8.234   5.752   9.742 -1.3843 -0.4720  0.0900
28092SOL    HW284855   8.182   5.672   9.859 -0.2715 -0.7434  0.4074
28093SOL     OW84856   4.133   4.120   6.563  0.1428  0.7940 -0.4329
28093SOL    HW184857   4.214   4.163   6.589  1.3749 -1.3906 -0.3788
28093SOL    HW284858   4.143   4.030   6.594 -2.1557  0.3592 -0.7679
28094SOL     OW84859   3.083   5.643   6.709 -0.4771 -0.8821  0.7014
28094SOL    HW184860   3.161   5.601   6.671 -0.2663  1.1897 -1.3184
28094SOL    HW284861   3.112   5.731   6.733 -2.7972  1.1910 -3.1623
28095SOL     OW84862   9.062   9.618   5.944  0.3713  0.3647 -0.2101
28095SOL    HW184863   9.111   9.538   5.922  0.9487  1.1060 -1.7766
28095SOL    HW284864   9.127   9.688   5.937 -0.1030  0.9895  1.2407
28096SOL     OW84865   8.519   5.567   1.855 -0.2813 -1.2355  0.9100
28096SOL    HW184866   8.531   5.635   1.922  0.0921 -1.5909  1.2143
28096SOL    HW284867   8.514   5.615   1.773  0.6518 -0.8648  1.0486
28097SOL     OW84868   4.761   4.928   6.686  0.2805 -0.4287 -0.0618
28097SOL    HW184869   4.792   4.838   6.697  0.7432 -0.2191  0.4083
28097SOL    HW284870   4.667   4.923   6.704 -0.0555 -1.1304 -1.8346
28098SOL     OW84871   2.048   7.197   4.140 -0.1692  0.3020  0.1408
28098SOL    HW184872   2.053   7.102   4.132  0.3459  0.1956  1.4917
28098SOL    HW284873   2.113   7.230   4.078  0.6113 -0.2780  0.6461
28099SOL     OW84874   3.629   4.582   4.800  0.1809  0.0272  0.7455
28099SOL    HW184875   3.681   4.636   4.859  0.8288  0.0157  0.1919
28099SOL    HW284876   3.653   4.492   4.821  2.0631  0.0585 -0.9678
28100SOL     OW84877   6.097   6.604   7.006  0.0461 -0.1388  0.0202
28100SOL    HW184878   6.164   6.557   6.956 -0.6037  0.2614 -1.2671
28100SOL    HW284879   6.138   6.687   7.030 -0.2880  0.5468 -1.6564
28101SOL     OW84880   4.767   0.267   3.035 -0.3876  0.1125 -0.2164
28101SOL    HW184881   4.715   0.310   2.967  0.7915  1.6653 -0.1869
28101SOL    HW284882   4.719   0.282   3.116 -0.5472  0.4186 -0.3682
28102SOL     OW84883   8.589   6.500   8.738  0.1443  0.6855  0.0171
28102SOL    HW184884   8.676   6.518   8.776  1.4402  1.5517 -3.0530
28102SOL    HW284885   8.596   6.411   8.704 -0.2997  0.6267  0.0849
28103SOL     OW84886   9.632   9.715   9.248 -0.3585  0.3740  0.1239
28103SOL    HW184887   9.594   9.644   9.300  0.2258 -0.4053 -0.4870
28103SOL    HW284888   9.717   9.730   9.288  0.1606 -0.3388 -0.6800
28104SOL     OW84889   3.249   5.003   9.872  0.4629  0.6714 -0.4103
28104SOL    HW184890   3.341   5.023   9.856  0.4608 -0.4638 -2.2137
28104SOL    HW284891   3.202   5.078   9.836  0.6286  2.7982  3.2770
28105SOL     OW84892   6.524   5.797   8.946  0.1270  0.2884 -0.1461
28105SOL    HW184893   6.457   5.733   8.971 -0.6346  0.8783 -0.6266
28105SOL    HW284894   6.522   5.862   9.016  1.2253 -0.4323  0.5809
28106SOL     OW84895   0.273   2.757   5.060  0.4696  0.1168 -0.2119
28106SOL    HW184896   0.279   2.852   5.048  1.8971  0.0127 -0.4263
28106SOL    HW284897   0.304   2.742   5.149 -0.8932 -0.0595  0.2594
28107SOL     OW84898   5.911   1.749   5.232 -0.1813  0.1392 -0.1264
28107SOL    HW184899   5.841   1.744   5.297 -1.1154  2.1263 -0.8897
28107SOL    HW284900   5.980   1.799   5.275 -0.8879  1.6486 -0.6501
28108SOL     OW84901   9.549   2.301   2.257  0.2343 -0.0033  0.2171
28108SOL    HW184902   9.476   2.355   2.227  0.7123  1.1102  0.9896
28108SOL    HW284903   9.532   2.287   2.350  2.5476  3.0125  1.2662
28109SOL     OW84904   5.877   9.709   0.535  0.0441 -0.5372 -0.5894
28109SOL    HW184905   5.821   9.737   0.463 -0.4384  0.2951  0.1074
28109SOL    HW284906   5.851   9.763   0.609 -0.5305 -2.4331  0.6509
28110SOL     OW84907   5.459   7.217   8.568 -0.1723  0.1156 -0.1656
28110SOL    HW184908   5.492   7.145   8.514 -0.4535 -0.4523  0.4063
28110SOL    HW284909   5.372   7.235   8.533 -0.0106  0.3299 -0.4565
28111SOL     OW84910   8.850   7.015   5.289  0.7317  0.8063  0.0129
28111SOL    HW184911   8.941   6.986   5.295  0.8183  1.3866  2.3360
28111SOL    HW284912   8.856   7.104   5.255  1.1298  1.1547  0.9500
28112SOL     OW84913   8.043   9.252   6.996 -0.7790 -0.4098  0.4567
28112SOL    HW184914   8.087   9.171   6.970  1.1539  0.5279  0.5977
28112SOL    HW284915   7.980   9.226   7.063 -1.2165 -1.9636 -0.5269
28113SOL     OW84916   7.743   7.619   0.347  0.2284 -0.1357  0.5950
28113SOL    HW184917   7.656   7.607   0.385  0.8937 -1.6918  1.7262
28113SOL    HW284918   7.785   7.533   0.354  2.2703  0.8432  1.1252
28114SOL     OW84919   0.801   0.211   7.565  0.0227  0.1822  0.4314
28114SOL    HW184920   0.765   0.131   7.527 -2.2530  1.4537 -0.3069
28114SOL    HW284921   0.830   0.262   7.489 -0.1112  0.7398  0.7482
28115SOL     OW84922   3.915   6.656   1.821 -0.7480  0.2573  0.0771
28115SOL    HW184923   3.919   6.741   1.776  0.6322 -1.4582 -3.4498
28115SOL    HW284924   3.988   6.659   1.883 -1.4485  2.0239  0.8882
28116SOL     OW84925   6.058   3.309   0.810 -0.5566  0.2735  0.1194
28116SOL    HW184926   6.073   3.336   0.720  1.1166  1.0256  0.5622
28116SOL    HW284927   5.964   3.293   0.816 -0.4739 -1.5898 -2.1923
28117SOL     OW84928   2.344   6.441   0.402 -0.5152 -0.1372 -0.3468
28117SOL    HW184929   2.305   6.498   0.336  0.4682 -0.2501 -1.0617
28117SOL    HW284930   2.391   6.375   0.351  0.2926 -0.2143  0.4713
28118SOL     OW84931   4.231   9.539   4.146  0.0336 -0.0563  0.2078
28118SOL    HW184932   4.230   9.628   4.111  2.9698 -0.4742 -1.2287
28118SOL    HW284933   4.255   9.485   4.071  0.2103 -1.8429  1.4983
28119SOL     OW84934   8.754   4.738   5.838  0.2090 -0.1029 -0.6001
28119SOL    HW184935   8.703   4.752   5.758 -0.2178  0.6127 -0.2145
28119SOL    HW284936   8.739   4.646   5.860 -0.2055 -0.1314 -0.9816
28120SOL     OW84937   4.654   1.434   2.855 -0.2072  0.0993  0.3543
28120SOL    HW184938   4.710   1.509   2.836 -0.1234  0.0402  0.3654
28120SOL    HW284939   4.571   1.472   2.882 -0.4297  0.1776 -0.4314
28121SOL     OW84940   0.388   6.100   8.947 -0.0250  0.0824 -0.4252
28121SOL    HW184941   0.314   6.100   8.886  0.6003 -2.1983 -1.2646
28121SOL    HW284942   0.464   6.123   8.893  0.0117  2.0743  0.3663
28122SOL     OW84943   3.369   7.554   7.285 -0.1837  0.3153  0.3595
28122SOL    HW184944   3.274   7.553   7.296 -0.3971 -1.5694 -1.1596
28122SOL    HW284945   3.395   7.644   7.303 -2.4805  1.3169 -0.9885
28123SOL     OW84946   8.983   2.547   1.963  0.1226 -0.0877  0.1484
28123SOL    HW184947   8.952   2.465   2.002 -0.4976 -0.2101 -0.5924
28123SOL    HW284948   9.076   2.531   1.945  0.1325 -0.4414  0.4943
28124SOL     OW84949   5.383   4.926   8.849 -0.4339 -0.7726 -0.3210
28124SOL    HW184950   5.343   5.003   8.810  0.0083 -0.8758 -1.0050
28124SOL    HW284951   5.411   4.954   8.936  0.2661  0.0207 -0.7894
28125SOL     OW84952   5.520   3.077   6.912 -0.5106  0.2899  0.1231
28125SOL    HW184953   5.476   3.106   6.992 -2.1742  0.7151 -0.8763
28125SOL    HW284954   5.558   3.157   6.876 -3.2419  1.0069 -1.5141
28126SOL     OW84955   4.828   5.514   6.710  0.0545  0.2271 -0.0850
28126SOL    HW184956   4.867   5.600   6.725 -1.8843  1.3831 -1.2381
28126SOL    HW284957   4.880   5.476   6.639  0.0467  1.0608 -0.5464
28127SOL     OW84958   2.205   2.522   3.501  0.1298 -0.1049  0.5610
28127SOL    HW184959   2.196   2.546   3.409  1.6839 -1.2973  0.0464
28127SOL    HW284960   2.218   2.427   3.499  2.9452  0.1592  1.7363
28128SOL     OW84961   8.256   6.521   3.431 -0.4610  0.7336 -0.4427
28128SOL    HW184962   8.211   6.592   3.385 -1.0238  0.4297 -0.3683
28128SOL    HW284963   8.337   6.561   3.463  0.6573  0.6206 -2.8944
28129SOL     OW84964   8.040   1.525   0.334  0.2930  0.0926  0.1135
28129SOL    HW184965   7.959   1.574   0.350 -0.0487 -0.3090 -0.3679
28129SOL    HW284966   8.060   1.483   0.418 -0.6938 -0.8319 -0.0957
28130SOL     OW84967   3.905   5.523   5.253  0.7349 -0.5311  0.0354
28130SOL    HW184968   3.885   5.616   5.245  1.3871 -0.4286 -0.4606
28130SOL    HW284969   3.913   5.491   5.163 -0.2619 -1.2536  0.1773
28131SOL     OW84970   2.948   2.766   5.356  0.1206  0.6347  0.0139
28131SOL    HW184971   2.976   2.749   5.446  1.7588 -1.6290 -0.8358
28131SOL    HW284972   2.962   2.860   5.345  2.3443  0.5586  1.3766
28132SOL     OW84973   2.764   6.822   2.760  0.5901  1.1285 -0.0787
28132SOL    HW184974   2.827   6.851   2.694  2.3143 -0.1590  0.9106
28132SOL    HW284975   2.762   6.727   2.752 -1.3188  1.1215 -0.0979
28133SOL     OW84976   1.418   7.246   5.666 -0.0582 -0.5928 -0.5976
28133SOL    HW184977   1.333   7.216   5.699  0.2809 -0.5160  0.3920
28133SOL    HW284978   1.469   7.165   5.658  0.4199 -0.4474  0.7708
28134SOL     OW84979   9.887   1.712   0.624 -0.3159  0.1676 -0.2489
28134SOL    HW184980   9.869   1.700   0.717  1.1072 -2.7083 -0.2357
28134SOL    HW284981   9.959   1.652   0.605  0.0460  1.2951 -3.0554
28135SOL     OW84982   6.720   1.290   5.987  0.1352 -0.0960 -0.1877
28135SOL    HW184983   6.793   1.321   5.934 -1.0237 -0.0045 -1.8308
28135SOL    HW284984   6.730   1.195   5.988 -0.7969 -0.2871 -2.2178
28136SOL     OW84985   1.251   5.046   4.106  0.4167 -0.4816 -0.1626
28136SOL    HW184986   1.274   4.959   4.139  2.6312 -0.2539 -0.8961
28136SOL    HW284987   1.284   5.106   4.173 -0.6795 -0.1867  0.1210
28137SOL     OW84988   5.939   1.519   6.659  0.2085 -0.0066 -0.0865
28137SOL    HW184989   5.957   1.476   6.575  0.2634 -0.3676  0.1049
28137SOL    HW284990   6.023   1.557   6.685  0.1526  0.2436 -0.2725
28138SOL     OW84991   1.636   0.874   4.666 -0.1764 -0.5692  0.0768
28138SOL    HW184992   1.619   0.798   4.610 -0.2313 -1.0231  0.7063
28138SOL    HW284993   1.587   0.857   4.746  0.4559 -0.2410  0.5395
28139SOL     OW84994   6.714   1.653   2.728 -0.0826  0.2257 -0.2344
28139SOL    HW184995   6.742   1.584   2.668  1.8363  2.2496 -1.8643
28139SOL    HW284996   6.686   1.724   2.670  0.0165  1.5876  1.3301
28140SOL     OW84997   6.714   8.360   6.896  0.0091 -0.5770 -0.3608
28140SOL    HW184998   6.662   8.311   6.833 -2.3772  2.4151 -0.9111
28140SOL    HW284999   6.758   8.427   6.844 -0.8889  1.0642  0.9310
28141SOL     OW85000   6.191   4.816   6.120 -0.1299  0.6758  0.1518
28141SOL    HW185001   6.188   4.792   6.028  0.3043  0.1555  0.2700
28141SOL    HW285002   6.111   4.778   6.157  1.2812 -2.0931  0.6695
28142SOL     OW85003   6.341   6.737   2.147  0.4023 -0.4773 -0.1974
28142SOL    HW185004   6.328   6.709   2.056  0.7648 -2.0940  0.2116
28142SOL    HW285005   6.420   6.690   2.174  0.6993  0.5457  0.7399
28143SOL     OW85006   1.897   7.339   2.957  0.5014 -0.1287  0.1731
28143SOL    HW185007   1.934   7.325   2.870 -0.1469 -0.6314 -0.0319
28143SOL    HW285008   1.943   7.276   3.013 -0.4372 -1.1722 -0.1980
28144SOL     OW85009   9.535   9.631   3.660  0.4219 -0.1815 -0.0130
28144SOL    HW185010   9.526   9.536   3.647 -1.1941  0.1852 -2.2350
28144SOL    HW285011   9.490   9.669   3.585 -0.8685  2.3986  1.9412
28145SOL     OW85012   6.203   4.552   1.662  0.0910 -0.0695 -0.1148
28145SOL    HW185013   6.191   4.502   1.581 -0.0638  1.7509 -1.2655
28145SOL    HW285014   6.274   4.613   1.642 -2.3422  2.9572 -0.2129
28146SOL     OW85015   7.760   4.182   8.981 -0.0932 -0.0427  0.2839
28146SOL    HW185016   7.708   4.227   8.915  1.5712  0.8110 -0.5178
28146SOL    HW285017   7.763   4.244   9.054 -0.3401 -0.1610  0.3935
28147SOL     OW85018   2.824   4.642   3.914 -0.0454  0.0753 -0.3231
28147SOL    HW185019   2.823   4.736   3.933 -0.7719  0.0867 -0.3789
28147SOL    HW285020   2.781   4.602   3.990  0.9638 -0.2939  0.0716
28148SOL     OW85021   5.736   0.071   5.478  0.2162 -0.0665 -0.1664
28148SOL    HW185022   5.756   0.094   5.387 -2.0012 -0.6660 -0.8828
28148SOL    HW285023   5.666   0.133   5.503 -1.5049 -1.9670 -0.0315
28149SOL     OW85024   0.283   0.772   3.119  0.2949  0.0641  0.6524
28149SOL    HW185025   0.190   0.792   3.119  0.3899  0.5243  0.2671
28149SOL    HW285026   0.289   0.684   3.155 -0.4451 -0.6946 -0.9784
28150SOL     OW85027   0.476   2.612   4.922  0.1076  0.0778  0.4543
28150SOL    HW185028   0.507   2.689   4.874 -0.6741 -0.1873 -0.5205
28150SOL    HW285029   0.426   2.647   4.995  2.1729  0.5036  1.7304
28151SOL     OW85030   0.266   4.200   4.933  0.0412  0.1253  1.1776
28151SOL    HW185031   0.336   4.137   4.951  0.5128  0.0610 -0.6434
28151SOL    HW285032   0.284   4.274   4.990 -0.2435 -1.1668  3.0195
28152SOL     OW85033   3.818   6.403   6.194  0.2620 -0.1464  0.0964
28152SOL    HW185034   3.870   6.483   6.182 -1.0889  0.6203 -0.9556
28152SOL    HW285035   3.793   6.405   6.286 -1.4829  1.8119 -0.3323
28153SOL     OW85036   2.549   7.988   4.979 -0.2316 -0.4376 -0.4487
28153SOL    HW185037   2.468   7.990   4.929 -1.9229 -1.4578  2.0716
28153SOL    HW285038   2.580   7.898   4.972 -0.2120 -0.4613 -0.0794
28154SOL     OW85039   3.430   5.984   2.334 -0.2566 -0.0912  0.5700
28154SOL    HW185040   3.489   5.937   2.274  0.8089  0.4182  1.1797
28154SOL    HW285041   3.362   5.921   2.356  0.7912 -1.1403  0.8815
28155SOL     OW85042   0.801   0.567   9.804 -0.3241 -0.4722 -0.2521
28155SOL    HW185043   0.783   0.483   9.764 -0.9877  0.2759 -1.6017
28155SOL    HW285044   0.896   0.571   9.811 -0.1432 -0.4225 -2.2966
28156SOL     OW85045   1.674   1.755   9.523 -0.0878 -0.0424 -0.0520
28156SOL    HW185046   1.714   1.760   9.436  0.6835  1.3918  0.3465
28156SOL    HW285047   1.660   1.847   9.548  0.2518 -0.4076  1.5862
28157SOL     OW85048   4.732   6.305   5.672 -0.0212  0.2525  0.3142
28157SOL    HW185049   4.822   6.316   5.700  0.5221  1.0694 -1.5605
28157SOL    HW285050   4.685   6.274   5.749  2.1763 -1.8290  0.9128
28158SOL     OW85051   2.220   2.818   2.787  0.5105 -0.3408 -0.3546
28158SOL    HW185052   2.147   2.766   2.821  1.2287 -0.4354  1.1044
28158SOL    HW285053   2.295   2.791   2.839  1.3446  0.6451 -1.0071
28159SOL     OW85054   3.166   8.732   0.485 -0.8947 -0.6779 -0.5676
28159SOL    HW185055   3.174   8.826   0.505 -0.0617 -0.8507 -0.0103
28159SOL    HW285056   3.226   8.719   0.411 -1.0933 -0.7492 -0.7146
28160SOL     OW85057   9.600   3.057   9.673  0.0158 -0.4114 -0.7095
28160SOL    HW185058   9.552   3.079   9.753  0.6103  0.7538 -0.6505
28160SOL    HW285059   9.611   3.140   9.628 -1.4443 -1.2101 -2.6962
28161SOL     OW85060   6.371   7.712   1.165 -0.9326 -0.4178 -0.0638
28161SOL    HW185061   6.420   7.753   1.236 -0.6883 -1.6789  0.5093
28161SOL    HW285062   6.416   7.740   1.085 -0.1798 -0.3657  0.3721
28162SOL     OW85063   8.916   3.483   8.909  0.2649  0.1191  0.2388
28162SOL    HW185064   8.874   3.403   8.879 -0.1549 -0.5898  2.5202
28162SOL    HW285065   8.844   3.539   8.939  0.6772  0.6361  0.2924
28163SOL     OW85066   9.386   2.479   5.597 -0.4848  0.9150 -0.5327
28163SOL    HW185067   9.467   2.508   5.555 -0.3125 -0.9232 -1.5561
28163SOL    HW285068   9.344   2.422   5.532 -3.9546  3.7515 -1.1325
28164SOL     OW85069   1.938   8.654   2.468  0.2336 -0.0390 -0.3527
28164SOL    HW185070   1.934   8.708   2.389 -0.0798  0.0631 -0.2663
28164SOL    HW285071   1.868   8.590   2.456  1.7291 -1.5907 -1.3067
28165SOL     OW85072   4.143   8.764   2.605 -0.0168  0.5139  0.2867
28165SOL    HW185073   4.175   8.842   2.560  2.9834  0.3754  1.9104
28165SOL    HW285074   4.209   8.697   2.586 -2.1456 -1.4856 -0.4920
28166SOL     OW85075   3.091   4.443   3.880 -0.5475  0.6027 -0.4716
28166SOL    HW185076   3.140   4.367   3.911  0.0211  0.6919 -1.1421
28166SOL    HW285077   3.080   4.428   3.786  0.8275  2.0223 -0.8972
28167SOL     OW85078   0.413   9.484   8.031 -0.6194 -0.2280 -0.4010
28167SOL    HW185079   0.441   9.500   8.121  2.0290 -0.1376 -1.1451
28167SOL    HW285080   0.323   9.453   8.039 -0.3764 -0.5007  2.2976
28168SOL     OW85081   4.738   1.643   1.070  0.1993 -0.5021  0.5706
28168SOL    HW185082   4.831   1.659   1.086  0.4203 -1.3088  0.1513
28168SOL    HW285083   4.717   1.698   0.995  0.5095 -0.8148  0.2489
28169SOL     OW85084   2.818   7.227   6.584  0.5628  0.4423  0.1431
28169SOL    HW185085   2.834   7.294   6.517  2.9301  0.2067  0.3798
28169SOL    HW285086   2.781   7.276   6.658  1.2381  1.3281 -0.0831
28170SOL     OW85087   1.647   6.157   7.524  0.1864  0.6604  0.4793
28170SOL    HW185088   1.672   6.067   7.502  1.4045  1.3369 -1.0464
28170SOL    HW285089   1.552   6.159   7.511  0.1613 -0.3712  0.4164
28171SOL     OW85090   2.228   4.954   2.178  0.5176  0.9398 -0.3707
28171SOL    HW185091   2.163   5.014   2.143  0.1240  0.5912 -0.2489
28171SOL    HW285092   2.177   4.884   2.219  0.9672  0.5121 -0.5280
28172SOL     OW85093   8.416   5.478   3.701  0.1629  0.3385 -0.0926
28172SOL    HW185094   8.404   5.396   3.652 -0.1870  1.3086 -1.7084
28172SOL    HW285095   8.422   5.545   3.633 -0.0417  1.7209  1.2153
28173SOL     OW85096   9.825   4.360   3.492 -0.3504  0.3071  0.0394
28173SOL    HW185097   9.835   4.390   3.402  2.1633  1.5822  0.6348
28173SOL    HW285098   9.853   4.269   3.491 -0.7920  0.1744 -0.5390
28174SOL     OW85099   4.134   9.172   4.679  0.4937  0.3427  0.0938
28174SOL    HW185100   4.212   9.220   4.709  0.2991  0.3198  0.6434
28174SOL    HW285101   4.066   9.195   4.742  0.2707 -0.2874  0.0904
28175SOL     OW85102   1.975   7.667   0.551  0.0666 -0.5370 -0.0324
28175SOL    HW185103   1.974   7.571   0.557 -0.2653 -0.5945 -0.7714
28175SOL    HW285104   2.067   7.691   0.560  0.2234 -0.9784 -0.3984
28176SOL     OW85105   4.401   5.142   5.449  0.0204  0.3793  0.5006
28176SOL    HW185106   4.323   5.143   5.504  0.0694  1.2192  0.5698
28176SOL    HW285107   4.473   5.132   5.510 -0.0673 -1.4489  0.3603
28177SOL     OW85108   5.666   6.695   4.807  0.3948 -0.1093 -0.4134
28177SOL    HW185109   5.584   6.664   4.847  0.9319  0.1983  0.9503
28177SOL    HW285110   5.637   6.745   4.730 -0.6699 -0.4313 -0.2407
28178SOL     OW85111   9.481   0.078   1.695  0.0944  0.1588  0.0345
28178SOL    HW185112   9.431   0.063   1.775  1.3227  0.1742  0.8230
28178SOL    HW285113   9.423   0.046   1.625 -0.4579 -1.1211  1.0290
28179SOL     OW85114   5.677   2.419   4.957  0.4109 -0.4249 -0.1081
28179SOL    HW185115   5.750   2.480   4.948 -0.4613  0.8324  1.0932
28179SOL    HW285116   5.689   2.358   4.884  1.6983  0.7462 -0.9342
28180SOL     OW85117   1.359   8.702   5.664 -0.4692 -0.5491 -0.2996
28180SOL    HW185118   1.270   8.699   5.630  0.6916  0.8163 -3.9183
28180SOL    HW285119   1.364   8.787   5.708 -1.0902 -0.9027  0.4772
28181SOL     OW85120   9.801   7.903   4.731  0.3734  0.5036  0.6013
28181SOL    HW185121   9.751   7.984   4.739  0.0312  0.3955 -0.3982
28181SOL    HW285122   9.871   7.912   4.797  0.1123  1.4352  0.7649
28182SOL     OW85123   5.177   6.865   7.955 -0.1063 -0.2023  0.1184
28182SOL    HW185124   5.105   6.883   8.016 -1.8271 -1.2832 -1.4876
28182SOL    HW285125   5.201   6.774   7.974  0.2478 -0.1178  0.0697
28183SOL     OW85126   1.814   9.284   0.455  0.0452 -0.3188  0.1479
28183SOL    HW185127   1.791   9.334   0.376 -0.6573 -0.2281  0.3972
28183SOL    HW285128   1.828   9.195   0.423  0.5318 -0.1226 -0.1910
28184SOL     OW85129   5.864   2.976   4.057 -0.8170 -0.5341  0.0098
28184SOL    HW185130   5.833   2.889   4.084 -0.8204 -0.3637  0.5846
28184SOL    HW285131   5.960   2.967   4.053 -0.9256 -1.0892 -1.8718
28185SOL     OW85132   5.489   5.726   4.435 -0.7175  0.5706 -0.2993
28185SOL    HW185133   5.519   5.816   4.421 -0.2538  0.3720 -0.6391
28185SOL    HW285134   5.466   5.722   4.527 -0.8678  1.0761 -0.3130
28186SOL     OW85135   9.084   1.000   5.337 -0.2090  0.6478 -0.1742
28186SOL    HW185136   9.177   0.987   5.356 -0.5764  0.0321  1.3386
28186SOL    HW285137   9.054   1.062   5.404 -1.6883 -2.0237  1.8355
28187SOL     OW85138   0.298   8.864   9.708  0.3697  0.0321  0.1940
28187SOL    HW185139   0.369   8.829   9.654 -0.3398 -0.9248 -0.1478
28187SOL    HW285140   0.340   8.932   9.761  1.1543  0.7793 -1.3242
28188SOL     OW85141   1.004   3.404   5.858 -0.6281  0.1497  0.2220
28188SOL    HW185142   0.957   3.409   5.775 -0.6504 -1.2915  0.1231
28188SOL    HW285143   0.967   3.328   5.903 -0.0877  0.4482  1.2187
28189SOL     OW85144   0.818   5.528   0.869 -0.2529  0.0985 -0.0760
28189SOL    HW185145   0.859   5.615   0.879  2.2584 -0.8665 -1.1906
28189SOL    HW285146   0.867   5.472   0.929 -1.7979 -0.6333  0.5612
28190SOL     OW85147   5.309   0.116   0.252  0.6353 -0.0465 -0.1299
28190SOL    HW185148   5.216   0.136   0.258  1.2114  3.3849 -0.8162
28190SOL    HW285149   5.337   0.154   0.169  2.6889 -0.9763  0.0648
28191SOL     OW85150   2.380   4.228   3.021  0.6910  0.1643 -0.0212
28191SOL    HW185151   2.460   4.182   3.048  0.5687 -1.0136 -1.5108
28191SOL    HW285152   2.387   4.314   3.062  2.9234  0.2392 -0.4171
28192SOL     OW85153   9.183   6.273   0.571  0.1518 -0.2132 -0.3379
28192SOL    HW185154   9.260   6.280   0.628  0.1372  0.0788 -0.3584
28192SOL    HW285155   9.212   6.216   0.500  0.4912  0.2699 -0.5911
28193SOL     OW85156   0.649   1.188   4.988  0.0973  0.1817  0.5212
28193SOL    HW185157   0.606   1.143   4.916 -1.9515  1.6044  0.7769
28193SOL    HW285158   0.699   1.258   4.946 -1.2171  1.1061  0.4384
28194SOL     OW85159   1.070   8.043   2.295 -0.0359 -0.4679  0.1008
28194SOL    HW185160   1.092   7.950   2.289  1.7288 -0.2166  1.5984
28194SOL    HW285161   1.060   8.059   2.389  0.5631  1.0234 -0.0606
28195SOL     OW85162   4.843   5.856   1.037  0.4728  0.1620 -0.6622
28195SOL    HW185163   4.841   5.947   1.066  1.0286 -0.4752  1.5844
28195SOL    HW285164   4.779   5.811   1.093  1.0090 -1.0240 -0.9613
28196SOL     OW85165   1.310   1.654   6.140  0.1786  0.1881 -0.0555
28196SOL    HW185166   1.391   1.628   6.096  0.4341  0.9495 -0.0368
28196SOL    HW285167   1.263   1.571   6.152  1.2381 -0.3714  0.5093
28197SOL     OW85168   7.558   4.469   8.729 -0.1764  0.3401  0.2610
28197SOL    HW185169   7.621   4.513   8.786 -1.7900  0.0491  2.3665
28197SOL    HW285170   7.556   4.378   8.760 -0.5599 -0.0279 -0.7726
28198SOL     OW85171   8.445   1.786   8.563 -0.4369  0.0181 -0.5949
28198SOL    HW185172   8.380   1.837   8.611  0.7567 -0.1091  1.2525
28198SOL    HW285173   8.521   1.843   8.557 -0.1379 -0.4367 -1.2313
28199SOL     OW85174   9.617   9.797   1.507 -0.4305 -0.0630  0.1546
28199SOL    HW185175   9.552   9.754   1.452  1.6298 -1.7307 -1.1570
28199SOL    HW285176   9.588   9.782   1.596 -1.7830 -0.8397 -0.3930
28200SOL     OW85177   7.316   4.674   8.582  0.4039 -0.1989  0.2453
28200SOL    HW185178   7.308   4.623   8.663  2.8344 -1.4014 -0.1729
28200SOL    HW285179   7.320   4.765   8.612  1.8278 -0.6487  1.5782
28201SOL     OW85180   9.582   3.728   5.768 -0.5057 -0.7652  0.4142
28201SOL    HW185181   9.543   3.654   5.721 -0.9254 -0.0865 -0.3192
28201SOL    HW285182   9.554   3.805   5.719  0.9626 -0.1879  0.4483
28202SOL     OW85183   4.273   8.620   6.541 -1.1273 -0.2463  0.1329
28202SOL    HW185184   4.274   8.632   6.636 -1.0655 -0.8136  0.2071
28202SOL    HW285185   4.251   8.707   6.507 -1.4352 -0.1014  0.6742
28203SOL     OW85186   5.843   1.565   5.976  0.0894 -0.3780  0.1017
28203SOL    HW185187   5.761   1.591   6.018  0.1890 -1.5535  1.0687
28203SOL    HW285188   5.903   1.546   6.049  2.3144  3.4849 -0.4892
28204SOL     OW85189   9.113   4.213   7.744  0.2473 -0.6282  0.4016
28204SOL    HW185190   9.101   4.306   7.761  0.1843 -0.4050 -0.7622
28204SOL    HW285191   9.058   4.169   7.808  0.4115  0.1295  1.0745
28205SOL     OW85192   7.179   7.003   7.307  0.1247 -0.0972 -0.4853
28205SOL    HW185193   7.101   6.966   7.348  0.1452  1.2599  0.8631
28205SOL    HW285194   7.240   6.930   7.303 -0.2862 -0.5550  0.8954
28206SOL     OW85195   2.338   5.076   1.655  0.8298 -0.6917 -0.5178
28206SOL    HW185196   2.375   5.093   1.568  1.9842  0.7698  0.2066
28206SOL    HW285197   2.400   5.016   1.696  0.1640 -1.5666 -0.7647
28207SOL     OW85198   0.789   6.092   5.094 -0.1207 -0.1552  0.1393
28207SOL    HW185199   0.759   6.033   5.025  0.5481 -0.3832  0.0321
28207SOL    HW285200   0.732   6.168   5.087 -0.4844 -0.4582 -0.2326
28208SOL     OW85201   5.671   5.736   0.273  0.3830 -0.3119  0.6666
28208SOL    HW185202   5.597   5.683   0.303  1.5463 -1.3507  1.7816
28208SOL    HW285203   5.684   5.800   0.343 -0.7763  1.2724 -0.5021
28209SOL     OW85204   6.359   0.506   0.872  0.4740 -0.0046 -0.6352
28209SOL    HW185205   6.338   0.527   0.963  1.3443 -0.8708 -0.2196
28209SOL    HW285206   6.296   0.556   0.821 -0.9332 -0.5744  0.4768
28210SOL     OW85207   8.588   3.732   9.230 -1.1375 -0.3512  0.3592
28210SOL    HW185208   8.602   3.825   9.246 -1.9784 -0.4783  2.1085
28210SOL    HW285209   8.666   3.703   9.184 -0.5983  1.0941  0.3284
28211SOL     OW85210   8.289   7.029   4.985 -0.0827  0.0188  0.0757
28211SOL    HW185211   8.379   7.037   5.017  0.1658  0.3107 -0.6824
28211SOL    HW285212   8.297   6.978   4.904 -0.5145  0.6126 -0.3502
28212SOL     OW85213   1.418   9.499   2.403 -0.2008  0.2941  0.1386
28212SOL    HW185214   1.425   9.586   2.364  0.3358  0.0471 -0.3356
28212SOL    HW285215   1.375   9.514   2.487 -2.0961  0.7617 -0.8386
28213SOL     OW85216   6.123   6.248   6.860  0.8125 -0.1330 -0.1383
28213SOL    HW185217   6.058   6.194   6.815  2.0728 -2.5941  0.8169
28213SOL    HW285218   6.135   6.324   6.803 -1.5737 -0.4467 -1.1810
28214SOL     OW85219   9.789   0.301   4.033 -0.2813  0.5822 -0.7668
28214SOL    HW185220   9.720   0.325   3.971  0.0771  0.0922 -1.3684
28214SOL    HW285221   9.834   0.383   4.053 -1.5513  1.0541  0.2883
28215SOL     OW85222   9.633   0.446   6.005  0.0981 -0.3903 -0.6197
28215SOL    HW185223   9.551   0.435   6.054  0.4450 -2.3306 -0.3931
28215SOL    HW285224   9.701   0.453   6.073  0.0629  2.6371 -0.7603
28216SOL     OW85225   5.342   0.848   9.814  0.3278  0.3525  0.1634
28216SOL    HW185226   5.313   0.898   9.738  1.4332  0.9293  0.1134
28216SOL    HW285227   5.434   0.870   9.825  0.1390  0.4777  1.8265
28217SOL     OW85228   6.750   8.726   2.769 -0.3617 -0.3384  0.2320
28217SOL    HW185229   6.698   8.664   2.717 -1.2327  0.4632  0.1366
28217SOL    HW285230   6.795   8.670   2.833 -0.2566 -1.1955 -0.5579
28218SOL     OW85231   1.008   1.481   0.234  0.1948  0.4679 -0.4683
28218SOL    HW185232   1.004   1.467   0.140  0.0802  1.5236 -0.6334
28218SOL    HW285233   0.918   1.502   0.259  0.2455  0.2979 -0.1446
28219SOL     OW85234   0.040   5.502   1.351  0.1783  0.3114 -0.2728
28219SOL    HW185235  -0.032   5.449   1.387  0.4469 -0.1957 -0.4752
28219SOL    HW285236   0.119   5.466   1.392  0.3210  0.8484 -0.0749
28220SOL     OW85237   9.111   0.417   9.429 -0.7674 -0.3316  0.2525
28220SOL    HW185238   9.029   0.461   9.449  0.6064  1.5046  2.3611
28220SOL    HW285239   9.172   0.448   9.496  1.4586 -2.2356 -0.7291
28221SOL     OW85240   7.248   0.804   7.359  0.4289 -0.4990 -0.1263
28221SOL    HW185241   7.228   0.711   7.353 -1.2008 -0.1206 -1.2224
28221SOL    HW285242   7.162   0.847   7.367  1.1820  0.8391  2.0122
28222SOL     OW85243   2.186   0.963   0.117 -0.4487  0.3934  0.3296
28222SOL    HW185244   2.154   0.882   0.157 -1.2416 -1.2398 -3.1567
28222SOL    HW285245   2.107   1.010   0.091  0.0129  1.3208  0.5736
28223SOL     OW85246   2.970   8.098   3.787 -0.0351  0.1626  0.3507
28223SOL    HW185247   2.928   8.139   3.711 -0.3109 -0.3184  0.2438
28223SOL    HW285248   2.901   8.046   3.828  0.5639 -1.0455 -0.1220
28224SOL     OW85249   0.496   6.579   2.772  0.6518  0.6710  0.6431
28224SOL    HW185250   0.517   6.495   2.814  0.8053 -0.1508 -0.9940
28224SOL    HW285251   0.562   6.639   2.806  0.8896 -0.0003  1.4204
28225SOL     OW85252   7.587   6.187   5.718 -0.3610 -0.2088  0.5943
28225SOL    HW185253   7.515   6.248   5.704 -1.4791 -1.2738  1.4210
28225SOL    HW285254   7.608   6.154   5.631  0.6702  1.7460  0.0540
28226SOL     OW85255   3.715   9.746   8.314 -0.8761 -0.4259  0.0632
28226SOL    HW185256   3.726   9.728   8.407 -0.2421 -0.1259  0.0463
28226SOL    HW285257   3.621   9.734   8.298 -0.9896 -0.4477  0.7413
28227SOL     OW85258   9.761   6.314   6.786  0.0519 -0.7815 -0.0809
28227SOL    HW185259   9.702   6.299   6.711  1.3523 -0.3446 -1.2333
28227SOL    HW285260   9.738   6.402   6.816  1.8177  0.5340 -2.2371
28228SOL     OW85261   5.358   3.270   9.954 -0.2652 -0.5600 -0.1213
28228SOL    HW185262   5.402   3.354   9.939 -0.7901 -0.0367  1.1189
28228SOL    HW285263   5.269   3.285   9.923 -0.6630 -0.2834  1.1104
28229SOL     OW85264   5.773   5.453   5.627 -0.4165  0.2365  0.0435
28229SOL    HW185265   5.686   5.433   5.592 -0.1255 -0.6257 -0.2169
28229SOL    HW285266   5.757   5.486   5.715 -0.9582 -0.9653  0.4207
28230SOL     OW85267   7.852   5.002   2.604 -0.0236 -0.5229 -0.5449
28230SOL    HW185268   7.900   4.922   2.625  0.9030  0.4112  1.0219
28230SOL    HW285269   7.845   5.049   2.687 -1.5814  0.4906 -1.2081
28231SOL     OW85270   5.230   6.145   5.034  0.5697 -0.2959 -0.2503
28231SOL    HW185271   5.296   6.075   5.043 -0.9247 -1.5538  1.8310
28231SOL    HW285272   5.245   6.201   5.111 -0.7105 -0.5768  0.2254
28232SOL     OW85273   6.705   1.074   2.195  0.2090 -0.5749  0.4244
28232SOL    HW185274   6.773   1.034   2.141  0.0232  1.3057 -1.3198
28232SOL    HW285275   6.741   1.160   2.219 -1.3485  0.2685 -0.1498
28233SOL     OW85276   1.115   3.465   2.803  0.0178 -0.9556  0.0892
28233SOL    HW185277   1.054   3.429   2.738  0.8772 -0.6773 -0.8936
28233SOL    HW285278   1.188   3.403   2.805  1.8094  0.9238 -2.0752
28234SOL     OW85279   7.190   4.921   2.998 -0.5688  0.4957  0.4421
28234SOL    HW185280   7.104   4.955   2.973 -1.8396 -3.1069 -0.7760
28234SOL    HW285281   7.234   4.904   2.914  0.5105  0.4224  1.0050
28235SOL     OW85282   2.576   6.098   0.553  0.2418 -0.1371  0.1897
28235SOL    HW185283   2.535   6.176   0.590  1.6268  1.0135 -0.5989
28235SOL    HW285284   2.653   6.082   0.608 -0.2531 -1.2279  0.5996
28236SOL     OW85285   8.021   6.548   5.293 -0.3002  0.0073  0.4394
28236SOL    HW185286   8.051   6.479   5.352  1.7734 -0.0619 -0.6238
28236SOL    HW285287   8.019   6.508   5.207  0.5182  1.1376 -0.1328
28237SOL     OW85288   3.589   5.144   0.714  0.5627  0.4528  0.4220
28237SOL    HW185289   3.623   5.097   0.638  0.0475 -0.2223  0.5992
28237SOL    HW285290   3.501   5.109   0.726  0.7480  0.3308  1.5157
28238SOL     OW85291   5.375   8.277   1.491  0.0461  0.1412 -0.1587
28238SOL    HW185292   5.422   8.196   1.511 -1.3314 -0.5729  0.3779
28238SOL    HW285293   5.337   8.262   1.404  1.5427  1.0845 -1.0085
28239SOL     OW85294   5.803   2.038   2.770  0.1673  0.5935 -0.1700
28239SOL    HW185295   5.881   2.005   2.724  0.2008 -0.6451  0.7410
28239SOL    HW285296   5.837   2.105   2.829  0.4204  0.6951 -0.4289
28240SOL     OW85297   7.062   7.634   9.981 -0.1887  0.0074  0.3605
28240SOL    HW185298   6.970   7.632  10.008 -0.6715  1.2508 -1.0639
28240SOL    HW285299   7.074   7.555   9.929 -0.8091  0.4503 -0.4762
28241SOL     OW85300   1.241   6.093   5.111  0.3609  0.5843  0.3692
28241SOL    HW185301   1.281   6.133   5.189  0.9852  0.9978 -0.1451
28241SOL    HW285302   1.303   6.113   5.040 -0.1909  0.2038 -0.2300
28242SOL     OW85303   6.497   0.638   8.535 -0.2545 -0.1643 -0.0323
28242SOL    HW185304   6.429   0.682   8.586 -0.4464 -1.6272  1.0058
28242SOL    HW285305   6.482   0.545   8.549  0.6070 -0.5731 -1.5941
28243SOL     OW85306   5.116   3.820   0.560  0.4262 -0.0861 -0.1542
28243SOL    HW185307   5.149   3.769   0.635 -2.2907  0.5243  1.5945
28243SOL    HW285308   5.158   3.905   0.568  1.1384 -0.4351 -0.1124
28244SOL     OW85309   7.267   8.864   4.804  0.5590  0.4977 -0.0723
28244SOL    HW185310   7.329   8.818   4.862 -0.2651 -0.6267 -0.0317
28244SOL    HW285311   7.256   8.950   4.845  2.7117  1.0694 -0.5441
28245SOL     OW85312   4.650   1.661   0.392 -0.1711  0.2028 -0.3436
28245SOL    HW185313   4.641   1.578   0.439  1.5954  0.5804  0.7339
28245SOL    HW285314   4.567   1.670   0.344 -0.7162 -1.7888  0.1133
28246SOL     OW85315   5.408   4.547   3.829 -0.1690 -0.3761 -0.0171
28246SOL    HW185316   5.375   4.636   3.814 -1.0393 -0.2026  2.4176
28246SOL    HW285317   5.487   4.559   3.882  1.1035 -1.0023 -1.6998
28247SOL     OW85318   1.820   9.206   9.530  0.4260 -0.6873  0.5394
28247SOL    HW185319   1.798   9.209   9.623  0.2522 -0.5775  0.4952
28247SOL    HW285320   1.897   9.149   9.525 -0.2363 -1.6100  0.6200
28248SOL     OW85321   7.767   1.453   0.508  0.2116  0.1845 -0.5290
28248SOL    HW185322   7.756   1.546   0.489  0.2602  0.1403 -0.7743
28248SOL    HW285323   7.691   1.411   0.468  0.8853 -0.0415 -1.6310
28249SOL     OW85324   4.374   1.898   9.527 -0.4406 -0.1126 -0.3801
28249SOL    HW185325   4.359   1.912   9.620  1.7704 -0.1754  0.0348
28249SOL    HW285326   4.316   1.961   9.484 -1.5766 -0.1504  1.0116
28250SOL     OW85327   8.626   6.519   5.634 -0.3193 -0.0620  0.1087
28250SOL    HW185328   8.676   6.597   5.610  1.2362 -0.8404  0.7179
28250SOL    HW285329   8.535   6.549   5.635  0.3337  2.2223  1.9830
28251SOL     OW85330   9.238   9.002   5.118 -0.0896  0.1889 -0.0385
28251SOL    HW185331   9.309   8.946   5.089  1.4451  1.5583  0.9163
28251SOL    HW285332   9.261   9.025   5.208 -1.5012  1.0452  0.1350
28252SOL     OW85333   9.003   7.186   9.983  0.1333 -0.0242 -0.8151
28252SOL    HW185334   9.059   7.172   9.906  1.3193 -0.2944  0.0654
28252SOL    HW285335   9.041   7.262  10.027 -0.3644 -0.0430 -0.3393
28253SOL     OW85336   9.005   1.721   8.062 -0.1401  0.7961  0.7873
28253SOL    HW185337   9.084   1.670   8.048  0.2111  1.7687 -1.1619
28253SOL    HW285338   8.939   1.657   8.086  0.6852 -0.3613  0.0852
28254SOL     OW85339   5.842   5.961   4.214  0.4031  0.1436 -0.3211
28254SOL    HW185340   5.885   5.995   4.135  0.7301  2.4326  0.7689
28254SOL    HW285341   5.752   5.942   4.185  0.5719  0.7400 -1.2898
28255SOL     OW85342   7.103   0.987   0.767  0.3396 -1.2724 -1.2624
28255SOL    HW185343   7.106   0.893   0.787  1.6818 -1.0858 -0.4652
28255SOL    HW285344   7.018   1.000   0.725  0.3786 -2.9488 -1.9352
28256SOL     OW85345   4.590   5.960   9.154 -0.1028  0.7813 -0.2390
28256SOL    HW185346   4.586   5.875   9.112 -1.4869  0.6294  0.1201
28256SOL    HW285347   4.664   5.955   9.214 -0.2407 -0.2240 -0.1396
28257SOL     OW85348   6.267   2.017   4.302  0.2939 -0.3960  0.3546
28257SOL    HW185349   6.342   2.071   4.275  0.1652 -0.2890  0.2071
28257SOL    HW285350   6.258   1.952   4.233  0.1412 -0.2991  0.2827
28258SOL     OW85351   7.040   2.401   8.972 -0.6869 -0.3919  0.2573
28258SOL    HW185352   7.010   2.474   9.025  1.6833  1.4459 -0.7428
28258SOL    HW285353   7.003   2.418   8.885  1.8505  1.1390 -0.6296
28259SOL     OW85354   8.914   7.400   4.229  0.1070 -0.0211 -0.1237
28259SOL    HW185355   8.926   7.453   4.307 -2.6492  2.0473 -0.9722
28259SOL    HW285356   8.868   7.457   4.167  2.1326 -1.5476 -3.3203
28260SOL     OW85357   4.956   2.676   9.045  0.1459  0.2308 -0.5193
28260SOL    HW185358   5.041   2.703   9.009  1.1582  0.3984  1.8114
28260SOL    HW285359   4.953   2.582   9.031  1.3080  0.0272  0.4724
28261SOL     OW85360   8.294   9.397   3.779  0.5782  0.5473  0.6923
28261SOL    HW185361   8.346   9.465   3.822  2.3019 -0.1917 -0.1387
28261SOL    HW285362   8.302   9.320   3.836 -1.2606  0.9333  1.5638
28262SOL     OW85363   8.752   5.526   5.953 -0.4668 -0.2897  0.3438
28262SOL    HW185364   8.676   5.565   5.909 -1.4977 -1.4062  1.0785
28262SOL    HW285365   8.782   5.458   5.894 -2.0651 -2.0240  1.4380
28263SOL     OW85366   3.192   6.692   2.067 -0.2190  0.3915  0.1875
28263SOL    HW185367   3.191   6.612   2.119  0.5824 -0.3257 -0.8521
28263SOL    HW285368   3.118   6.743   2.099 -0.9291 -0.9010  0.6622
28264SOL     OW85369   0.685   9.356   1.334 -0.0091  0.5779  0.4723
28264SOL    HW185370   0.643   9.401   1.261 -0.2819 -0.8292 -0.2690
28264SOL    HW285371   0.612   9.314   1.381  0.4672 -2.3903 -1.1690
28265SOL     OW85372   7.282   0.124   2.489 -0.0777  0.7405 -0.3387
28265SOL    HW185373   7.245   0.098   2.573 -0.4263  1.2539 -0.3268
28265SOL    HW285374   7.257   0.216   2.480  0.5172  0.8683 -0.7010
28266SOL     OW85375   1.556   5.127   7.644 -0.0900  0.5681 -0.3790
28266SOL    HW185376   1.576   5.034   7.635  0.3454  0.5869  0.3741
28266SOL    HW285377   1.576   5.164   7.558 -0.8537 -0.1281 -0.8825
28267SOL     OW85378   5.807   9.200   8.894  0.2104 -0.1589  0.0088
28267SOL    HW185379   5.858   9.279   8.909 -0.6402  0.3066  0.5116
28267SOL    HW285380   5.795   9.163   8.982 -0.1584 -0.3625 -0.1291
28268SOL     OW85381   5.362   6.558   0.257 -0.1641  0.6525  0.2964
28268SOL    HW185382   5.428   6.517   0.202 -1.0068  0.8362 -0.8921
28268SOL    HW285383   5.409   6.584   0.337  0.7299 -1.1108  0.3793
28269SOL     OW85384   2.696   3.255   7.877  0.3500 -0.7606 -0.2287
28269SOL    HW185385   2.646   3.326   7.918 -0.2734 -2.0516  1.3709
28269SOL    HW285386   2.634   3.211   7.820  0.6817 -0.1864 -1.0583
28270SOL     OW85387   0.749   0.983   6.411 -0.1016 -0.2090 -0.1318
28270SOL    HW185388   0.736   0.910   6.351 -0.0199  0.3392 -0.8303
28270SOL    HW285389   0.815   1.038   6.368 -0.6775  0.6351  0.0366
28271SOL     OW85390   6.668   1.390   8.905 -0.2547 -0.0940  0.3214
28271SOL    HW185391   6.718   1.469   8.922 -0.7994  0.3007  0.0902
28271SOL    HW285392   6.618   1.376   8.986  0.3324 -0.5750  0.6112
28272SOL     OW85393   0.923   9.818   4.847  0.1753  0.2356 -0.7051
28272SOL    HW185394   0.864   9.894   4.847 -1.3795 -0.9007 -2.3268
28272SOL    HW285395   1.007   9.853   4.818 -0.1944  1.5359 -0.2835
28273SOL     OW85396   6.101   5.317   3.523  0.0111  0.7171 -0.7431
28273SOL    HW185397   6.045   5.260   3.576 -0.4223  0.4157 -1.5050
28273SOL    HW285398   6.180   5.265   3.508 -0.9808 -0.3124 -2.6790
28274SOL     OW85399   8.473   7.656   2.093  0.1765 -0.4535  0.0961
28274SOL    HW185400   8.423   7.734   2.070  1.5444  0.8574  1.3604
28274SOL    HW285401   8.500   7.670   2.184 -1.2597 -3.3703  1.1123
28275SOL     OW85402   0.017   8.489   3.241 -0.1918 -0.2121 -0.1850
28275SOL    HW185403   0.011   8.405   3.286 -0.5736 -0.3074 -0.4047
28275SOL    HW285404  -0.010   8.470   3.151  1.8693 -0.3039 -0.8314
28276SOL     OW85405   0.361   0.084   0.581 -0.4365  0.2966 -1.2028
28276SOL    HW185406   0.454   0.078   0.603 -0.9375 -2.4344  0.6724
28276SOL    HW285407   0.347   0.177   0.565  2.3626  0.9844 -0.3664
28277SOL     OW85408   1.114   3.555   7.304  0.2272 -0.2358  0.1973
28277SOL    HW185409   1.208   3.572   7.292  0.2094  0.3253  0.7854
28277SOL    HW285410   1.085   3.523   7.219  0.5839  1.3238 -0.5591
28278SOL     OW85411   0.672   2.104   7.141  0.2961 -0.1861 -0.0627
28278SOL    HW185412   0.766   2.113   7.126  0.0841  0.0871 -1.3363
28278SOL    HW285413   0.632   2.123   7.056 -0.8444 -1.5892  0.1201
28279SOL     OW85414   6.594   5.824   5.783 -0.1280  0.3720 -0.6677
28279SOL    HW185415   6.672   5.871   5.754  1.2358 -0.7368  1.0004
28279SOL    HW285416   6.602   5.820   5.878 -2.4751  0.5980 -0.4015
28280SOL     OW85417   2.523   2.979   0.364  0.0623  0.2994  0.1435
28280SOL    HW185418   2.530   3.074   0.379 -1.7847  0.2551  1.7455
28280SOL    HW285419   2.461   2.971   0.292  0.4056  0.3196 -0.1525
28281SOL     OW85420   1.552   1.863   6.173  1.3069  0.2708  0.0674
28281SOL    HW185421   1.642   1.889   6.195  1.3549 -0.5889  0.9786
28281SOL    HW285422   1.551   1.768   6.187  0.2500  0.2785  0.0816
28282SOL     OW85423   7.486   4.416   1.277 -0.2025  0.0785  0.0536
28282SOL    HW185424   7.393   4.399   1.293 -0.3574 -0.6680 -1.4840
28282SOL    HW285425   7.492   4.427   1.183  1.3305 -0.1593  0.1059
28283SOL     OW85426   1.840   8.706   9.605 -0.2459 -0.2044  0.0558
28283SOL    HW185427   1.774   8.659   9.555 -1.1858  0.3538  0.7361
28283SOL    HW285428   1.792   8.746   9.677  1.0220 -0.6945  1.2172
28284SOL     OW85429   7.102   4.471   0.901 -0.4356 -0.0214 -0.1095
28284SOL    HW185430   7.020   4.510   0.872 -0.3277 -0.1096 -0.5497
28284SOL    HW285431   7.162   4.545   0.910 -0.5404  0.0344  0.1328
28285SOL     OW85432   9.073   9.636   8.805  0.2048  0.4000  0.1860
28285SOL    HW185433   9.133   9.628   8.731 -1.0089 -0.7963 -0.7274
28285SOL    HW285434   8.988   9.612   8.769 -0.6640  1.1389  1.6620
28286SOL     OW85435   0.986   0.065   4.567  0.0895  0.4166 -0.4489
28286SOL    HW185436   1.031   0.108   4.495 -2.4599  3.7407 -0.3181
28286SOL    HW285437   0.924   0.005   4.525  2.6288 -2.2607 -0.6781
28287SOL     OW85438   8.161   4.344   3.778  0.0787 -0.3838 -0.7443
28287SOL    HW185439   8.073   4.307   3.791  0.5813 -1.0214  1.1990
28287SOL    HW285440   8.175   4.339   3.684 -1.8425 -0.5780 -1.0642
28288SOL     OW85441   2.040   0.226   8.189 -0.2888 -0.7036 -0.0459
28288SOL    HW185442   1.973   0.276   8.144 -0.5212 -1.4035 -0.4907
28288SOL    HW285443   2.028   0.248   8.282  0.7173  1.3736 -0.3491
28289SOL     OW85444   6.060   3.015   0.899 -0.1289 -0.2084  0.2953
28289SOL    HW185445   6.054   3.110   0.896 -0.0880 -0.2320 -0.9885
28289SOL    HW285446   6.071   2.995   0.992  0.3656  1.0626  0.5341
28290SOL     OW85447   5.850   2.379   8.067 -0.0890 -0.1493 -0.0468
28290SOL    HW185448   5.757   2.401   8.062  0.0524  0.4878  0.0870
28290SOL    HW285449   5.856   2.321   8.143 -0.3513 -0.0402  0.0616
28291SOL     OW85450   1.648   5.404   4.387 -0.3172 -0.2183  0.5616
28291SOL    HW185451   1.740   5.405   4.414  0.2357 -0.7306 -1.1609
28291SOL    HW285452   1.611   5.328   4.431  0.8452 -1.7100 -0.9005
28292SOL     OW85453   0.413   3.747   3.664  0.2895 -0.2821 -0.1324
28292SOL    HW185454   0.433   3.826   3.615 -0.2745 -0.5340 -0.7800
28292SOL    HW285455   0.444   3.766   3.753 -0.3311  0.8791 -0.1424
28293SOL     OW85456   9.621   3.314   7.484  0.4047  0.2245 -0.4319
28293SOL    HW185457   9.538   3.286   7.447  0.2824  1.0202 -0.7879
28293SOL    HW285458   9.598   3.386   7.543  0.9913  1.8580 -2.0662
28294SOL     OW85459   9.197   0.531   2.348 -0.4617  0.0040  0.1007
28294SOL    HW185460   9.184   0.542   2.253  2.0442 -0.6350 -0.4067
28294SOL    HW285461   9.256   0.603   2.371 -0.2918 -0.4184  0.9887
28295SOL     OW85462   2.211   8.349   5.925  0.1398  0.2792  0.4531
28295SOL    HW185463   2.152   8.274   5.917  0.3306  0.2236 -0.6085
28295SOL    HW285464   2.153   8.425   5.927 -0.0325  0.1363  1.0409
28296SOL     OW85465   3.073   1.478   9.224 -0.5891 -0.5218  0.5371
28296SOL    HW185466   3.165   1.488   9.197 -0.4845 -0.5210  0.8962
28296SOL    HW285467   3.072   1.501   9.316 -1.1746  0.7093  0.2481
28297SOL     OW85468   2.372   9.219   4.427  0.0743  0.5242  0.1175
28297SOL    HW185469   2.349   9.312   4.432 -0.4684  0.3986 -0.0250
28297SOL    HW285470   2.414   9.200   4.510  0.7605  1.0504 -0.0968
28298SOL     OW85471   4.284   6.540   8.016  0.5010  0.0238 -0.6283
28298SOL    HW185472   4.334   6.585   8.084  0.8020  0.0353 -0.8587
28298SOL    HW285473   4.229   6.609   7.978 -1.5812 -0.4444  1.3068
28299SOL     OW85474   3.874   5.032   0.606  0.5466 -0.2052 -0.5190
28299SOL    HW185475   3.809   5.096   0.578  0.4640 -0.4234 -0.8284
28299SOL    HW285476   3.824   4.954   0.630  0.6330 -0.0924  0.0403
28300SOL     OW85477   3.649   9.019   7.440 -0.3103 -0.6980 -0.4718
28300SOL    HW185478   3.681   8.988   7.355  1.9878  0.1735  0.0079
28300SOL    HW285479   3.727   9.022   7.496 -1.6682 -0.6942  1.5145
28301SOL     OW85480   6.465   6.171   9.207 -0.4968  0.1540  0.5137
28301SOL    HW185481   6.492   6.129   9.289 -2.1741 -1.6560  0.2295
28301SOL    HW285482   6.372   6.148   9.198  0.0912 -1.5014 -2.8801
28302SOL     OW85483   0.058   9.665   8.386 -0.3721  0.0904 -0.5313
28302SOL    HW185484   0.132   9.721   8.366  0.1207 -0.1218  0.6440
28302SOL    HW285485  -0.002   9.720   8.437  0.2808 -0.5013  0.9488
28303SOL     OW85486   5.429   9.087   7.619 -0.4763 -0.6030  0.2209
28303SOL    HW185487   5.485   9.026   7.668  0.3153 -0.3798 -0.3976
28303SOL    HW285488   5.414   9.160   7.679 -0.3094 -0.7785  0.4775
28304SOL     OW85489   5.000   1.223   7.552 -0.0930 -0.1896 -0.1314
28304SOL    HW185490   5.034   1.247   7.638 -0.5606  0.6286 -0.1660
28304SOL    HW285491   4.924   1.168   7.571 -1.9719  2.3017  0.1003
28305SOL     OW85492   6.625   8.379   6.573  0.4980 -0.3976 -0.3698
28305SOL    HW185493   6.628   8.423   6.488  1.4796 -0.5310 -0.4175
28305SOL    HW285494   6.717   8.364   6.595  0.3556  1.0495  1.4579
28306SOL     OW85495   3.249   5.222   0.276 -0.6289 -0.4154 -0.5118
28306SOL    HW185496   3.196   5.226   0.355  0.3784 -1.4721  0.2463
28306SOL    HW285497   3.231   5.137   0.237  0.7135 -0.9403 -0.0598
28307SOL     OW85498   0.124   7.992   9.893 -0.2372 -0.1760  0.0700
28307SOL    HW185499   0.175   7.914   9.913 -0.3929 -0.3661 -0.2676
28307SOL    HW285500   0.076   8.011   9.973  0.4726  0.0895  0.4468
28308SOL     OW85501   2.235   7.521   1.472  0.5822  0.7140  0.0836
28308SOL    HW185502   2.216   7.462   1.399  0.5689  0.6459  0.1423
28308SOL    HW285503   2.232   7.609   1.433 -0.2029  0.7350  0.1572
28309SOL     OW85504   0.704   6.423   8.030 -0.2337 -0.3410  0.0179
28309SOL    HW185505   0.621   6.429   7.983 -1.1960 -2.5344  1.3205
28309SOL    HW285506   0.751   6.503   8.004 -2.2731  0.4460 -1.5800
28310SOL     OW85507   7.807   7.620   2.932 -0.1992 -0.5332  0.4633
28310SOL    HW185508   7.876   7.687   2.929 -0.0730 -0.6661  0.4371
28310SOL    HW285509   7.848   7.544   2.972  0.0381 -1.0521 -0.7478
28311SOL     OW85510   5.933   7.780   8.451  0.4366  0.8995  0.1956
28311SOL    HW185511   5.918   7.778   8.546 -1.2591  1.0119 -0.0311
28311SOL    HW285512   5.876   7.711   8.417  1.3981  0.5266 -0.7185
28312SOL     OW85513   2.413   0.757   3.883 -0.7037 -0.5845 -0.4855
28312SOL    HW185514   2.337   0.809   3.908 -1.4379 -0.9995 -1.7527
28312SOL    HW285515   2.377   0.678   3.843  0.3529 -0.4228 -1.8637
28313SOL     OW85516   6.103   0.956   5.097  0.0545  0.4458 -0.5229
28313SOL    HW185517   6.011   0.967   5.121  0.0833  0.4030 -0.3896
28313SOL    HW285518   6.138   1.045   5.092  0.7298  0.4414  2.2692
28314SOL     OW85519   2.927   7.474   8.775 -0.0515  0.0361  0.1750
28314SOL    HW185520   2.872   7.443   8.847 -0.2039 -0.1545 -0.0235
28314SOL    HW285521   2.876   7.454   8.696 -0.1216  0.7088  0.0384
28315SOL     OW85522   6.897   7.750   8.671 -0.2848 -0.4133 -0.3297
28315SOL    HW185523   6.967   7.728   8.733 -0.7174 -0.9151 -0.0126
28315SOL    HW285524   6.832   7.797   8.724 -0.8698 -1.2433 -0.2887
28316SOL     OW85525   3.165   1.816   3.418 -0.7688 -0.0203  0.6477
28316SOL    HW185526   3.100   1.747   3.433 -0.6338 -0.5431 -1.0109
28316SOL    HW285527   3.249   1.770   3.412 -0.6764  0.2589 -0.4563
28317SOL     OW85528   3.010   6.201   6.828  0.2954 -0.1518  0.0791
28317SOL    HW185529   2.941   6.263   6.805  0.0957 -0.7091 -0.8955
28317SOL    HW285530   3.091   6.250   6.816  0.1274  0.0180 -0.4051
28318SOL     OW85531   4.108   3.232   0.624  0.2031 -0.3484 -0.6252
28318SOL    HW185532   4.107   3.139   0.599  0.9101 -1.0162  1.5509
28318SOL    HW285533   4.190   3.266   0.588  1.2739 -1.3155  0.7503
28319SOL     OW85534   8.392   1.840   6.533 -0.6760 -0.3838 -0.7661
28319SOL    HW185535   8.416   1.769   6.473  1.4934  0.1601 -0.6369
28319SOL    HW285536   8.345   1.797   6.604  2.7189 -2.2189  0.5992
28320SOL     OW85537   9.649   5.687   0.806  0.1476  0.1383 -0.4736
28320SOL    HW185538   9.676   5.604   0.845  0.3170  0.1233 -0.6245
28320SOL    HW285539   9.730   5.738   0.797  0.0482  0.3096 -0.4072
28321SOL     OW85540   5.093   2.009   5.094 -0.0833  0.1803 -0.2084
28321SOL    HW185541   5.129   2.030   5.008  0.5938  1.1867  0.2884
28321SOL    HW285542   5.004   1.981   5.077 -0.0170  0.5331 -1.2269
28322SOL     OW85543   5.817   9.774   9.058 -0.3082 -0.1674 -0.4505
28322SOL    HW185544   5.902   9.737   9.081 -0.0001  0.5098 -0.4983
28322SOL    HW285545   5.767   9.770   9.140  0.5125  1.4735  0.1688
28323SOL     OW85546   6.422   4.356   9.161  0.1717 -0.4932 -0.2546
28323SOL    HW185547   6.437   4.450   9.155 -1.0670 -0.2329  0.4848
28323SOL    HW285548   6.343   4.341   9.108  1.2916 -1.3965 -1.7651
28324SOL     OW85549   1.199   5.689   1.266 -0.0375  0.0422  0.2709
28324SOL    HW185550   1.209   5.594   1.266 -3.1720 -0.3984  0.7866
28324SOL    HW285551   1.255   5.719   1.195 -2.0041 -2.6654 -2.7026
28325SOL     OW85552   3.372   7.694   9.227 -0.2727  0.6694  0.3677
28325SOL    HW185553   3.465   7.719   9.223 -0.1269  0.0316 -0.6561
28325SOL    HW285554   3.328   7.771   9.262  0.2655  2.0928 -1.8696
28326SOL     OW85555   9.936   7.089   0.689 -0.4071  0.3940 -0.0392
28326SOL    HW185556   9.927   7.042   0.772  1.5221  1.1183  0.6324
28326SOL    HW285557   9.873   7.161   0.695 -0.2385  0.4748  0.8372
28327SOL     OW85558   0.273   9.811   8.283 -0.1740  0.0434 -0.2137
28327SOL    HW185559   0.270   9.809   8.187  0.6596 -3.1796 -0.2953
28327SOL    HW285560   0.362   9.781   8.304 -0.6918 -0.3175  1.5711
28328SOL     OW85561   8.327   0.211   6.338  0.0395 -0.0388  0.1392
28328SOL    HW185562   8.331   0.215   6.433  1.0024  1.1932  0.0753
28328SOL    HW285563   8.280   0.291   6.312 -1.2481 -0.9340 -0.3855
28329SOL     OW85564   2.229   1.160   2.134 -0.2147 -0.4197  0.0204
28329SOL    HW185565   2.162   1.183   2.198 -1.6229 -0.1061 -1.5286
28329SOL    HW285566   2.252   1.243   2.092  1.0776 -0.5394  0.4365
28330SOL     OW85567   4.631   3.005   8.602 -0.7212  0.2160 -0.2884
28330SOL    HW185568   4.626   3.039   8.513 -3.4855 -0.9793 -0.7089
28330SOL    HW285569   4.569   3.059   8.652 -0.2516 -0.0208  0.5770
28331SOL     OW85570   1.465   8.492   2.542  0.6891  0.4577 -0.2459
28331SOL    HW185571   1.401   8.424   2.523  0.1969  0.8373  0.0135
28331SOL    HW285572   1.495   8.473   2.631  0.7647  0.4068 -0.2832
28332SOL     OW85573   8.810   8.080   2.738 -0.1715 -0.4175  0.0500
28332SOL    HW185574   8.867   8.046   2.806 -1.8198 -2.2858  0.5779
28332SOL    HW285575   8.865   8.141   2.689  1.8155 -1.0316  1.3998
28333SOL     OW85576   3.563   1.506   0.803  0.2471  0.4170 -0.4074
28333SOL    HW185577   3.557   1.550   0.718  0.3279  1.1936 -0.0221
28333SOL    HW285578   3.473   1.497   0.832  0.2742  1.4710  0.0685
28334SOL     OW85579   5.780   4.229   8.447  0.5538 -0.9950 -0.3401
28334SOL    HW185580   5.758   4.177   8.524 -0.6704  0.4392  0.3336
28334SOL    HW285581   5.761   4.319   8.473  1.5813 -0.3119 -1.8180
28335SOL     OW85582   9.800   9.719   0.177 -0.2546 -1.1750  0.6361
28335SOL    HW185583   9.756   9.697   0.095 -1.2671  0.4266  0.7085
28335SOL    HW285584   9.729   9.740   0.238  0.5539  0.5973  1.0257
28336SOL     OW85585   1.552   1.995   5.224  0.0107  0.0478 -0.1863
28336SOL    HW185586   1.581   2.011   5.134 -2.1263  3.3801 -0.4468
28336SOL    HW285587   1.459   1.977   5.217 -0.1052 -0.0761  1.3384
28337SOL     OW85588   2.510   3.552   1.029 -0.3867  0.1741 -0.0023
28337SOL    HW185589   2.539   3.603   1.105 -1.1924  2.2419 -1.0197
28337SOL    HW285590   2.416   3.543   1.040 -0.2313 -1.3670  0.2796
28338SOL     OW85591   0.660   3.828   1.933  0.2589  0.1891 -0.0889
28338SOL    HW185592   0.750   3.809   1.960  0.1743  1.6611  1.4491
28338SOL    HW285593   0.640   3.911   1.977 -2.2790 -0.7334  0.6625
28339SOL     OW85594   0.958   2.122   4.090  0.2972  0.0064 -0.3066
28339SOL    HW185595   0.917   2.139   4.005 -0.5547  0.1618  0.1277
28339SOL    HW285596   0.897   2.158   4.154  0.4316 -1.0068  0.4274
28340SOL     OW85597   1.454   6.554   6.329 -1.1913 -0.4378 -0.4836
28340SOL    HW185598   1.532   6.517   6.370  0.2761  1.7729 -1.0735
28340SOL    HW285599   1.399   6.580   6.402 -1.1041 -1.4334 -0.0441
28341SOL     OW85600   4.354   3.060   1.034 -0.0529 -0.0303 -0.6300
28341SOL    HW185601   4.271   3.107   1.027 -0.5331 -0.8922 -0.8690
28341SOL    HW285602   4.413   3.122   1.077 -1.0205  0.3456  0.2076
28342SOL     OW85603   2.672   6.965   7.223  0.1782 -0.4367  0.0073
28342SOL    HW185604   2.670   6.975   7.319  0.5946 -0.8811  0.0639
28342SOL    HW285605   2.760   6.991   7.198  0.2053 -0.7400 -0.2112
28343SOL     OW85606   8.337   2.373   9.679 -0.4794 -0.0828  0.4639
28343SOL    HW185607   8.416   2.320   9.668 -0.5927 -0.3815  1.0304
28343SOL    HW285608   8.278   2.318   9.732 -1.2028 -0.0051 -0.2451
28344SOL     OW85609   4.993   2.807   6.047 -0.1849 -0.6037 -0.1328
28344SOL    HW185610   5.047   2.799   5.969 -1.5758 -0.7258 -1.1215
28344SOL    HW285611   5.045   2.768   6.117  0.6879 -1.3961 -1.1996
28345SOL     OW85612   2.601   6.422   9.895 -0.5983 -0.0016 -0.2445
28345SOL    HW185613   2.622   6.472   9.975 -0.4078 -1.8099  0.8969
28345SOL    HW285614   2.673   6.359   9.888 -0.7978 -0.0850 -1.6756
28346SOL     OW85615   8.666   2.309   0.234 -0.3447  0.0349 -0.0975
28346SOL    HW185616   8.609   2.365   0.288 -1.5506 -0.5273 -0.7587
28346SOL    HW285617   8.740   2.289   0.291 -1.2891 -0.0302  1.1599
28347SOL     OW85618   0.978   8.954   2.600 -0.2924 -0.0548 -0.3928
28347SOL    HW185619   0.967   9.021   2.667  0.8252  0.9422 -1.1603
28347SOL    HW285620   1.072   8.935   2.600 -0.5864 -1.6579 -0.1776
28348SOL     OW85621   4.873   2.254   5.145 -0.4919 -0.1308  0.2333
28348SOL    HW185622   4.895   2.188   5.079 -0.0121 -0.0261  0.2864
28348SOL    HW285623   4.782   2.234   5.169 -0.7176 -0.0879 -0.5533
28349SOL     OW85624   8.647   8.375   4.840 -0.4733  0.2493  0.1670
28349SOL    HW185625   8.566   8.385   4.791 -0.0944 -1.4072 -0.8836
28349SOL    HW285626   8.690   8.300   4.800  1.4669  0.9204  0.8741
28350SOL     OW85627   4.340   5.644   4.754 -1.1920  0.0427 -0.0212
28350SOL    HW185628   4.319   5.712   4.690 -1.0122 -0.3843 -0.5460
28350SOL    HW285629   4.363   5.568   4.701  1.7544  0.4847  0.4804
28351SOL     OW85630   5.509   5.753   9.506 -0.3240  0.2136 -0.5490
28351SOL    HW185631   5.594   5.771   9.547 -0.1011 -0.1978 -0.8285
28351SOL    HW285632   5.452   5.730   9.579 -0.2453  0.6679 -0.3376
28352SOL     OW85633   2.137   3.991   0.460 -0.1064  0.1249  0.5083
28352SOL    HW185634   2.075   3.948   0.518  0.1184  0.2874  0.8791
28352SOL    HW285635   2.182   3.920   0.415 -1.7354  0.0160 -1.0600
28353SOL     OW85636   3.521   5.440   8.792 -0.2481  0.0477 -0.0497
28353SOL    HW185637   3.596   5.498   8.776  0.4796 -0.4321  1.4300
28353SOL    HW285638   3.536   5.406   8.880 -2.5201  0.3791  0.5205
28354SOL     OW85639   5.112   9.188   6.034  0.1514 -0.2028  0.0298
28354SOL    HW185640   5.123   9.247   5.960 -0.0826 -0.3458 -0.1182
28354SOL    HW285641   5.200   9.157   6.053  0.1291 -0.6241 -0.5637
28355SOL     OW85642   3.930   4.531   9.717 -0.3278  0.0048  0.1304
28355SOL    HW185643   3.903   4.544   9.808  1.4802  0.3470  0.6645
28355SOL    HW285644   3.848   4.517   9.669 -1.3263 -0.0708  1.7828
28356SOL     OW85645   7.918   1.488   7.139  0.1950 -0.4399  0.0224
28356SOL    HW185646   7.894   1.513   7.050  1.1046 -1.6658 -0.5994
28356SOL    HW285647   8.014   1.483   7.138  0.3625  1.2551  1.5779
28357SOL     OW85648   8.886   2.755   8.232 -0.2815  0.2786 -0.5326
28357SOL    HW185649   8.889   2.842   8.271  0.2028 -0.2068  0.5647
28357SOL    HW285650   8.817   2.709   8.280  0.5951 -0.4573  0.0753
28358SOL     OW85651   5.345   0.827   7.501 -0.2318  0.1884  0.1995
28358SOL    HW185652   5.341   0.846   7.407 -0.3254  0.5692  0.2784
28358SOL    HW285653   5.370   0.735   7.506 -2.0003 -0.3615 -0.2259
28359SOL     OW85654   3.079   0.531   9.603 -0.0616 -0.0000 -0.4023
28359SOL    HW185655   3.009   0.488   9.652  0.3023  0.9566  1.0227
28359SOL    HW285656   3.052   0.623   9.598  1.5414  0.5982  1.0907
28360SOL     OW85657   3.468   1.015   6.883 -0.4033 -0.4216  0.7559
28360SOL    HW185658   3.561   1.039   6.890 -0.4153 -0.4490  1.0405
28360SOL    HW285659   3.462   0.965   6.802  0.1364 -1.7627  1.5040
28361SOL     OW85660   5.312   0.379   8.995 -0.2089 -0.4122  0.3086
28361SOL    HW185661   5.398   0.398   9.031  0.6105 -1.7570 -0.8428
28361SOL    HW285662   5.310   0.284   8.985 -0.8492 -0.2271 -1.9842
28362SOL     OW85663   5.142   8.422   0.142 -0.0558 -0.5021 -0.3024
28362SOL    HW185664   5.183   8.354   0.089 -0.2428 -3.0751  2.5863
28362SOL    HW285665   5.052   8.427   0.110  0.1522 -1.1325 -1.0096
28363SOL     OW85666   1.162   0.488   9.053 -0.3558  0.0680 -0.2078
28363SOL    HW185667   1.225   0.427   9.092  0.7061 -0.1043 -2.0538
28363SOL    HW285668   1.087   0.486   9.112  0.6972 -1.0239  1.1728
28364SOL     OW85669   6.513   2.930   5.883  0.0829 -0.3028  0.3581
28364SOL    HW185670   6.533   2.837   5.895 -0.5875 -0.2874  1.8732
28364SOL    HW285671   6.532   2.969   5.968  0.8912  1.0673 -0.4204
28365SOL     OW85672   6.873   4.888   0.344 -0.0389 -0.0021 -0.2562
28365SOL    HW185673   6.812   4.931   0.404  0.8332  2.4802 -1.0317
28365SOL    HW285674   6.959   4.903   0.382  0.3973  0.2814 -1.3095
28366SOL     OW85675   0.013   5.141   4.604  0.0522  0.1753  0.4734
28366SOL    HW185676   0.039   5.050   4.621 -0.9350 -0.5482 -1.5568
28366SOL    HW285677   0.069   5.193   4.662  1.8800 -1.6165  0.4426
28367SOL     OW85678   3.697   8.462   4.792  0.1998  0.5382  0.5507
28367SOL    HW185679   3.632   8.393   4.778 -0.0870  0.7528  0.7912
28367SOL    HW285680   3.737   8.440   4.876 -0.5357  1.1601  1.0757
28368SOL     OW85681   9.873   2.656   8.960 -0.1157  0.4491 -0.2941
28368SOL    HW185682   9.789   2.692   8.987  0.2230  0.9895  0.0474
28368SOL    HW285683   9.913   2.725   8.907 -0.1719 -0.0651 -1.0322
28369SOL     OW85684   3.782   3.031   7.327 -0.9643  0.2554 -0.0770
28369SOL    HW185685   3.865   2.990   7.353 -0.4238  1.6223  0.4568
28369SOL    HW285686   3.806   3.093   7.258 -1.8805 -0.8269 -1.4192
28370SOL     OW85687   4.372   4.353   9.717  0.2613  0.6871 -0.2534
28370SOL    HW185688   4.421   4.358   9.635  0.1388 -1.7093 -0.5384
28370SOL    HW285689   4.280   4.358   9.690  0.2176 -0.2110 -0.2942
28371SOL     OW85690   6.735   9.411   5.187  0.5593 -0.0071 -0.4726
28371SOL    HW185691   6.762   9.402   5.279  0.9267 -1.8926 -0.7156
28371SOL    HW285692   6.639   9.415   5.191  0.6047  3.2023  0.1520
28372SOL     OW85693   3.084   4.985   8.166 -0.4459  0.0606  0.0558
28372SOL    HW185694   3.003   4.993   8.217  0.6536  0.6308  1.7709
28372SOL    HW285695   3.101   5.074   8.134  0.4286  0.3180  1.1943
28373SOL     OW85696   5.586   4.193   4.182  0.1170 -0.1535  0.5236
28373SOL    HW185697   5.649   4.170   4.113 -1.5838  0.7613 -1.4742
28373SOL    HW285698   5.552   4.109   4.212 -0.8807 -0.5915 -1.5982
28374SOL     OW85699   7.629   1.131   8.967 -0.6647  0.5928 -0.2163
28374SOL    HW185700   7.597   1.222   8.967 -0.8550  0.5289 -0.5004
28374SOL    HW285701   7.637   1.108   9.059  1.6550  1.6843 -0.0561
28375SOL     OW85702   8.292   2.787   3.714 -0.0551  0.1590 -0.0838
28375SOL    HW185703   8.254   2.866   3.752  0.4667  1.2870 -1.7661
28375SOL    HW285704   8.225   2.757   3.652  0.0720 -0.2425 -0.0227
28376SOL     OW85705   5.217   7.735   7.751  0.6046  0.5215 -0.0470
28376SOL    HW185706   5.225   7.681   7.673  0.7335  0.2135  0.1772
28376SOL    HW285707   5.134   7.708   7.791  0.7661  0.3434  0.1724
28377SOL     OW85708   5.862   6.206   1.615 -0.0795  0.1232 -0.0215
28377SOL    HW185709   5.862   6.112   1.595  0.1480 -0.0948  0.9728
28377SOL    HW285710   5.866   6.211   1.710 -0.9601  1.1428 -0.0142
28378SOL     OW85711   1.645   3.392   6.379  0.1466  0.3144  0.1985
28378SOL    HW185712   1.570   3.433   6.336 -1.8959 -2.2455  1.0043
28378SOL    HW285713   1.683   3.462   6.432 -1.8040  1.6995 -0.1079
28379SOL     OW85714   2.730   7.129   8.834 -0.0460  0.1503  0.1522
28379SOL    HW185715   2.674   7.055   8.859 -1.6413  1.1855 -0.2201
28379SOL    HW285716   2.765   7.105   8.748 -0.6999 -0.0985 -0.0491
28380SOL     OW85717   0.816   9.293   3.267  0.0240  0.2017  0.3608
28380SOL    HW185718   0.815   9.222   3.204 -0.2456  1.0239 -0.5823
28380SOL    HW285719   0.899   9.338   3.252 -0.2675  0.7098  0.2233
28381SOL     OW85720   8.797   0.691   7.525 -0.0858  0.1614  0.0446
28381SOL    HW185721   8.818   0.597   7.521 -0.2565  0.1664 -1.5820
28381SOL    HW285722   8.796   0.719   7.433 -1.6887  1.3839  0.3840
28382SOL     OW85723   0.689   9.897   0.015 -0.6413 -0.4839  0.3317
28382SOL    HW185724   0.649   9.810   0.018  0.0647 -0.7806  2.5053
28382SOL    HW285725   0.781   9.882   0.034 -0.3302  0.6684 -0.1729
28383SOL     OW85726   7.638   0.309   0.678 -0.4829 -0.0113 -0.2737
28383SOL    HW185727   7.728   0.300   0.649 -0.7900 -0.5048 -1.0934
28383SOL    HW285728   7.587   0.253   0.619 -0.8507 -3.3265  2.8343
28384SOL     OW85729   6.460   2.953   5.173  0.1919  0.0446 -0.2822
28384SOL    HW185730   6.520   2.881   5.151  1.0235  0.6809 -0.1286
28384SOL    HW285731   6.455   2.951   5.268 -1.6510 -1.2874 -0.3590
28385SOL     OW85732   5.799   5.475   1.945 -0.1131  0.2513 -0.5091
28385SOL    HW185733   5.708   5.483   1.913 -0.3537 -2.2354 -0.6444
28385SOL    HW285734   5.797   5.400   2.005  1.6297  0.9346  0.4670
28386SOL     OW85735   2.846   2.038  -0.023  0.0336 -0.0883 -0.1448
28386SOL    HW185736   2.756   2.070  -0.014  0.2421  0.3531  0.4273
28386SOL    HW285737   2.880   2.038   0.067  0.5314 -0.4672 -0.3309
28387SOL     OW85738   3.694   7.719   1.418 -0.0298  0.0438 -0.0189
28387SOL    HW185739   3.776   7.747   1.458  0.5024 -0.5787 -0.6351
28387SOL    HW285740   3.691   7.766   1.334  0.5181 -1.1518 -0.7327
28388SOL     OW85741   9.192   8.941   9.975 -0.3231  0.6729  1.0727
28388SOL    HW185742   9.131   8.952   9.901  1.4215  1.7496 -0.2907
28388SOL    HW285743   9.135   8.935  10.052 -2.2270 -0.5318 -0.3298
28389SOL     OW85744   2.659   0.400   9.801  0.1893  0.1995  0.3673
28389SOL    HW185745   2.655   0.403   9.897  0.1263  0.0228  0.3702
28389SOL    HW285746   2.658   0.307   9.780 -1.9046  0.2215  0.1085
28390SOL     OW85747   6.229   3.511   6.646 -0.0420  0.4827 -0.3064
28390SOL    HW185748   6.175   3.582   6.612  1.3290  1.9530  0.4806
28390SOL    HW285749   6.318   3.533   6.620  0.6333 -0.0322  1.4293
28391SOL     OW85750   7.606   9.436   4.123  0.3559 -0.4372  0.1727
28391SOL    HW185751   7.516   9.419   4.097  0.4491  0.5208 -0.8973
28391SOL    HW285752   7.652   9.453   4.040  1.5679 -1.1060  0.6738
28392SOL     OW85753   4.359   4.349   8.497 -0.0734  0.3779  0.3188
28392SOL    HW185754   4.272   4.310   8.504  0.1223  0.0979  1.2948
28392SOL    HW285755   4.413   4.297   8.556  0.4409  1.4430  0.8085
28393SOL     OW85756   1.520   7.860   5.857  0.1789  0.3526  0.2563
28393SOL    HW185757   1.485   7.948   5.841  0.6511  0.3499 -0.8896
28393SOL    HW285758   1.587   7.873   5.923  0.0228  0.8099  0.3314
28394SOL     OW85759   0.092   9.070   9.988  0.5275  0.4762  0.4584
28394SOL    HW185760   0.073   9.041   9.899  1.0271  1.7121 -0.0729
28394SOL    HW285761   0.135   8.995  10.029  2.0831  0.5458 -0.9621
28395SOL     OW85762   1.230   8.993   3.976 -0.2035 -0.0600  0.3488
28395SOL    HW185763   1.183   8.956   4.051 -1.7792  0.7590 -0.1660
28395SOL    HW285764   1.322   8.980   3.996 -0.5001  1.2809  3.0774
28396SOL     OW85765   1.134   8.339   3.741 -0.0927 -0.5437  0.7489
28396SOL    HW185766   1.174   8.424   3.758  1.5200 -1.1092  0.0730
28396SOL    HW285767   1.175   8.310   3.659 -3.4005 -0.3472 -1.1179
28397SOL     OW85768   1.359   7.236   2.390 -0.1204 -0.0868 -0.7240
28397SOL    HW185769   1.357   7.202   2.479  0.9068 -0.9600 -1.0132
28397SOL    HW285770   1.340   7.160   2.335 -1.4755  0.5890 -1.2365
28398SOL     OW85771   3.917   2.257   4.601 -0.3041 -0.3411  0.0841
28398SOL    HW185772   3.961   2.252   4.516 -1.6002  1.3266 -0.7293
28398SOL    HW285773   3.851   2.187   4.599  0.3477 -0.9786  0.1745
28399SOL     OW85774   4.753   3.665   1.119  0.3020  0.6940  0.4829
28399SOL    HW185775   4.823   3.711   1.073  1.7445 -0.2455  1.6603
28399SOL    HW285776   4.676   3.720   1.107  0.7015  0.7917 -2.5572
28400SOL     OW85777   8.907   9.030   0.841 -0.1469 -0.3270  0.3697
28400SOL    HW185778   9.000   9.018   0.855 -0.0118 -0.5108 -0.6135
28400SOL    HW285779   8.865   8.956   0.886  0.2163 -0.5542  0.3339
28401SOL     OW85780   8.497   2.772   0.263 -0.5997 -0.0022 -0.0043
28401SOL    HW185781   8.525   2.733   0.346  0.1890 -0.1161 -0.3059
28401SOL    HW285782   8.537   2.859   0.263 -3.4112  1.3959  1.2443
28402SOL     OW85783   4.505   2.912   2.340 -0.5896  0.7906  0.7780
28402SOL    HW185784   4.468   2.851   2.403 -1.3452  1.5070  1.0545
28402SOL    HW285785   4.589   2.874   2.315  0.1240  0.8763  2.8422
28403SOL     OW85786   8.214   9.636   9.074 -0.4789 -0.1238  0.5169
28403SOL    HW185787   8.207   9.575   9.000 -1.3892 -1.3145  1.5459
28403SOL    HW285788   8.288   9.604   9.125  2.7203  2.9362 -1.7786
28404SOL     OW85789   3.779   0.021   0.871  0.4012  0.4705  0.2470
28404SOL    HW185790   3.785   0.110   0.836  0.0002  0.5435  0.3554
28404SOL    HW285791   3.870  -0.009   0.876  0.5142  0.7479 -0.1106
28405SOL     OW85792   4.317   9.439   3.730  0.7810  0.1634 -0.9475
28405SOL    HW185793   4.390   9.377   3.726  0.2760 -0.5438  0.1768
28405SOL    HW285794   4.255   9.400   3.791  0.8736  2.2083  0.5938
28406SOL     OW85795   0.116   3.864   0.531 -0.3948  0.1478  0.1323
28406SOL    HW185796   0.043   3.890   0.587  0.2062 -0.1462  1.0640
28406SOL    HW285797   0.187   3.842   0.592  0.4080  0.2283 -0.7476
28407SOL     OW85798   7.633   4.019   3.978 -0.6077 -0.1245  0.3184
28407SOL    HW185799   7.671   4.089   3.924  2.9101 -0.4367  2.1034
28407SOL    HW285800   7.619   3.947   3.917  0.6869  0.4361 -0.7014
28408SOL     OW85801   6.401   8.916   4.006 -0.5595 -0.6719  0.1068
28408SOL    HW185802   6.484   8.877   3.977  1.6175  1.2575  3.1014
28408SOL    HW285803   6.373   8.970   3.933  1.6153 -0.3066 -0.5345
28409SOL     OW85804   7.961   8.348   7.487  0.5076 -0.4337  0.1004
28409SOL    HW185805   8.055   8.367   7.490  0.4021  0.2965 -0.8244
28409SOL    HW285806   7.919   8.431   7.510  0.0644 -1.3589  3.1230
28410SOL     OW85807   7.267   1.675   2.807 -0.6803  0.1530  0.1248
28410SOL    HW185808   7.332   1.745   2.802 -3.3436  2.9159  0.9499
28410SOL    HW285809   7.226   1.687   2.893 -2.5186 -1.1759 -0.5197
28411SOL     OW85810   2.653   9.281   4.588  0.4952 -0.0055 -0.2730
28411SOL    HW185811   2.646   9.340   4.513 -0.0130 -0.9365 -0.9757
28411SOL    HW285812   2.732   9.230   4.570  0.2986 -0.3198 -0.2490
28412SOL     OW85813   6.760   5.196   8.435  0.1083 -0.4516 -0.7012
28412SOL    HW185814   6.807   5.136   8.493  0.1562  0.6133  0.3945
28412SOL    HW285815   6.671   5.160   8.431 -0.3354  0.2888  1.3186
28413SOL     OW85816   3.525   4.628   7.181  0.1480 -0.7497 -0.1162
28413SOL    HW185817   3.581   4.705   7.175  0.9087 -0.8898  3.0802
28413SOL    HW285818   3.551   4.573   7.107  2.1346  0.4926 -0.4000
28414SOL     OW85819   2.158   3.432   2.174  0.1197 -0.1349 -0.0912
28414SOL    HW185820   2.202   3.380   2.107 -1.5423 -0.4196 -1.0098
28414SOL    HW285821   2.163   3.378   2.253 -1.4418 -1.6963 -0.9950
28415SOL     OW85822   6.089   1.988   3.940 -0.2342  0.3529  0.3621
28415SOL    HW185823   6.012   1.957   3.892 -0.3044  0.0153  0.6909
28415SOL    HW285824   6.143   2.031   3.873  0.6536 -1.8928 -0.4541
28416SOL     OW85825   2.646   0.508   8.702 -0.2130  0.0441  0.2173
28416SOL    HW185826   2.702   0.558   8.642  0.1488  0.5572  0.9696
28416SOL    HW285827   2.701   0.492   8.778 -0.2708 -1.6547 -0.0587
28417SOL     OW85828   3.867   7.677   9.570  0.1364 -0.1329  0.2738
28417SOL    HW185829   3.852   7.593   9.527 -1.8839  0.3414 -0.0438
28417SOL    HW285830   3.794   7.686   9.631  1.3675  0.5416  1.7015
28418SOL     OW85831   5.496   7.841   9.388 -0.2797  0.1226 -0.2522
28418SOL    HW185832   5.470   7.751   9.366  1.3610 -0.1468 -1.2518
28418SOL    HW285833   5.415   7.891   9.382 -1.6259 -1.5713  2.2039
28419SOL     OW85834   2.501   8.485   5.886  0.0021  0.1930 -0.6713
28419SOL    HW185835   2.414   8.448   5.875 -0.3097  0.7380 -0.0962
28419SOL    HW285836   2.500   8.565   5.833  1.3540 -1.5845 -3.6477
28420SOL     OW85837   5.413   1.168   8.491 -0.6172 -0.6808 -0.4183
28420SOL    HW185838   5.441   1.080   8.463  0.2893 -0.7194  0.5287
28420SOL    HW285839   5.384   1.156   8.582  1.5569  0.3302  0.4815
28421SOL     OW85840   8.963   1.222   8.104 -0.3287 -0.4399  0.0779
28421SOL    HW185841   8.913   1.181   8.175  0.0821  1.5030  1.5420
28421SOL    HW285842   8.954   1.160   8.031 -0.1848 -2.8655  1.9777
28422SOL     OW85843   5.884   0.848   5.879  0.3542  0.1219 -0.2674
28422SOL    HW185844   5.893   0.774   5.940 -1.3942  2.0231  2.5866
28422SOL    HW285845   5.960   0.904   5.899  1.8257 -0.9035 -2.6127
28423SOL     OW85846   8.856   3.194   9.286  0.5887 -0.3372 -0.0375
28423SOL    HW185847   8.781   3.136   9.282 -0.3111  0.8446 -2.0714
28423SOL    HW285848   8.897   3.175   9.370 -1.3305 -1.7977  0.6424
28424SOL     OW85849   9.220   0.096   5.138 -0.5585 -0.0109  0.2753
28424SOL    HW185850   9.163   0.066   5.209  0.8250  2.5625  2.6547
28424SOL    HW285851   9.274   0.020   5.117 -0.4897 -0.6796  2.5830
28425SOL     OW85852   9.778   8.855   0.652  0.7970  0.3474  0.4149
28425SOL    HW185853   9.779   8.951   0.650  0.0292  0.3456 -0.2234
28425SOL    HW285854   9.762   8.829   0.561  1.2545 -0.3933  0.5391
28426SOL     OW85855   1.931   6.650   7.162  0.6266  0.4669 -0.2240
28426SOL    HW185856   1.944   6.616   7.250  0.7646  1.0048 -0.0373
28426SOL    HW285857   1.837   6.666   7.155  0.6209  0.4572 -0.1653
28427SOL     OW85858   5.795   8.800   5.095 -0.0853 -0.4205 -0.3588
28427SOL    HW185859   5.857   8.835   5.160 -0.0381 -1.9020  0.4423
28427SOL    HW285860   5.721   8.861   5.098 -1.0295 -1.5099  2.6626
28428SOL     OW85861   1.527   5.786   9.121 -0.1724 -0.1498  0.7344
28428SOL    HW185862   1.557   5.850   9.056  0.2900  0.8638  1.9071
28428SOL    HW285863   1.606   5.738   9.145  0.4176  1.7970  3.0308
28429SOL     OW85864   5.904   8.089   5.894 -0.2353  0.2853  0.3325
28429SOL    HW185865   5.888   8.181   5.915 -0.5366  0.3766 -0.2909
28429SOL    HW285866   5.844   8.041   5.951 -0.1099  0.4785  0.6273
28430SOL     OW85867   7.656   7.998   5.607  0.3109  0.3631 -0.0910
28430SOL    HW185868   7.614   7.912   5.602  1.0941 -0.1519  1.5756
28430SOL    HW285869   7.699   8.008   5.522  0.0653 -0.8004 -0.3738
28431SOL     OW85870   7.727   9.448   8.007  0.5637  0.1833 -0.1407
28431SOL    HW185871   7.799   9.418   7.951  1.0292 -0.1848  0.6346
28431SOL    HW285872   7.649   9.442   7.952  1.0481  0.0477 -0.8179
28432SOL     OW85873   4.154   3.662   0.592 -0.0648  0.1962  0.4412
28432SOL    HW185874   4.230   3.628   0.545 -1.7003 -2.8173 -0.2895
28432SOL    HW285875   4.141   3.600   0.664 -1.5030  0.9362  0.8480
28433SOL     OW85876   3.241   9.823   2.224  0.5824 -0.2260 -0.3716
28433SOL    HW185877   3.287   9.839   2.141 -1.3211  3.6237 -0.9245
28433SOL    HW285878   3.160   9.780   2.198  0.8278 -0.7977 -0.2161
28434SOL     OW85879   2.506   6.734   5.474  0.2144  0.4858 -0.0247
28434SOL    HW185880   2.588   6.782   5.490  0.2487  0.8362 -1.1606
28434SOL    HW285881   2.447   6.800   5.439 -0.3230  0.0670  0.0926
28435SOL     OW85882   1.684   5.864   2.531 -0.0334 -0.2020  0.8018
28435SOL    HW185883   1.654   5.773   2.529  1.9228 -0.9648 -2.4597
28435SOL    HW285884   1.608   5.915   2.502 -0.5585 -1.0816  0.5898
28436SOL     OW85885   3.415   2.031   0.288  0.3839 -0.1180 -0.1274
28436SOL    HW185886   3.488   2.081   0.324  0.3844  0.4766 -0.9100
28436SOL    HW285887   3.391   2.079   0.208 -0.3148 -0.7756 -0.3223
28437SOL     OW85888   5.903   1.988   9.162 -0.6216 -0.4240 -0.0253
28437SOL    HW185889   5.913   1.901   9.125  0.0820 -0.1303 -0.5421
28437SOL    HW285890   5.933   1.980   9.252 -1.4255 -0.9211  0.2039
28438SOL     OW85891   0.749   7.005   2.982 -0.0782  0.0769  0.2094
28438SOL    HW185892   0.722   7.059   2.907 -0.9881 -0.4483  0.1425
28438SOL    HW285893   0.682   7.021   3.049  0.5301  0.2646  0.7862
28439SOL     OW85894   4.168   3.612   4.247  0.0157  0.3064 -0.2492
28439SOL    HW185895   4.098   3.656   4.200  1.7190  1.0773 -2.2278
28439SOL    HW285896   4.140   3.521   4.255 -1.1234  0.5742 -1.1216
28440SOL     OW85897   8.818   5.363   7.242  0.6973  0.0828 -0.1026
28440SOL    HW185898   8.754   5.325   7.182  0.8610  1.0445 -0.9219
28440SOL    HW285899   8.825   5.454   7.215  2.1187  0.1040  0.2157
28441SOL     OW85900   1.508   9.651   7.874 -0.3230 -0.0061  0.0349
28441SOL    HW185901   1.469   9.684   7.955 -1.0314 -0.3694 -0.1467
28441SOL    HW285902   1.455   9.691   7.805  0.8535  1.0472 -0.2959
28442SOL     OW85903   3.815   3.994   9.065  0.3729 -0.6901 -0.4795
28442SOL    HW185904   3.906   4.021   9.057  0.5531 -0.9213  0.6454
28442SOL    HW285905   3.770   4.040   8.994  0.8325  1.7541  0.7246
28443SOL     OW85906   9.731   1.633   2.466 -0.2785 -0.1419 -0.3210
28443SOL    HW185907   9.754   1.551   2.509  1.7087  0.1572 -0.7133
28443SOL    HW285908   9.646   1.615   2.425  0.1970 -2.0865 -0.5761
28444SOL     OW85909   8.148   7.027   2.565  0.2653  0.8321  0.4065
28444SOL    HW185910   8.071   6.980   2.595 -0.5215  1.1079 -1.1260
28444SOL    HW285911   8.115   7.111   2.534  1.0119  0.5443 -1.2716
28445SOL     OW85912   7.183   4.905   6.917 -0.2022  0.3071  0.2364
28445SOL    HW185913   7.250   4.964   6.882  0.7714  0.1202  1.6932
28445SOL    HW285914   7.101   4.941   6.884  0.4621  1.7096  0.0060
28446SOL     OW85915   1.097   0.058   1.911 -0.3195 -0.0384  0.1052
28446SOL    HW185916   1.166   0.112   1.950  0.6831  0.4187 -2.1213
28446SOL    HW285917   1.018   0.110   1.919 -0.1434  0.0643  1.3891
28447SOL     OW85918   9.026   2.174   5.444  0.3021  0.8972 -0.1323
28447SOL    HW185919   9.013   2.101   5.384 -0.4266  0.0421  1.0275
28447SOL    HW285920   8.959   2.163   5.511  1.9161  1.0217  1.6083
28448SOL     OW85921   6.965   8.931   9.311 -0.2697 -0.4016  0.2940
28448SOL    HW185922   6.949   8.963   9.222  0.1144 -0.4490  0.2063
28448SOL    HW285923   6.939   9.004   9.368  1.3443  0.3965  0.0679
28449SOL     OW85924   8.374   0.816   6.646 -0.1217 -0.1924 -0.3765
28449SOL    HW185925   8.421   0.844   6.725  0.4808 -0.3435 -0.6738
28449SOL    HW285926   8.292   0.864   6.650  0.2423  0.4269 -0.0678
28450SOL     OW85927   1.472   7.234   7.309  0.3557  0.7289  0.0694
28450SOL    HW185928   1.405   7.168   7.293 -1.1776  2.0944  0.5317
28450SOL    HW285929   1.539   7.189   7.360 -1.5791 -0.0370  2.1031
28451SOL     OW85930   5.576   7.832   2.961 -0.6959  0.0377 -0.1609
28451SOL    HW185931   5.653   7.832   2.904  0.3630 -1.1717  1.1955
28451SOL    HW285932   5.516   7.895   2.921  0.8709  0.7870 -1.4198
28452SOL     OW85933   6.070   8.907   0.114  0.2781  0.0050  0.1725
28452SOL    HW185934   6.043   8.908   0.206 -1.7847  2.2576 -0.3379
28452SOL    HW285935   6.031   8.987   0.077 -0.0601 -1.4733 -2.9766
28453SOL     OW85936   1.551   3.706   0.473  0.3143  0.1141 -0.1570
28453SOL    HW185937   1.573   3.731   0.563  0.5456  1.8945 -0.6779
28453SOL    HW285938   1.456   3.703   0.472  0.3165 -0.1144  0.2004
28454SOL     OW85939   2.209   6.402   6.202 -0.4814  0.4460 -0.1347
28454SOL    HW185940   2.125   6.372   6.167 -0.5524 -0.2953  0.6401
28454SOL    HW285941   2.200   6.391   6.297  1.7135 -3.0997 -0.1591
28455SOL     OW85942   1.211   1.562   3.283  0.1325 -0.0377 -0.5880
28455SOL    HW185943   1.119   1.576   3.307  0.1883  0.0815 -0.4425
28455SOL    HW285944   1.261   1.596   3.357  0.3518  1.6871 -1.4837
28456SOL     OW85945   3.962   1.536   7.000 -0.2199  0.5507  0.0237
28456SOL    HW185946   3.917   1.546   6.917  0.3550 -0.0782 -0.3783
28456SOL    HW285947   3.967   1.441   7.014  1.2197  0.5795 -0.1040
28457SOL     OW85948   8.047   6.829   6.544  0.1088 -0.4027 -0.2530
28457SOL    HW185949   8.010   6.916   6.526  1.2321  0.5630  1.7106
28457SOL    HW285950   7.974   6.779   6.582 -0.7554 -0.6272 -2.1112
28458SOL     OW85951   8.067   3.709   4.244 -0.9043 -0.0867  0.6613
28458SOL    HW185952   8.001   3.673   4.302 -1.5131 -1.2132 -0.6896
28458SOL    HW285953   8.035   3.797   4.224  0.0578  0.9372  3.1168
28459SOL     OW85954   0.997   4.911   2.029 -0.8708 -0.1107  0.4796
28459SOL    HW185955   1.020   4.822   2.003 -0.0399  0.1439  0.3228
28459SOL    HW285956   0.955   4.901   2.114 -0.6350 -0.6322  0.5356
28460SOL     OW85957   9.056   9.663   6.666  0.1936 -0.0011  0.2650
28460SOL    HW185958   8.965   9.682   6.644  0.1030 -0.6884  0.0213
28460SOL    HW285959   9.083   9.736   6.722 -0.5345  0.1560  0.4225
28461SOL     OW85960   5.308   0.103   4.435  0.0564  0.1356 -0.0124
28461SOL    HW185961   5.374   0.149   4.487 -0.1007  0.3932 -0.0411
28461SOL    HW285962   5.258   0.052   4.500  0.2819 -0.0562  0.0094
28462SOL     OW85963   0.590   2.439   9.742  0.0678 -0.0209 -0.0057
28462SOL    HW185964   0.678   2.467   9.768  0.2052  0.4880 -0.9490
28462SOL    HW285965   0.568   2.497   9.668 -0.7631 -0.6256 -0.2433
28463SOL     OW85966   1.928   2.414   5.121  0.1159 -0.4817 -0.0814
28463SOL    HW185967   1.887   2.383   5.041  1.5435  0.2348 -1.1384
28463SOL    HW285968   2.010   2.455   5.092  0.4134  0.2795  1.6870
28464SOL     OW85969   5.707   0.593   7.614 -0.5552  0.0364 -0.3050
28464SOL    HW185970   5.762   0.517   7.595 -0.1096 -0.1313  1.5194
28464SOL    HW285971   5.650   0.564   7.686 -0.9899  1.1528 -0.1791
28465SOL     OW85972   0.844   7.902   5.810  0.0702 -0.1909 -0.3855
28465SOL    HW185973   0.872   7.950   5.888  0.8256 -1.5916  0.2424
28465SOL    HW285974   0.807   7.969   5.752 -1.8128  0.7316  1.7094
28466SOL     OW85975   8.336   5.512   1.248  0.3496  0.1711 -0.0149
28466SOL    HW185976   8.407   5.457   1.281  0.1461 -0.9505 -1.3562
28466SOL    HW285977   8.380   5.587   1.209  0.7011  0.3124  0.6354
28467SOL     OW85978   6.318   3.642   2.631  0.5457  0.1702 -0.0104
28467SOL    HW185979   6.384   3.588   2.675  0.8383 -1.1152 -1.9332
28467SOL    HW285980   6.238   3.590   2.635 -0.1588  1.2950  1.4391
28468SOL     OW85981   7.040   2.839   1.187  0.3555  0.1377  0.2770
28468SOL    HW185982   7.028   2.745   1.202  1.4976  0.0565  0.7632
28468SOL    HW285983   7.056   2.876   1.274 -0.4798  0.8615  0.1440
28469SOL     OW85984   1.130   7.439   4.991 -0.5152  0.6577 -0.1773
28469SOL    HW185985   1.042   7.475   5.003 -0.0306  1.6447  0.6219
28469SOL    HW285986   1.164   7.484   4.913 -1.1112 -0.5666 -1.1755
28470SOL     OW85987   9.330   9.169   0.178 -0.0079 -0.2148  0.6219
28470SOL    HW185988   9.277   9.098   0.214 -1.2253  0.5246  0.3628
28470SOL    HW285989   9.354   9.222   0.254 -0.1222 -0.2477  0.6810
28471SOL     OW85990   3.691   4.620   1.905 -0.0313 -0.1231  0.0706
28471SOL    HW185991   3.761   4.665   1.951  0.2565  0.6432 -1.0548
28471SOL    HW285992   3.619   4.683   1.903 -0.9684 -1.0791  1.6430
28472SOL     OW85993   0.946   2.062   7.771  0.0363  0.1996 -0.4288
28472SOL    HW185994   0.961   2.059   7.676  0.3563 -2.0412 -0.3841
28472SOL    HW285995   0.851   2.058   7.780  0.0106  0.2550 -0.6545
28473SOL     OW85996   8.208   0.476   6.251  0.3810 -0.3932  0.1516
28473SOL    HW185997   8.259   0.529   6.190  0.2668 -0.8920 -0.3794
28473SOL    HW285998   8.119   0.479   6.217  0.1612 -0.0319  0.7357
28474SOL     OW85999   3.878   1.546   9.668 -0.1331  0.0799  0.1182
28474SOL    HW186000   3.946   1.603   9.631 -0.5676  0.2460 -0.4466
28474SOL    HW286001   3.835   1.507   9.592 -1.5286  0.9892  0.3983
28475SOL     OW86002   9.018   7.964   1.337  0.1289 -0.2830  0.4677
28475SOL    HW186003   8.966   7.961   1.418 -0.5738 -0.8626  0.0063
28475SOL    HW286004   8.955   7.945   1.267  0.8173 -0.2371 -0.1806
28476SOL     OW86005   6.450   1.223   2.142 -0.2279  0.2480  0.6139
28476SOL    HW186006   6.527   1.183   2.182  1.4925  2.0514 -0.7067
28476SOL    HW286007   6.414   1.154   2.085  0.8205 -0.3970  0.7203
28477SOL     OW86008   7.889   7.944   1.455  0.2512  0.2707 -0.2143
28477SOL    HW186009   7.819   7.999   1.419  0.9721  1.1538 -0.3041
28477SOL    HW286010   7.938   8.002   1.513  0.3984 -0.5695  0.5312
28478SOL     OW86011   6.925   3.066   5.794 -0.1258 -0.6718 -0.1502
28478SOL    HW186012   6.837   3.049   5.829  0.5063 -2.6639  0.5868
28478SOL    HW286013   6.976   2.989   5.819  2.1080  0.8491  0.2822
28479SOL     OW86014   3.436   6.601   1.953  0.0857 -0.0282 -0.1446
28479SOL    HW186015   3.359   6.638   1.996 -1.5367  0.3038 -3.1156
28479SOL    HW286016   3.432   6.507   1.974 -1.8840 -0.2388 -1.2142
28480SOL     OW86017   4.010   5.826   9.868 -0.0801 -0.3267 -0.8128
28480SOL    HW186018   4.049   5.741   9.885  0.5635 -0.0895 -1.0546
28480SOL    HW286019   4.033   5.879   9.944 -0.8117 -0.4718 -0.4788
28481SOL     OW86020   4.421   3.431   6.139 -0.3481  0.2902  0.4388
28481SOL    HW186021   4.406   3.518   6.102  0.3735  0.3233  0.1944
28481SOL    HW286022   4.459   3.380   6.067 -1.7152 -0.5434  0.2732
28482SOL     OW86023   5.324   9.817   7.912 -0.3895 -0.2068 -0.3393
28482SOL    HW186024   5.417   9.796   7.905 -0.4188 -0.4455  0.0090
28482SOL    HW286025   5.281   9.733   7.925 -0.7116 -0.1616 -1.0164
28483SOL     OW86026   7.319   6.995   2.400 -0.9532 -0.4167 -0.3176
28483SOL    HW186027   7.405   7.004   2.442 -1.1388 -0.8232  0.1562
28483SOL    HW286028   7.257   7.004   2.472 -1.3484  0.8128 -0.7941
28484SOL     OW86029   7.660   1.019   3.886  0.4844 -0.1833 -0.3565
28484SOL    HW186030   7.693   0.930   3.874  0.7833 -0.4966  2.1637
28484SOL    HW286031   7.738   1.070   3.907 -0.0151  0.0188  1.1381
28485SOL     OW86032   6.095   4.774   3.046  0.1294  0.0537  0.3554
28485SOL    HW186033   6.149   4.696   3.052  1.5796  1.0180  0.4503
28485SOL    HW286034   6.093   4.795   2.952 -2.9953 -1.8555 -0.1673
28486SOL     OW86035   4.190   8.041   5.412  0.2839  0.2782 -0.2119
28486SOL    HW186036   4.225   8.101   5.346  1.8168 -0.6180 -0.2591
28486SOL    HW286037   4.096   8.059   5.413  0.2910  0.6762 -2.2528
28487SOL     OW86038   2.663   1.210   5.143  0.0209 -0.0577 -0.4077
28487SOL    HW186039   2.724   1.173   5.207 -0.8923 -2.6759 -0.9082
28487SOL    HW286040   2.700   1.295   5.120  1.2019  0.3009  2.3887
28488SOL     OW86041   1.245   8.504   4.246 -0.2338 -0.1815 -0.0434
28488SOL    HW186042   1.261   8.420   4.202  0.5159  0.4072 -0.9446
28488SOL    HW286043   1.201   8.558   4.180 -0.8595  0.0898  0.5790
28489SOL     OW86044   5.671   0.307   5.636 -0.0064 -0.1706 -0.4420
28489SOL    HW186045   5.639   0.393   5.609 -0.3112  1.0291  3.2298
28489SOL    HW286046   5.766   0.315   5.631  0.0231  0.9405  1.1551
28490SOL     OW86047   3.818   2.847   0.286 -0.6109  0.7366  0.0500
28490SOL    HW186048   3.846   2.924   0.237  1.1150  0.4165  0.4799
28490SOL    HW286049   3.801   2.880   0.374 -1.1744  0.8481 -0.0960
28491SOL     OW86050   9.077   9.839   2.704 -0.5364 -0.1158  0.1229
28491SOL    HW186051   9.058   9.883   2.788  0.7581  0.7513 -0.0093
28491SOL    HW286052   9.139   9.897   2.660 -0.2475 -1.1698 -0.9125
28492SOL     OW86053   6.080   8.477   4.490  0.4268 -0.3024 -0.6147
28492SOL    HW186054   6.068   8.510   4.401 -1.2573  1.5750  0.2191
28492SOL    HW286055   6.047   8.548   4.546  2.6440 -0.8636  1.5679
28493SOL     OW86056   3.322   5.117   8.011  0.6385  0.2779 -0.5585
28493SOL    HW186057   3.307   5.048   7.946 -0.2698 -0.2918  0.2260
28493SOL    HW286058   3.391   5.082   8.068 -0.3254 -0.3323  0.2754
28494SOL     OW86059   2.635   6.959   1.023 -0.7224 -0.4792  0.0506
28494SOL    HW186060   2.631   6.914   0.939 -3.3946 -1.3611  0.5365
28494SOL    HW286061   2.600   6.895   1.085  1.5931 -0.0201  1.9613
28495SOL     OW86062   9.737   6.819   8.933  0.3082 -0.5944  0.0091
28495SOL    HW186063   9.676   6.855   8.869  0.1981  0.5549  0.7479
28495SOL    HW286064   9.697   6.736   8.961 -1.8008  0.9031  1.7114
28496SOL     OW86065   2.979   8.951   2.648 -0.0074  0.5154  0.5142
28496SOL    HW186066   3.017   8.962   2.561  0.2900 -0.6791  0.4856
28496SOL    HW286067   2.941   8.863   2.647  1.5256 -0.2138  2.1430
28497SOL     OW86068   0.713   1.419   4.629 -0.6533  0.5017 -0.1136
28497SOL    HW186069   0.637   1.444   4.681 -0.6419  0.6777 -0.1803
28497SOL    HW286070   0.768   1.497   4.627  0.6907 -0.2896  1.9298
28498SOL     OW86071   6.002   0.894   4.081  0.3643 -0.3216 -0.1026
28498SOL    HW186072   6.061   0.852   4.143  0.3600 -0.5147 -0.2270
28498SOL    HW286073   5.922   0.911   4.132  0.3023 -0.6255 -0.0947
28499SOL     OW86074   1.181   3.477   9.105 -0.7666  0.0791  0.1220
28499SOL    HW186075   1.123   3.554   9.102  0.3731  0.9793  0.3080
28499SOL    HW286076   1.251   3.503   9.165  0.1543 -0.7451 -0.5784
28500SOL     OW86077   9.150   9.452   3.246 -0.1662 -0.4103  0.8488
28500SOL    HW186078   9.151   9.543   3.216  0.1766 -0.2867  1.2182
28500SOL    HW286079   9.058   9.427   3.242 -0.2268 -0.1388  0.4681
28501SOL     OW86080   1.364   2.192   7.133  0.6824 -0.0312 -0.0106
28501SOL    HW186081   1.313   2.271   7.150  1.8054  0.3656  1.6873
28501SOL    HW286082   1.301   2.121   7.144 -0.0224  0.5367 -0.2367
28502SOL     OW86083   4.165   7.627   3.862  0.0880  0.3704 -0.4573
28502SOL    HW186084   4.185   7.557   3.799  0.9304 -0.4755  0.7109
28502SOL    HW286085   4.126   7.580   3.937 -0.0918  1.2583  0.0132
28503SOL     OW86086   5.459   0.804   3.470 -0.2657  0.3054 -0.0640
28503SOL    HW186087   5.457   0.820   3.565  2.1747 -0.4893  0.1862
28503SOL    HW286088   5.492   0.886   3.433  1.0419 -0.1307  0.0615
28504SOL     OW86089   4.398   2.461   9.097  0.8288  0.0804 -0.3574
28504SOL    HW186090   4.448   2.468   9.178 -4.7279 -0.2199  3.7094
28504SOL    HW286091   4.395   2.550   9.063  0.8360  0.9122  1.6595
28505SOL     OW86092   6.218   8.022   3.434  0.0930 -0.6027 -0.4142
28505SOL    HW186093   6.134   7.983   3.410 -0.9447  1.6887 -0.7285
28505SOL    HW286094   6.254   8.055   3.351 -0.9189  2.4771  0.2531
28506SOL     OW86095   7.000   0.402   9.317 -0.3145  0.6391 -0.2374
28506SOL    HW186096   6.978   0.310   9.336  0.4698  0.6331  0.7502
28506SOL    HW286097   7.006   0.405   9.222 -1.5852 -0.0298 -0.3710
28507SOL     OW86098   3.243   8.743   1.053  0.4321  0.4584 -0.1219
28507SOL    HW186099   3.233   8.730   0.959 -0.3388  0.9507 -0.1169
28507SOL    HW286100   3.160   8.782   1.081  1.1932  1.7222  0.5004
28508SOL     OW86101   0.778   3.867   9.679  0.0277 -0.1541 -0.0478
28508SOL    HW186102   0.762   3.925   9.753 -0.4631 -1.5611  1.0125
28508SOL    HW286103   0.738   3.784   9.706  0.1625 -0.8047 -1.7517
28509SOL     OW86104   9.497   9.472   9.300  0.3405  0.0720 -0.2440
28509SOL    HW186105   9.512   9.389   9.345  1.8975  0.3066 -0.3053
28509SOL    HW286106   9.424   9.511   9.348 -0.6340 -1.4516 -0.4075
28510SOL     OW86107   8.208   9.189   7.897 -0.0317  0.3122 -0.3286
28510SOL    HW186108   8.226   9.117   7.837  0.4392 -0.3880  0.6207
28510SOL    HW286109   8.295   9.223   7.921 -0.2155  0.5946 -0.0525
28511SOL     OW86110   6.449   6.351   5.347  0.3550 -0.4672 -0.4814
28511SOL    HW186111   6.477   6.268   5.385  3.4011  0.1335 -1.1844
28511SOL    HW286112   6.460   6.415   5.418 -2.5444 -0.6352  0.2471
28512SOL     OW86113   0.147   9.547   0.593  0.2836  0.1441  0.3322
28512SOL    HW186114   0.122   9.522   0.504  1.7942 -1.0731  0.2009
28512SOL    HW286115   0.110   9.479   0.649 -0.3480  0.7042  0.6070
28513SOL     OW86116   6.734   0.157   9.788  0.3681  0.0693  0.4007
28513SOL    HW186117   6.650   0.141   9.831 -0.3273  1.9321 -0.1835
28513SOL    HW286118   6.711   0.183   9.699  1.5786  0.2479  0.1236
28514SOL     OW86119   4.166   1.721   3.968 -0.1672  0.2226  0.0730
28514SOL    HW186120   4.194   1.807   3.998 -0.1832  0.3829 -0.3668
28514SOL    HW286121   4.241   1.686   3.920 -0.0827 -0.1001  0.4411
28515SOL     OW86122   8.180   5.801   4.523 -0.0002  0.2387  0.4257
28515SOL    HW186123   8.223   5.747   4.456  2.0420 -0.6197  2.3053
28515SOL    HW286124   8.229   5.883   4.523  0.3390  0.0477  1.1578
28516SOL     OW86125   1.915   9.471   3.459 -0.8257  0.0215 -0.1289
28516SOL    HW186126   1.902   9.390   3.510  1.0938 -0.8397 -0.9186
28516SOL    HW286127   1.887   9.447   3.370 -2.0897  0.8543  0.0211
28517SOL     OW86128   5.904   4.720   0.282 -0.2062 -0.0499  0.5967
28517SOL    HW186129   5.882   4.801   0.236  2.9806 -0.4461 -1.9799
28517SOL    HW286130   5.841   4.656   0.249 -0.3493  0.5454 -0.3161
28518SOL     OW86131   7.281   5.434   5.618 -0.2868 -0.1488 -0.0558
28518SOL    HW186132   7.256   5.474   5.535  0.9854  0.3270 -0.2455
28518SOL    HW286133   7.278   5.507   5.681 -0.9217 -0.4350  0.2567
28519SOL     OW86134   5.242   8.012   2.058 -0.4349  0.1853 -0.3620
28519SOL    HW186135   5.258   7.980   2.146  0.4189 -0.6241 -0.7866
28519SOL    HW286136   5.150   8.036   2.057 -1.0130 -1.7980  0.1704
28520SOL     OW86137   5.872   7.540   6.870 -0.1126  0.3021  0.3549
28520SOL    HW186138   5.913   7.611   6.820 -0.7401  0.1725 -0.3672
28520SOL    HW286139   5.798   7.513   6.816  0.1895 -0.9872  0.5654
28521SOL     OW86140   7.975   3.386   2.069 -0.3847  0.3235 -0.3670
28521SOL    HW186141   8.036   3.377   2.142 -0.4944 -1.3752 -0.4387
28521SOL    HW286142   7.953   3.479   2.067 -1.0002  0.3112  2.2579
28522SOL     OW86143   9.631   7.895   5.715  0.2567 -0.2322  0.3802
28522SOL    HW186144   9.604   7.880   5.806 -0.0453 -0.5241  0.2465
28522SOL    HW286145   9.633   7.990   5.706  0.8341 -0.1893  0.8514
28523SOL     OW86146   3.675   0.556   7.311  0.1961 -0.1885 -0.2956
28523SOL    HW186147   3.598   0.499   7.303  0.0274 -0.0885  0.5566
28523SOL    HW286148   3.739   0.504   7.359 -0.5816  0.9077  2.0765
28524SOL     OW86149   1.617   9.971   3.671  0.1894  1.4644 -0.4932
28524SOL    HW186150   1.710   9.993   3.673  0.5564  0.3469 -2.6486
28524SOL    HW286151   1.602   9.933   3.585 -2.0925  0.7687  0.1155
28525SOL     OW86152   2.685   9.734   4.208  0.2713 -0.1339  0.1433
28525SOL    HW186153   2.689   9.675   4.133  0.4020  0.7969 -0.6129
28525SOL    HW286154   2.708   9.680   4.283 -1.1251 -1.4067 -0.2869
28526SOL     OW86155   6.887   6.831   5.557 -0.4873 -0.1981  0.8702
28526SOL    HW186156   6.867   6.801   5.646  0.6890  0.8018  1.5102
28526SOL    HW286157   6.849   6.919   5.552 -3.2475 -1.3590 -0.7245
28527SOL     OW86158   4.385   8.796   9.719  0.2267 -0.0759 -0.3605
28527SOL    HW186159   4.400   8.709   9.755  0.7614  0.1221 -0.0847
28527SOL    HW286160   4.405   8.856   9.791 -1.2246  0.2515 -0.2058
28528SOL     OW86161   9.419   8.929   9.776  0.3232 -0.2359  0.0563
28528SOL    HW186162   9.385   8.916   9.864  2.0861 -0.6993  0.7227
28528SOL    HW286163   9.349   8.899   9.718 -0.8937  0.1433  1.2693
28529SOL     OW86164   6.899   4.986   4.411  0.1447 -0.1553  0.5720
28529SOL    HW186165   6.925   5.026   4.328 -1.2745 -0.8457 -0.2359
28529SOL    HW286166   6.910   5.056   4.475  0.2896  0.7136 -0.3739
28530SOL     OW86167   3.362   9.720   8.965  0.6606  0.2086  0.5758
28530SOL    HW186168   3.394   9.702   9.054 -0.1561  0.3430  0.9089
28530SOL    HW286169   3.366   9.815   8.957  1.3651  0.1549  0.2165
28531SOL     OW86170   3.681   0.617   6.228 -0.1615 -0.7339 -0.5495
28531SOL    HW186171   3.674   0.686   6.294  0.9313 -2.9560  2.0841
28531SOL    HW286172   3.711   0.662   6.149  3.3265  1.5496  1.7735
28532SOL     OW86173   0.813   4.298   3.357  0.0123  0.0990  0.3873
28532SOL    HW186174   0.768   4.224   3.398 -1.1775  0.6613  0.1469
28532SOL    HW286175   0.873   4.259   3.294 -1.4097 -0.6502 -0.5451
28533SOL     OW86176   6.901   6.775   4.904  0.1374 -0.1492  0.0090
28533SOL    HW186177   6.940   6.814   4.983  0.6582  1.5272 -1.0168
28533SOL    HW286178   6.975   6.741   4.855  0.0246  0.4949 -0.6205
28534SOL     OW86179   5.792   6.302   7.199 -0.1482 -0.4760 -0.1666
28534SOL    HW186180   5.830   6.220   7.232 -0.1907  0.8836  3.8275
28534SOL    HW286181   5.867   6.351   7.165 -0.2274 -2.3186 -3.3779
28535SOL     OW86182   8.012   5.513   8.827  0.4334  0.7721  0.3137
28535SOL    HW186183   7.998   5.432   8.875 -0.6630  1.2979  0.9291
28535SOL    HW286184   8.048   5.573   8.891  1.4251  0.7341 -0.1855
28536SOL     OW86185   5.741   1.218   4.904 -0.2933 -0.4547 -0.0927
28536SOL    HW186186   5.770   1.135   4.867 -0.1837 -0.3537 -0.2321
28536SOL    HW286187   5.786   1.285   4.853  0.5958 -0.3231  0.8203
28537SOL     OW86188   2.322   0.513   0.393 -0.2676 -0.1246  0.4166
28537SOL    HW186189   2.341   0.582   0.457 -1.0218 -0.0654  0.5805
28537SOL    HW286190   2.408   0.479   0.369  0.3306  2.2707 -1.2607
28538SOL     OW86191   3.020   2.367   9.395 -0.7808 -0.8949 -0.0029
28538SOL    HW186192   3.089   2.420   9.435 -1.3434 -0.5590  0.5418
28538SOL    HW286193   3.019   2.393   9.303 -3.3506  2.7123  0.8166
28539SOL     OW86194   2.645   9.182   6.022  0.3181  0.1700  1.0301
28539SOL    HW186195   2.561   9.136   6.035  1.2932 -1.6831  1.0566
28539SOL    HW286196   2.648   9.200   5.928  0.1040 -0.1964  0.9503
28540SOL     OW86197   1.226   4.174   7.160 -1.1454  0.0521 -0.2335
28540SOL    HW186198   1.170   4.187   7.237 -2.7477 -2.9454 -0.7658
28540SOL    HW286199   1.293   4.113   7.190 -0.1137  1.0279 -0.5135
28541SOL     OW86200   1.760   2.418   6.442 -0.0776  0.2933 -0.3829
28541SOL    HW186201   1.773   2.504   6.481  0.3909  1.3467 -2.6509
28541SOL    HW286202   1.845   2.396   6.403 -0.2388 -1.1292 -0.0019
28542SOL     OW86203   5.685   1.957   3.487  0.1248 -0.2932 -0.5782
28542SOL    HW186204   5.724   1.902   3.419  2.6244  0.0925  0.4060
28542SOL    HW286205   5.648   2.031   3.440 -1.4402 -1.7291 -1.7544
28543SOL     OW86206   4.256   0.439   3.258 -0.6581 -0.1685  0.5799
28543SOL    HW186207   4.270   0.504   3.326  1.2835 -0.2738  0.3430
28543SOL    HW286208   4.298   0.360   3.291  1.5064  0.1275 -1.2091
28544SOL     OW86209   5.166   7.753   8.975  0.4444 -0.0770 -0.3124
28544SOL    HW186210   5.099   7.794   8.920 -0.9021 -2.1786 -0.3631
28544SOL    HW286211   5.226   7.712   8.913 -0.4214 -1.4503 -0.2891
28545SOL     OW86212   7.288   9.745   1.648  0.3453 -0.2924  0.2834
28545SOL    HW186213   7.293   9.696   1.730 -0.1170  1.0823  1.1648
28545SOL    HW286214   7.379   9.757   1.622  0.4591 -2.3724 -0.4520
28546SOL     OW86215   6.147   2.544   9.798  0.2306  0.4493 -0.2396
28546SOL    HW186216   6.196   2.536   9.880 -3.5787 -1.1137  2.1828
28546SOL    HW286217   6.110   2.632   9.801  0.1068  0.3981 -0.2604
28547SOL     OW86218   1.604   2.349   4.534  0.1684 -0.1414 -0.0209
28547SOL    HW186219   1.669   2.419   4.528  0.8516 -0.6572  0.9979
28547SOL    HW286220   1.547   2.362   4.458 -0.0342  1.8341  0.3998
28548SOL     OW86221   9.353   0.241   6.311 -0.0369 -0.6164  0.0249
28548SOL    HW186222   9.417   0.179   6.346 -0.8759 -0.7419  1.3567
28548SOL    HW286223   9.328   0.295   6.385 -0.5736  0.2501 -0.7573
28549SOL     OW86224   5.596   4.232   4.825  0.4487 -0.0714 -0.1292
28549SOL    HW186225   5.610   4.323   4.799 -0.6369  0.5359  1.3181
28549SOL    HW286226   5.507   4.211   4.794  0.5401 -0.5237 -0.1033
28550SOL     OW86227  -0.001   7.367   7.498 -0.1019 -0.6018 -0.0158
28550SOL    HW186228   0.057   7.374   7.574 -0.5338  0.1184  0.2627
28550SOL    HW286229  -0.026   7.275   7.494  2.5510 -1.3806 -1.2790
28551SOL     OW86230   4.538   2.747   9.177  0.3014  0.1239  0.4052
28551SOL    HW186231   4.579   2.833   9.164  0.1669 -0.0495 -1.4234
28551SOL    HW286232   4.612   2.689   9.196  0.2563  0.8533  3.1479
28552SOL     OW86233   1.047   1.569   3.634  0.3463  0.3974 -0.0089
28552SOL    HW186234   1.026   1.586   3.542 -1.9259  0.3974  0.4451
28552SOL    HW286235   1.071   1.477   3.636  2.4135  0.8514 -0.8587
28553SOL     OW86236   5.322   3.218   2.903  0.3074  0.2811 -0.4117
28553SOL    HW186237   5.387   3.153   2.880  0.8588  0.9639 -0.8448
28553SOL    HW286238   5.246   3.197   2.847  0.9386  0.7537 -1.4840
28554SOL     OW86239   9.143   6.073   4.061 -0.1418 -0.1830 -0.0949
28554SOL    HW186240   9.075   6.130   4.098  0.9747  0.5285  0.9581
28554SOL    HW286241   9.218   6.132   4.047  0.7386 -1.2179  0.1671
28555SOL     OW86242   5.552   9.444   2.015  0.3971 -0.2256  0.0081
28555SOL    HW186243   5.643   9.476   2.010 -0.0705  1.3615  1.0493
28555SOL    HW286244   5.553   9.381   2.087  0.3890  0.9831  1.1200
28556SOL     OW86245   3.056   8.419   6.819 -0.1222  0.3518  0.0255
28556SOL    HW186246   3.130   8.366   6.848 -0.0030  0.9007  0.7445
28556SOL    HW286247   3.041   8.482   6.890 -1.7257 -0.1914  0.2145
28557SOL     OW86248   8.393   0.187   3.056  0.3124 -0.1460  0.4104
28557SOL    HW186249   8.409   0.276   3.087 -0.3768  0.7896 -1.7510
28557SOL    HW286250   8.301   0.185   3.033  0.3865 -1.3383  0.1363
28558SOL     OW86251   3.864  -0.004   2.228  0.2265  0.2832 -0.3853
28558SOL    HW186252   3.850   0.091   2.220  0.6672  0.3384 -0.5470
28558SOL    HW286253   3.779  -0.043   2.208  0.3007  0.5972 -1.3355
28559SOL     OW86254   1.625   7.594   4.071 -0.4316  0.1462 -0.1062
28559SOL    HW186255   1.540   7.553   4.053 -0.3401 -0.2750  0.4099
28559SOL    HW286256   1.688   7.538   4.024 -0.6696  2.1322 -3.0558
28560SOL     OW86257   3.385   0.972   4.757 -0.0330 -0.2124  0.1522
28560SOL    HW186258   3.467   0.924   4.769  0.6176  1.0102  0.6962
28560SOL    HW286259   3.317   0.906   4.771  0.8370 -1.0233  0.6766
28561SOL     OW86260   1.364   6.220   4.570 -0.5973  0.0423 -0.3275
28561SOL    HW186261   1.270   6.218   4.555 -0.5369 -2.1688 -0.6994
28561SOL    HW286262   1.403   6.179   4.493  0.4428 -1.6017  0.9881
28562SOL     OW86263   1.939   1.295   1.549  0.2309 -0.1469  0.0940
28562SOL    HW186264   1.852   1.307   1.510  0.3397  1.8688  0.3570
28562SOL    HW286265   1.999   1.297   1.474  0.0790 -1.6278 -0.0966
28563SOL     OW86266   3.053   4.707   3.155 -0.0652  0.0788 -0.4662
28563SOL    HW186267   3.105   4.785   3.172 -1.3191  1.1233 -1.2106
28563SOL    HW286268   3.113   4.634   3.170  1.5283  1.2197 -1.0480
28564SOL     OW86269   2.300   8.276   9.635  0.1368  0.2643  0.0829
28564SOL    HW186270   2.283   8.222   9.712 -1.8090  0.0641 -0.4363
28564SOL    HW286271   2.393   8.265   9.618 -0.0019 -2.1950  0.5612
28565SOL     OW86272   6.125   6.488   8.571  0.0736 -0.3877  0.5173
28565SOL    HW186273   6.185   6.527   8.634  0.3485  1.6711 -0.9221
28565SOL    HW286274   6.183   6.445   8.507 -0.1189 -0.7913  0.6105
28566SOL     OW86275   4.560   2.152   8.285  0.8138  0.2698 -0.2087
28566SOL    HW186276   4.591   2.140   8.195 -0.5838  2.8674 -1.1413
28566SOL    HW286277   4.616   2.221   8.320  0.4587  0.2328  0.4406
28567SOL     OW86278   4.603   5.830   0.321  0.3633 -0.0977  0.1839
28567SOL    HW186279   4.609   5.925   0.307  2.1229 -0.3061 -0.6945
28567SOL    HW286280   4.693   5.803   0.336 -0.0797 -1.7034  0.0462
28568SOL     OW86281   8.662   5.388   0.449  0.4411  0.1761  0.0535
28568SOL    HW186282   8.637   5.478   0.430  0.9119  0.4818  0.8512
28568SOL    HW286283   8.723   5.365   0.380 -0.6611  0.0164 -0.9015
28569SOL     OW86284   5.328   6.437   9.430 -0.4480 -0.5779  0.2984
28569SOL    HW186285   5.285   6.353   9.413 -0.0330 -0.6860 -0.2285
28569SOL    HW286286   5.416   6.414   9.458 -0.9426 -0.3831  2.1155
28570SOL     OW86287   0.651   6.713   5.771  0.6728  0.4764 -0.1057
28570SOL    HW186288   0.671   6.668   5.690  0.2643 -2.4449  1.2807
28570SOL    HW286289   0.560   6.690   5.790  1.5067 -1.2252  2.4216
28571SOL     OW86290   0.920   3.417   9.717 -0.7193  0.1141 -0.0708
28571SOL    HW186291   0.982   3.407   9.790  0.9572 -0.1490 -1.4472
28571SOL    HW286292   0.928   3.334   9.668 -2.5976 -0.1500 -0.0021
28572SOL     OW86293   5.444   8.051   1.866  0.0339 -0.0649 -0.2105
28572SOL    HW186294   5.390   8.025   1.940 -0.6238  2.5314  0.3092
28572SOL    HW286295   5.525   8.000   1.876 -0.8183 -1.2088  1.1435
28573SOL     OW86296   3.506   2.745   1.795  0.0486 -0.3415 -0.0197
28573SOL    HW186297   3.573   2.765   1.729  0.9144 -0.5272  0.7845
28573SOL    HW286298   3.490   2.828   1.839 -0.0368 -0.3554 -0.0248
28574SOL     OW86299   7.170   4.214  -0.010 -0.3016  0.4429 -0.7011
28574SOL    HW186300   7.248   4.175   0.029 -1.1382  0.3979  1.0465
28574SOL    HW286301   7.098   4.156   0.018 -1.1133  1.2230 -1.1230
28575SOL     OW86302   2.722   2.705   0.544 -0.9002 -0.3668 -0.0830
28575SOL    HW186303   2.762   2.620   0.526 -1.1673 -0.2704 -1.1613
28575SOL    HW286304   2.782   2.769   0.506 -0.3438 -0.0036  1.3247
28576SOL     OW86305   3.488   5.692   1.284  0.3621  0.0338 -0.1748
28576SOL    HW186306   3.409   5.641   1.304 -0.7530  1.7047 -0.1121
28576SOL    HW286307   3.534   5.639   1.219 -2.2740  0.2322 -2.4207
28577SOL     OW86308   9.392   6.376   3.628 -0.1525 -0.4363 -0.5261
28577SOL    HW186309   9.482   6.405   3.639 -0.2494 -0.5310  0.6410
28577SOL    HW286310   9.391   6.287   3.664 -1.2215  0.4227  1.7523
28578SOL     OW86311   0.786   5.975   6.002 -0.3024 -0.0393  0.2774
28578SOL    HW186312   0.847   5.991   5.931  0.5029 -0.9171  0.7450
28578SOL    HW286313   0.699   5.993   5.965  0.1520  0.0854 -0.7307
28579SOL     OW86314   5.980   0.043   6.865 -0.3132  0.2360 -0.5619
28579SOL    HW186315   6.031   0.118   6.897  0.6966 -0.5321 -0.3435
28579SOL    HW286316   5.909   0.083   6.814 -0.5523  1.3897  0.6171
28580SOL     OW86317   6.977   5.797   3.763  0.1641  0.1357  0.0441
28580SOL    HW186318   7.029   5.717   3.750  0.3777  0.1487  0.7873
28580SOL    HW286319   6.900   5.768   3.812 -0.3488  0.1922 -0.6916
28581SOL     OW86320   2.826   1.373   5.496  0.0301 -0.2006 -0.1986
28581SOL    HW186321   2.748   1.318   5.498  0.7264 -1.2072 -0.2539
28581SOL    HW286322   2.857   1.373   5.587  0.1922 -0.1263 -0.2543
28582SOL     OW86323   0.283   2.722   8.111  0.2609  0.0809 -0.0138
28582SOL    HW186324   0.311   2.800   8.062 -1.8211  2.0185  1.6857
28582SOL    HW286325   0.188   2.724   8.107  0.1099 -1.3189  1.6654
28583SOL     OW86326   9.461   4.049   4.533 -0.2917 -0.4073  0.0444
28583SOL    HW186327   9.488   3.978   4.591 -0.2722 -1.2829 -0.9981
28583SOL    HW286328   9.472   4.013   4.445 -2.8651 -0.0829 -0.4922
28584SOL     OW86329   6.130   9.997   0.941  0.2888  0.3393 -0.0308
28584SOL    HW186330   6.078   9.917   0.928  1.4513 -0.2576 -1.2364
28584SOL    HW286331   6.181   9.979   1.020 -0.6620  0.5706  0.6476
28585SOL     OW86332   4.992   6.574   5.091  0.0149 -0.8143 -0.5851
28585SOL    HW186333   5.045   6.577   5.170 -0.4917 -0.8832 -0.2429
28585SOL    HW286334   4.925   6.641   5.104  0.0553 -0.6801 -1.0457
28586SOL     OW86335   3.399   1.150   7.666 -0.1686 -0.1937 -0.6019
28586SOL    HW186336   3.485   1.193   7.670 -0.6900  1.0495 -1.9701
28586SOL    HW286337   3.406   1.090   7.591 -0.4810 -0.1152 -0.6943
28587SOL     OW86338   9.399   8.702   7.399 -0.5842 -0.8087  0.4676
28587SOL    HW186339   9.408   8.628   7.458  1.8346  0.7202  2.2003
28587SOL    HW286340   9.488   8.736   7.390 -1.5396  1.6091 -0.6140
28588SOL     OW86341   1.741   7.840   4.876 -0.2843 -0.2376 -0.0315
28588SOL    HW186342   1.722   7.770   4.938  0.8451 -0.3905  0.1712
28588SOL    HW286343   1.835   7.832   4.859 -0.0395  1.4882  0.3278
28589SOL     OW86344   5.979   6.795   7.472  0.0369  0.3394 -0.2057
28589SOL    HW186345   5.974   6.700   7.468 -0.3832  0.3939 -1.6585
28589SOL    HW286346   5.888   6.824   7.482  0.2189  0.5832  0.8679
28590SOL     OW86347   4.443   0.361   0.531 -0.1483  0.4870 -0.4190
28590SOL    HW186348   4.528   0.340   0.571  0.5054  0.3668 -1.7967
28590SOL    HW286349   4.385   0.377   0.605  0.4568 -1.7516  0.6048
28591SOL     OW86350   9.599   5.851   1.132  0.4162  0.2876  0.0307
28591SOL    HW186351   9.687   5.876   1.160  1.1274  0.0896 -1.8748
28591SOL    HW286352   9.591   5.759   1.158  0.9102  0.2075 -0.0840
28592SOL     OW86353   5.506   3.865   7.625 -0.0134 -0.2713  0.5272
28592SOL    HW186354   5.468   3.907   7.548 -0.0196 -1.1796  0.0176
28592SOL    HW286355   5.462   3.780   7.630  0.2089 -0.3431  1.3567
28593SOL     OW86356   8.124   4.633   3.778 -0.0721  0.1333  0.3694
28593SOL    HW186357   8.045   4.641   3.832 -0.3847  0.5875 -0.1480
28593SOL    HW286358   8.152   4.542   3.791 -1.9518 -0.7571 -1.1645
28594SOL     OW86359   1.915   8.011   9.474  0.9107  0.1292  0.2256
28594SOL    HW186360   1.861   8.079   9.433 -0.5732 -1.4916 -0.6751
28594SOL    HW286361   2.004   8.033   9.449  0.3822  1.2483 -0.8189
28595SOL     OW86362   7.267   2.878   4.293  0.5874  0.0089 -0.2635
28595SOL    HW186363   7.346   2.870   4.239  0.4916  0.0618 -0.4107
28595SOL    HW286364   7.194   2.864   4.233  0.5170 -1.4603  0.1285
28596SOL     OW86365   6.470   2.685   4.016  0.2806  0.2398 -0.2654
28596SOL    HW186366   6.510   2.741   3.950 -0.5123  1.0570 -0.0820
28596SOL    HW286367   6.473   2.738   4.096  0.1029 -0.2420  0.0624
28597SOL     OW86368   5.139   7.718   6.773 -0.0360 -0.4636 -0.2710
28597SOL    HW186369   5.157   7.630   6.738  1.3974  0.0580 -0.9010
28597SOL    HW286370   5.092   7.763   6.702  1.0599 -0.0714 -0.7697
28598SOL     OW86371   9.074   2.184   8.121  0.0076  0.0241  0.0421
28598SOL    HW186372   9.148   2.239   8.093 -0.7204  1.8045  1.4160
28598SOL    HW286373   8.997   2.239   8.106 -0.8874 -1.1355  0.2999
28599SOL     OW86374   3.001   4.194   8.925  0.6134 -0.0817 -0.2883
28599SOL    HW186375   2.960   4.274   8.891  0.6814  0.3964  0.7229
28599SOL    HW286376   2.955   4.124   8.879 -1.1772  0.4440  0.5766
28600SOL     OW86377   0.327   0.699   9.138  0.1277 -0.1253 -0.7294
28600SOL    HW186378   0.236   0.724   9.127  0.1049  0.2361  0.2094
28600SOL    HW286379   0.374   0.746   9.069 -0.2660  0.4481 -0.6077
28601SOL     OW86380   4.169   6.724   9.866 -0.5778  0.1615 -0.3664
28601SOL    HW186381   4.189   6.808   9.825  0.4171 -0.4985 -1.2961
28601SOL    HW286382   4.085   6.697   9.828 -0.6021  0.4539 -0.5177
28602SOL     OW86383   1.623   0.549   3.251  0.4467  0.1700 -0.5156
28602SOL    HW186384   1.571   0.510   3.322  1.0458 -0.6614 -0.5117
28602SOL    HW286385   1.590   0.638   3.242  0.2312  0.2218  0.6850
28603SOL     OW86386   5.822   7.005   9.605 -0.0615  0.0028 -0.0802
28603SOL    HW186387   5.765   6.979   9.533  0.7929 -1.7519 -0.1702
28603SOL    HW286388   5.900   7.042   9.563  0.4525 -1.0536 -0.0935
28604SOL     OW86389   9.435   0.238   4.018  0.2699  0.3299 -0.9485
28604SOL    HW186390   9.505   0.270   3.961 -0.5989  0.5649 -1.8956
28604SOL    HW286391   9.367   0.306   4.014  0.3169  0.5185  0.6307
28605SOL     OW86392   3.891   9.092   8.878  0.2381  0.1564 -1.0711
28605SOL    HW186393   3.825   9.024   8.863  1.2799 -1.2975  0.6080
28605SOL    HW286394   3.844   9.159   8.928  0.0743 -1.0304  0.4210
28606SOL     OW86395   0.102   2.351   8.075 -0.3994 -0.1947  0.0292
28606SOL    HW186396   0.149   2.323   7.996  0.5661 -0.8483  0.8109
28606SOL    HW286397   0.168   2.394   8.128 -0.3769 -2.0717  1.6273
28607SOL     OW86398   7.460   7.102   9.283 -0.2621  0.3645  0.1866
28607SOL    HW186399   7.535   7.092   9.342 -0.3539  2.0077  0.6368
28607SOL    HW286400   7.454   7.019   9.237  0.9906 -0.2829  1.1376
28608SOL     OW86401   3.385   9.344   9.707 -0.2865 -0.4379 -0.4642
28608SOL    HW186402   3.465   9.314   9.666 -0.2365  0.0299 -0.7237
28608SOL    HW286403   3.408   9.428   9.746 -0.0051 -1.4307  1.6263
28609SOL     OW86404   4.885   6.258   1.448  0.2941  0.0400 -0.2841
28609SOL    HW186405   4.867   6.248   1.542 -1.9535 -0.7905 -0.7338
28609SOL    HW286406   4.930   6.341   1.441  0.4881  0.1344  1.5365
28610SOL     OW86407   2.889   0.739   9.253 -0.4058  0.4735  0.7788
28610SOL    HW186408   2.887   0.643   9.249 -0.2461  0.4705  0.7651
28610SOL    HW286409   2.980   0.760   9.271 -0.4616  0.6198  0.8853
28611SOL     OW86410   0.441   0.265   8.235 -0.0606  0.2674 -0.2975
28611SOL    HW186411   0.398   0.230   8.313 -2.4890  2.7974 -0.3478
28611SOL    HW286412   0.412   0.209   8.163 -1.8447  0.8062 -0.0337
28612SOL     OW86413   5.179   3.082   1.511 -0.5508  0.1861  0.2671
28612SOL    HW186414   5.121   3.124   1.448 -1.1804 -0.1368  0.6219
28612SOL    HW286415   5.259   3.134   1.509  0.0481 -0.7114 -1.9377
28613SOL     OW86416   8.389   8.577   1.347  0.1265 -0.2841 -0.2748
28613SOL    HW186417   8.305   8.531   1.344 -0.9742  1.3000  2.4466
28613SOL    HW286418   8.370   8.659   1.393  2.9653  0.6669 -0.5784
28614SOL     OW86419   5.879   5.743   2.207 -0.6261  0.3257 -0.3204
28614SOL    HW186420   5.822   5.735   2.283 -0.4033  0.0718 -0.1761
28614SOL    HW286421   5.859   5.666   2.154  0.4735 -0.4481  0.3466
28615SOL     OW86422   5.195   2.524   8.192 -0.8383  0.0680 -0.2603
28615SOL    HW186423   5.278   2.487   8.221 -0.8517  0.9379  0.9704
28615SOL    HW286424   5.184   2.603   8.244 -3.4871 -1.1644  1.2964
28616SOL     OW86425   3.276   5.934   9.615  0.0252 -0.5092  0.8359
28616SOL    HW186426   3.262   5.865   9.679 -1.7957 -0.1986  0.8198
28616SOL    HW286427   3.344   5.990   9.655  1.5198 -2.2366  0.8419
28617SOL     OW86428   3.250   3.273   8.260  0.1641  0.1543  0.1140
28617SOL    HW186429   3.178   3.244   8.204 -1.5466  1.5501  1.4790
28617SOL    HW286430   3.275   3.195   8.309 -0.6409 -0.2796 -0.1435
28618SOL     OW86431   3.776   7.031   1.460 -0.2579  0.1643  0.0386
28618SOL    HW186432   3.713   7.097   1.489  0.3318  0.8250 -0.1376
28618SOL    HW286433   3.758   7.020   1.367 -0.3666  0.0685  0.0713
28619SOL     OW86434   3.425   5.594   6.704 -0.5628 -0.4915 -0.2784
28619SOL    HW186435   3.459   5.573   6.617  1.0371 -0.3024  0.2626
28619SOL    HW286436   3.404   5.509   6.742  0.2404 -0.7128 -0.2935
28620SOL     OW86437   9.503   4.620   1.782 -0.1632 -0.2757 -0.1974
28620SOL    HW186438   9.426   4.641   1.729 -0.7954 -0.3252  0.6862
28620SOL    HW286439   9.478   4.643   1.872  0.4996 -1.2015  0.2415
28621SOL     OW86440   7.328   2.188   1.938  0.8184 -0.1972  0.3800
28621SOL    HW186441   7.403   2.140   1.903  0.2546 -1.3163  0.6508
28621SOL    HW286442   7.350   2.280   1.925  1.7309 -0.5305 -0.5916
28622SOL     OW86443   6.781   8.280   9.863 -0.2633 -0.2812 -0.2430
28622SOL    HW186444   6.806   8.246   9.949  0.9102 -0.9898 -0.8424
28622SOL    HW286445   6.694   8.243   9.846 -0.2584 -0.5850  0.3960
28623SOL     OW86446   5.892   6.466   1.865  0.5460  0.4303  0.1052
28623SOL    HW186447   5.923   6.399   1.926 -0.0148  0.5280  0.5089
28623SOL    HW286448   5.815   6.503   1.908  0.8759  1.3618 -0.0938
28624SOL     OW86449   4.443   3.567   2.036 -0.5248 -0.1132 -0.6380
28624SOL    HW186450   4.390   3.599   1.963 -2.2966  0.2010  0.7544
28624SOL    HW286451   4.381   3.526   2.096  0.8871 -0.3634  0.7235
28625SOL     OW86452   1.350   3.960   9.189 -0.4576  0.2397  0.1972
28625SOL    HW186453   1.257   3.980   9.179 -0.3619  1.9253  2.0737
28625SOL    HW286454   1.363   3.952   9.284  1.6724  2.1239  0.1457
28626SOL     OW86455   6.960   5.207   1.187  0.3162 -0.4556 -0.1537
28626SOL    HW186456   7.041   5.155   1.180  0.6162 -0.1553  0.8407
28626SOL    HW286457   6.985   5.281   1.242 -0.1274  0.7286 -1.5121
28627SOL     OW86458   3.094   9.727   0.301  0.1961 -0.2092 -0.1838
28627SOL    HW186459   3.121   9.813   0.269 -0.2242 -0.2138 -0.5616
28627SOL    HW286460   3.028   9.698   0.238  1.7686 -1.6898 -1.2335
28628SOL     OW86461   4.384   2.995   1.379  0.3543 -0.1241 -0.1491
28628SOL    HW186462   4.318   3.028   1.318  1.0013 -1.4301 -1.6208
28628SOL    HW286463   4.335   2.974   1.459 -0.5756  1.2077 -0.3469
28629SOL     OW86464   1.130   2.230   1.963 -0.3989 -0.1581  0.0766
28629SOL    HW186465   1.102   2.224   2.054  2.5048  0.0511  1.0928
28629SOL    HW286466   1.117   2.142   1.928  0.5346 -0.8676  1.4177
28630SOL     OW86467   8.454   1.336   9.100  0.0498  0.5050  0.6869
28630SOL    HW186468   8.547   1.322   9.081  0.0889 -1.4644  2.1137
28630SOL    HW286469   8.412   1.340   9.014  0.9776 -2.3753  0.0136
28631SOL     OW86470   9.105   9.589   5.056  0.1994 -0.1047  0.1010
28631SOL    HW186471   9.025   9.629   5.090 -0.3624  0.1117 -1.3754
28631SOL    HW286472   9.079   9.555   4.970  1.7057  0.0129 -0.4254
28632SOL     OW86473   8.808   7.952   5.536 -0.6144 -0.0764 -0.5666
28632SOL    HW186474   8.830   7.875   5.482  0.1832  2.1582 -3.6861
28632SOL    HW286475   8.749   8.003   5.481  1.0441  2.8629  0.2021
28633SOL     OW86476   3.493   6.458   9.872 -0.3144  0.0435 -0.4574
28633SOL    HW186477   3.412   6.508   9.864 -0.8166 -0.9106 -1.6614
28633SOL    HW286478   3.515   6.463   9.965 -1.1753  1.1998 -0.2991
28634SOL     OW86479   8.506   6.934   3.449 -0.4069  0.0493 -0.4297
28634SOL    HW186480   8.582   6.884   3.420 -0.8132  0.0350 -1.5378
28634SOL    HW286481   8.523   7.023   3.419 -0.7391  0.0804 -0.5385
28635SOL     OW86482   1.934   7.957   1.660 -0.0929 -0.0937 -0.6417
28635SOL    HW186483   1.878   7.905   1.602  0.1893 -2.9005  1.4118
28635SOL    HW286484   2.022   7.926   1.642  0.2867  0.8422 -0.4470
28636SOL     OW86485   3.599   1.814   3.487  0.5685 -0.1934 -0.3683
28636SOL    HW186486   3.645   1.889   3.525  1.4372  0.1591 -2.0093
28636SOL    HW286487   3.660   1.741   3.500  0.2807 -0.3614  0.0774
28637SOL     OW86488   1.208   0.895   5.383 -0.6122 -0.3904  0.2544
28637SOL    HW186489   1.215   0.881   5.288  0.4213 -0.0085  0.2564
28637SOL    HW286490   1.127   0.944   5.394 -0.0608  0.7651 -0.5862
28638SOL     OW86491   3.603   5.954   1.240 -0.5964 -0.0949  0.1268
28638SOL    HW186492   3.536   5.895   1.276 -2.5043  1.8228 -0.0970
28638SOL    HW286493   3.587   5.953   1.146  1.0379 -1.1308 -0.1788
28639SOL     OW86494   3.484   8.470   7.072  0.4359  0.2271 -0.0712
28639SOL    HW186495   3.411   8.466   7.133  0.5367  0.4403  0.0615
28639SOL    HW286496   3.464   8.403   7.006 -0.3914  0.9794 -0.6093
28640SOL     OW86497   5.686   0.142   7.598 -0.0858  0.0841  0.1852
28640SOL    HW186498   5.706   0.055   7.563  1.1660  0.7431 -0.8302
28640SOL    HW286499   5.598   0.134   7.634 -0.7405 -1.1310 -1.5588
28641SOL     OW86500   1.887   2.800   0.928 -0.1070  0.1683 -0.1273
28641SOL    HW186501   1.923   2.777   0.843  0.8100 -0.1303  0.3274
28641SOL    HW286502   1.794   2.777   0.922  0.2708 -1.3987 -0.5060
28642SOL     OW86503   7.941   9.790   8.452 -0.4059 -0.0025 -0.0608
28642SOL    HW186504   7.892   9.734   8.512 -0.0325  0.6234  0.8592
28642SOL    HW286505   8.015   9.736   8.424  0.5257  0.3083  1.6121
28643SOL     OW86506   0.907   5.799   2.354  0.0024 -0.4424  0.5077
28643SOL    HW186507   0.955   5.783   2.435  0.1769 -1.1382  0.2811
28643SOL    HW286508   0.824   5.837   2.382  1.2976  2.4175  0.8201
28644SOL     OW86509   6.772   7.671   9.999  0.0876 -0.1755  0.1824
28644SOL    HW186510   6.803   7.678   9.909  1.0666 -2.7962  0.2290
28644SOL    HW286511   6.678   7.690   9.994  0.2773  0.5050 -1.2440
28645SOL     OW86512   9.831   5.974   5.088  0.2263  0.0404 -0.0375
28645SOL    HW186513   9.873   5.920   5.021 -0.2910 -1.6044  0.9078
28645SOL    HW286514   9.900   5.988   5.154  0.2394  0.1642 -0.0779
28646SOL     OW86515   8.750   8.688   5.798  0.3745  0.2150 -0.1949
28646SOL    HW186516   8.780   8.603   5.765  0.1148 -0.0753  0.2966
28646SOL    HW286517   8.659   8.694   5.770  0.7526  0.9110 -1.3269
28647SOL     OW86518   3.413   9.347   8.840 -0.1067 -0.6868  0.0302
28647SOL    HW186519   3.350   9.333   8.911 -0.5628 -0.9267 -0.4196
28647SOL    HW286520   3.363   9.333   8.760  0.2802  0.1029 -0.3573
28648SOL     OW86521   8.365   3.284   1.986 -0.6696  0.0754 -0.1214
28648SOL    HW186522   8.453   3.295   2.022  0.0020 -4.4284  0.1290
28648SOL    HW286523   8.319   3.230   2.051 -3.1298  0.9694 -1.0078
28649SOL     OW86524   8.583   8.082   5.417  0.6349  0.2992 -0.9490
28649SOL    HW186525   8.574   8.176   5.405 -0.4031  0.4060  0.3857
28649SOL    HW286526   8.501   8.056   5.459  0.6217 -1.3120 -1.8830
28650SOL     OW86527   0.143   9.800   4.691  0.0495 -0.1038  0.1799
28650SOL    HW186528   0.238   9.805   4.697 -0.1026  1.8101  2.4308
28650SOL    HW286529   0.115   9.890   4.671 -1.3339 -0.0332  2.0984
28651SOL     OW86530   3.381   5.865   8.324 -0.0979 -0.5656 -0.3901
28651SOL    HW186531   3.345   5.880   8.236  0.7175 -1.2603 -0.8639
28651SOL    HW286532   3.304   5.856   8.380 -0.7673 -3.4871 -1.6175
28652SOL     OW86533   7.963   5.337   4.732 -0.2148  0.1394  0.2845
28652SOL    HW186534   7.977   5.392   4.809 -2.3661 -0.5830  1.3007
28652SOL    HW286535   7.875   5.361   4.701  0.6801  0.5718 -2.1343
28653SOL     OW86536   8.955   5.247   8.720  0.3221 -0.4496  0.5600
28653SOL    HW186537   8.860   5.255   8.725  0.4639  2.8975  0.1439
28653SOL    HW286538   8.981   5.213   8.806 -1.1582  0.1722  1.2834
28654SOL     OW86539   5.231   8.529   1.880  0.5061  0.5614  0.1117
28654SOL    HW186540   5.288   8.453   1.863 -2.3332 -1.6299 -0.5096
28654SOL    HW286541   5.219   8.569   1.794 -0.2731 -0.0897 -0.0963
28655SOL     OW86542   9.521   4.707   0.061 -0.6967  0.2348 -0.1825
28655SOL    HW186543   9.455   4.776   0.065 -0.4924  0.4164  0.1499
28655SOL    HW286544   9.494   4.651  -0.011 -0.8164  0.7195 -0.5177
28656SOL     OW86545   3.135   3.644   2.615  0.1954 -0.5090  0.3482
28656SOL    HW186546   3.163   3.569   2.563  2.8049 -0.4936  1.6096
28656SOL    HW286547   3.047   3.621   2.645  0.3544 -2.3908 -0.5142
28657SOL     OW86548   3.886   1.049   2.404 -0.5261 -0.4091 -0.0699
28657SOL    HW186549   3.906   0.970   2.455 -0.6764 -0.0500  0.5582
28657SOL    HW286550   3.797   1.072   2.431 -0.0259  0.6931  0.7140
28658SOL     OW86551   8.783   0.827   9.707  0.7030  0.0384 -0.7451
28658SOL    HW186552   8.783   0.886   9.783 -0.2957  0.6373 -1.1780
28658SOL    HW286553   8.843   0.868   9.645  2.3590 -1.0156  0.1046
28659SOL     OW86554   3.758   4.424   4.105 -0.6879 -0.5891  0.6485
28659SOL    HW186555   3.667   4.437   4.079 -0.5934 -0.8679  0.1725
28659SOL    HW286556   3.789   4.353   4.050  0.2305  0.4436 -0.2109
28660SOL     OW86557   2.914   8.756   9.287 -0.5167  0.0887  0.6885
28660SOL    HW186558   2.960   8.702   9.224  0.3563 -0.1843  1.5363
28660SOL    HW286559   2.927   8.712   9.371 -0.5261  1.1506  1.2695
28661SOL     OW86560   7.540   4.799   6.471 -0.0848 -0.1362 -0.1374
28661SOL    HW186561   7.485   4.742   6.524 -1.2003  0.0890 -1.0108
28661SOL    HW286562   7.617   4.815   6.525 -0.5152 -1.0968  0.8011
28662SOL     OW86563   3.036   2.671   5.599 -0.1052 -0.0609 -0.0202
28662SOL    HW186564   3.071   2.582   5.593 -0.3636 -0.1748  0.1616
28662SOL    HW286565   3.038   2.691   5.693  1.0698  0.5751 -0.1593
28663SOL     OW86566   6.618   1.679   1.812  0.0674  0.2338  0.3236
28663SOL    HW186567   6.640   1.679   1.719  0.7597  1.8905  0.4538
28663SOL    HW286568   6.673   1.748   1.849 -2.1083  1.4331  1.5047
28664SOL     OW86569   8.209   4.739   2.316  0.2331  0.2163  0.4424
28664SOL    HW186570   8.161   4.716   2.237  3.5492  2.1555 -2.4155
28664SOL    HW286571   8.159   4.811   2.355 -0.2162  0.8867 -1.3093
28665SOL     OW86572   7.156   5.419   0.408  0.0125  0.0351 -0.4647
28665SOL    HW186573   7.101   5.389   0.481 -1.1822 -0.3100 -1.4731
28665SOL    HW286574   7.245   5.419   0.444 -0.4648 -0.7672  0.7950
28666SOL     OW86575   3.628   3.538   0.928  0.0056 -0.4439 -0.4078
28666SOL    HW186576   3.576   3.482   0.871 -0.3405 -0.4087 -0.1269
28666SOL    HW286577   3.577   3.544   1.009  2.0499 -3.3473  1.2885
28667SOL     OW86578   1.832   3.840   2.491 -0.4188  0.2875  0.3441
28667SOL    HW186579   1.779   3.836   2.411 -0.1124 -0.2275  0.1614
28667SOL    HW286580   1.862   3.750   2.504 -0.8860  0.2657  1.3323
28668SOL     OW86581   2.536   3.776   6.246  0.2375 -0.4328 -0.1298
28668SOL    HW186582   2.504   3.744   6.161  0.0851 -0.5857 -0.0165
28668SOL    HW286583   2.580   3.701   6.285  0.4477 -0.3165 -0.1417
28669SOL     OW86584   9.883   9.297   2.905  0.1347 -0.3407 -0.3049
28669SOL    HW186585   9.821   9.293   2.832  1.8257 -1.6314 -1.7429
28669SOL    HW286586   9.897   9.206   2.930 -0.7978  0.0936  2.0463
28670SOL     OW86587   4.421   0.406   8.461  0.4123  0.7449  0.3272
28670SOL    HW186588   4.458   0.485   8.422 -1.2290  1.3349 -0.1300
28670SOL    HW286589   4.326   0.418   8.454  0.1074 -0.5065  1.7945
28671SOL     OW86590   6.347   7.735   1.978  0.2725  1.1253  0.3180
28671SOL    HW186591   6.278   7.779   1.930  1.4208  0.1746 -2.3956
28671SOL    HW286592   6.320   7.643   1.979  1.0737  0.8821 -0.0062
28672SOL     OW86593   7.996   8.302   1.087 -0.5785 -0.0251 -0.0570
28672SOL    HW186594   8.033   8.260   1.010  0.0986  0.7808 -0.1864
28672SOL    HW286595   7.910   8.333   1.058  0.0170  1.0315 -0.7765
28673SOL     OW86596   3.128   5.617   5.896 -0.0955 -0.0666 -0.0161
28673SOL    HW186597   3.167   5.675   5.962  2.0874 -1.0893 -0.2993
28673SOL    HW286598   3.108   5.537   5.945 -0.2418 -0.1480 -0.2117
28674SOL     OW86599   6.271   5.130   8.060 -0.6116  0.0900  0.1706
28674SOL    HW186600   6.282   5.156   7.968 -1.7363 -1.1864 -0.3686
28674SOL    HW286601   6.334   5.058   8.072  0.5064  1.1471  0.8288
28675SOL     OW86602   1.932   7.696   5.023 -0.5680  0.3362 -0.0879
28675SOL    HW186603   1.889   7.627   5.074 -0.3967 -0.0354 -0.4465
28675SOL    HW286604   1.933   7.771   5.082 -0.8469  0.0657  0.2698
28676SOL     OW86605   6.394   2.527   7.437  0.3989 -0.2963 -0.0536
28676SOL    HW186606   6.315   2.525   7.491  1.4075  2.2742  1.7321
28676SOL    HW286607   6.362   2.533   7.347 -1.3812 -1.0197  0.4880
28677SOL     OW86608   7.784   4.928   1.714 -0.0822 -0.1081  0.2614
28677SOL    HW186609   7.698   4.925   1.756 -0.2294 -1.2662 -0.0812
28677SOL    HW286610   7.765   4.947   1.622  0.2894  3.3318  0.7621
28678SOL     OW86611   5.050   0.133   0.204 -0.5242  0.9718 -0.4651
28678SOL    HW186612   5.009   0.141   0.118 -2.2329 -0.7017  0.1334
28678SOL    HW286613   5.004   0.197   0.258  1.6450  3.2098 -1.0713
28679SOL     OW86614   7.240   7.958   7.052  0.0581  0.0220  0.7589
28679SOL    HW186615   7.322   8.001   7.028 -0.5419  1.9576  1.9124
28679SOL    HW286616   7.202   7.930   6.969  1.5955 -0.3856  0.1645
28680SOL     OW86617   2.191   0.860   3.999 -0.4146 -0.4490 -0.1362
28680SOL    HW186618   2.144   0.793   3.948 -1.3071  1.3026 -1.7270
28680SOL    HW286619   2.133   0.878   4.073 -1.4158  0.3638 -1.0878
28681SOL     OW86620   2.315   4.802   0.634  0.0903  0.1994 -0.2573
28681SOL    HW186621   2.252   4.811   0.705  0.4366 -1.2201  0.2763
28681SOL    HW286622   2.265   4.823   0.555 -0.6524  0.5395  0.2927
28682SOL     OW86623   0.315   5.968   4.323  0.0304  0.3031 -0.5936
28682SOL    HW186624   0.344   5.963   4.232  1.4511  0.2139 -0.1564
28682SOL    HW286625   0.395   5.979   4.374 -0.7823  0.9120  0.6151
28683SOL     OW86626   7.196   4.431   1.217  0.1308 -0.3243  0.0628
28683SOL    HW186627   7.271   4.396   1.170  0.0172  2.4858 -2.4776
28683SOL    HW286628   7.124   4.429   1.153 -1.0808  0.1192  1.3551
28684SOL     OW86629   0.694   3.724   1.161 -0.1863 -0.0959 -0.3330
28684SOL    HW186630   0.733   3.806   1.130 -0.7214  0.4364  0.3588
28684SOL    HW286631   0.638   3.695   1.089 -0.3993  0.4314 -0.3870
28685SOL     OW86632   7.057   1.878   5.691  0.1487  0.4580 -0.0432
28685SOL    HW186633   7.089   1.897   5.603 -2.0459  0.2236 -0.9596
28685SOL    HW286634   7.025   1.788   5.686 -2.3410  1.2394  0.1937
28686SOL     OW86635   6.619   2.912   7.616  0.1851 -0.5515 -0.2738
28686SOL    HW186636   6.642   2.822   7.639 -1.1299 -1.1413 -1.1864
28686SOL    HW286637   6.567   2.905   7.536  1.2440  1.1405 -1.1773
28687SOL     OW86638   9.226   0.942   9.683  0.2452  0.5036  0.3234
28687SOL    HW186639   9.223   0.853   9.718 -1.5884  0.1471 -0.6270
28687SOL    HW286640   9.164   0.991   9.736 -0.6976  0.5596 -0.7930
28688SOL     OW86641   1.073   9.683   7.001 -0.3927  0.0167  0.1131
28688SOL    HW186642   1.073   9.673   7.096  0.6642 -0.4804  0.0775
28688SOL    HW286643   1.163   9.706   6.979 -0.4431 -0.6210 -0.8319
28689SOL     OW86644   6.525   3.205   7.941  0.4305 -0.1133  0.3191
28689SOL    HW186645   6.444   3.247   7.971 -0.4496  0.3322 -2.3360
28689SOL    HW286646   6.549   3.144   8.011 -1.1437  1.0886  2.0006
28690SOL     OW86647   8.189   2.085   0.777 -0.1105 -0.6101 -0.2278
28690SOL    HW186648   8.128   2.027   0.732 -0.5449 -0.4756  0.1702
28690SOL    HW286649   8.157   2.173   0.758 -0.2729 -0.5495  0.2843
28691SOL     OW86650   7.760   8.868   3.673 -0.5034 -0.2493  0.7505
28691SOL    HW186651   7.675   8.874   3.716 -0.8601 -0.1865  0.0609
28691SOL    HW286652   7.742   8.824   3.590  0.2141 -0.6236  0.7835
28692SOL     OW86653   4.492   9.776   4.150  0.0611  0.6393  0.1185
28692SOL    HW186654   4.563   9.724   4.188  0.1910 -0.1478 -1.1494
28692SOL    HW286655   4.521   9.794   4.060 -0.9596  1.0600 -0.1368
28693SOL     OW86656   5.850   7.658   7.818  0.2989  0.1792 -0.0697
28693SOL    HW186657   5.937   7.698   7.827  0.9913 -1.2125 -0.2918
28693SOL    HW286658   5.809   7.670   7.904  1.3019 -0.4703  0.5204
28694SOL     OW86659   0.078   4.328   7.451 -0.1829 -0.5838 -0.2878
28694SOL    HW186660   0.057   4.417   7.423  0.6954 -0.1315  0.4036
28694SOL    HW286661  -0.006   4.290   7.476 -0.3730  0.7900  1.4195
28695SOL     OW86662   7.843   6.687   6.632  0.5600  0.4577  0.2266
28695SOL    HW186663   7.762   6.727   6.601  0.4744 -0.1845 -0.4175
28695SOL    HW286664   7.855   6.611   6.575  0.8421 -0.2914  1.2450
28696SOL     OW86665   4.481   1.279   4.898  0.1692 -0.1761  0.3289
28696SOL    HW186666   4.503   1.356   4.950 -0.9737 -1.1203  2.3147
28696SOL    HW286667   4.491   1.205   4.958  0.7354 -1.5653 -1.3718
28697SOL     OW86668   0.892   6.883   5.621 -0.1861 -0.4159  0.1016
28697SOL    HW186669   0.951   6.815   5.589 -0.5284 -0.7200  0.1191
28697SOL    HW286670   0.807   6.863   5.581  0.1066  1.0246 -1.3304
28698SOL     OW86671   6.838   7.948   2.418 -0.5001  0.4166  0.5236
28698SOL    HW186672   6.806   7.983   2.501  1.3035  1.6810  0.7582
28698SOL    HW286673   6.803   8.007   2.352  0.7423  1.4110  0.7207
28699SOL     OW86674   5.359   6.452   4.578 -0.1196 -0.6567 -0.1943
28699SOL    HW186675   5.452   6.440   4.560  0.0003 -0.1728  0.0749
28699SOL    HW286676   5.326   6.363   4.592  0.2080 -0.8662 -0.7221
28700SOL     OW86677   8.987   9.199   7.990 -0.4517  0.3718 -0.4394
28700SOL    HW186678   9.001   9.289   7.961  2.3037  0.9223  2.0796
28700SOL    HW286679   9.069   9.154   7.970  0.0110 -0.2633  2.3668
28701SOL     OW86680   2.383   6.816   7.689 -0.4772  0.6609 -0.3898
28701SOL    HW186681   2.297   6.835   7.652  0.3226  0.8616 -2.2625
28701SOL    HW286682   2.401   6.726   7.663  0.6538  1.2314 -1.7183
28702SOL     OW86683   5.928   1.857   6.945 -0.1023 -0.0946 -0.1560
28702SOL    HW186684   5.931   1.939   6.995 -2.4018 -0.6470  1.0272
28702SOL    HW286685   6.015   1.849   6.907  0.6336  2.1612  0.8814
28703SOL     OW86686   8.170   8.593   0.283  0.2238  0.0071 -0.2866
28703SOL    HW186687   8.160   8.653   0.357  0.0808 -0.3658  0.0029
28703SOL    HW286688   8.117   8.517   0.307 -1.7027  0.7993 -1.7687
28704SOL     OW86689   6.144   9.293   1.833 -0.1348 -0.1367 -0.3273
28704SOL    HW186690   6.164   9.383   1.811 -1.5713  0.7991  1.8029
28704SOL    HW286691   6.054   9.280   1.802 -0.3013 -0.4648  0.2642
28705SOL     OW86692   6.662   2.884   4.851 -0.1840 -0.5850  0.1610
28705SOL    HW186693   6.615   2.967   4.865 -0.2732 -0.3309 -1.4709
28705SOL    HW286694   6.754   2.910   4.846  0.1264 -0.9942  2.6315
28706SOL     OW86695   1.032   5.219   8.965 -0.0844  0.1677  0.4219
28706SOL    HW186696   0.944   5.227   8.929 -0.3893  0.5101  1.2237
28706SOL    HW286697   1.064   5.135   8.932  0.5168  1.3855 -2.4640
28707SOL     OW86698   9.289   0.478   5.385  0.1446  0.2298 -0.2673
28707SOL    HW186699   9.226   0.454   5.453 -0.4904  0.1079 -0.8857
28707SOL    HW286700   9.299   0.573   5.393 -1.3566  0.5009 -1.1740
28708SOL     OW86701   5.299   0.682   1.507 -0.2405  0.2782  0.1866
28708SOL    HW186702   5.257   0.751   1.557 -1.2770 -1.1048  1.3100
28708SOL    HW286703   5.228   0.623   1.482  0.7204 -0.9094  0.1400
28709SOL     OW86704   1.645   0.099   2.757 -0.0620  0.1951 -0.1763
28709SOL    HW186705   1.661   0.180   2.708  0.7014 -0.7697 -1.5692
28709SOL    HW286706   1.553   0.105   2.782 -0.0301  1.4812 -0.2658
28710SOL     OW86707   9.243   1.972   6.817 -0.4642 -0.3125  0.7330
28710SOL    HW186708   9.240   1.878   6.802  0.3831 -0.2160 -0.1422
28710SOL    HW286709   9.329   1.999   6.784 -0.7235  0.7753  0.9044
28711SOL     OW86710   4.119   2.843   6.340 -0.2951  0.1748  0.2157
28711SOL    HW186711   4.075   2.908   6.395  2.1499  0.9003  1.4628
28711SOL    HW286712   4.156   2.781   6.402  2.1771  0.7711 -0.5794
28712SOL     OW86713   1.865   9.592   4.230 -0.1247 -0.6698 -0.0527
28712SOL    HW186714   1.778   9.631   4.233  1.3635  2.8981  0.7863
28712SOL    HW286715   1.887   9.589   4.137 -0.9108 -1.2072 -0.2375
28713SOL     OW86716   4.395   1.142   0.024  0.0091 -0.2796  0.5220
28713SOL    HW186717   4.341   1.209  -0.018  0.2859 -0.6216 -0.3880
28713SOL    HW286718   4.336   1.067   0.034  0.1499 -0.4541  0.0579
28714SOL     OW86719   6.407   3.048   4.168  0.3314  0.1156 -1.0305
28714SOL    HW186720   6.491   3.055   4.214 -0.0077  2.2014 -0.6453
28714SOL    HW286721   6.406   3.123   4.109 -1.6073  0.6240 -0.4098
28715SOL     OW86722   9.514   3.856   7.811  0.3423  0.2866 -0.3006
28715SOL    HW186723   9.444   3.920   7.799 -1.0291 -1.1447 -0.2229
28715SOL    HW286724   9.522   3.812   7.726 -1.7233 -2.3015  0.7190
28716SOL     OW86725   1.832   1.140   4.579  0.2291  0.4897 -0.0364
28716SOL    HW186726   1.891   1.070   4.607 -0.1989 -1.1438 -2.8636
28716SOL    HW286727   1.772   1.098   4.517 -1.7943  2.8107  0.1885
28717SOL     OW86728   3.882   2.578   9.489  0.3834 -0.2556  0.0599
28717SOL    HW186729   3.928   2.499   9.461  0.9281  0.5096 -1.2984
28717SOL    HW286730   3.948   2.630   9.536 -0.1951 -0.9547  1.7279
28718SOL     OW86731   5.198   9.068   3.077 -0.0502 -0.1644  0.0823
28718SOL    HW186732   5.116   9.080   3.124 -0.0154  0.0308  0.0933
28718SOL    HW286733   5.264   9.058   3.145  0.0005  0.1195  0.0742
28719SOL     OW86734   8.201   3.682   6.828  0.1068  0.4046 -0.4906
28719SOL    HW186735   8.256   3.718   6.898  0.0609  1.0798 -0.7926
28719SOL    HW286736   8.114   3.719   6.845 -0.0455  0.0754 -0.5497
28720SOL     OW86737   3.826   7.537   8.966  0.0107  0.4962  0.1219
28720SOL    HW186738   3.806   7.586   8.886  1.5961 -0.6162 -1.0179
28720SOL    HW286739   3.743   7.498   8.992 -0.4582  0.5717 -1.1982
28721SOL     OW86740   2.244   5.104   8.028  0.0274 -0.0240 -0.1383
28721SOL    HW186741   2.223   5.188   7.986 -1.0398 -1.4558 -2.6652
28721SOL    HW286742   2.325   5.076   7.987 -0.2154 -0.7520 -0.1271
28722SOL     OW86743   1.235   0.918   3.434  0.5457  0.0038 -0.7558
28722SOL    HW186744   1.169   0.951   3.373  0.7585  0.6802 -0.6360
28722SOL    HW286745   1.262   0.834   3.398 -0.6417 -0.4694 -0.6143
28723SOL     OW86746   4.699   5.227   2.973  0.0087 -0.0876 -0.1376
28723SOL    HW186747   4.786   5.235   2.934 -0.0237  0.0492 -0.1809
28723SOL    HW286748   4.671   5.138   2.951  0.5740 -0.5042  0.7642
28724SOL     OW86749   7.180   3.687   0.780  0.0328 -0.4635 -0.3294
28724SOL    HW186750   7.164   3.632   0.703 -0.1626 -1.8369  0.6605
28724SOL    HW286751   7.263   3.655   0.814  0.0362  0.0304  0.1221
28725SOL     OW86752   5.803   5.535   6.345  0.7112 -0.1613 -0.7619
28725SOL    HW186753   5.756   5.612   6.376 -0.3055 -0.4440 -1.5391
28725SOL    HW286754   5.855   5.506   6.420 -0.5856 -0.0034  0.2249
28726SOL     OW86755   2.525   2.752   3.870 -0.3583 -0.2046 -0.6885
28726SOL    HW186756   2.589   2.690   3.906 -0.7080 -0.2907 -0.2058
28726SOL    HW286757   2.454   2.696   3.840 -0.2582 -0.1000 -1.1207
28727SOL     OW86758   4.164   3.750   8.344 -0.8066  0.3192 -0.2304
28727SOL    HW186759   4.105   3.685   8.306  0.3377 -0.0725 -1.4074
28727SOL    HW286760   4.198   3.709   8.423  0.6421 -0.9992 -1.4467
28728SOL     OW86761   0.206   1.582   0.870  0.0312 -0.1590 -0.0074
28728SOL    HW186762   0.178   1.648   0.933 -1.0150 -0.4638 -0.1322
28728SOL    HW286763   0.176   1.499   0.908  1.0012 -0.5230 -0.0282
28729SOL     OW86764   8.443   4.414   4.143  0.0105 -0.1068  0.7001
28729SOL    HW186765   8.440   4.455   4.056  1.0647  1.3893  1.3312
28729SOL    HW286766   8.533   4.383   4.152 -0.5743 -1.9275  0.5539
28730SOL     OW86767   9.792   9.797   4.668 -0.2822 -0.6308 -0.3819
28730SOL    HW186768   9.851   9.857   4.622  0.2291  0.0766  1.1366
28730SOL    HW286769   9.826   9.710   4.647  0.4984 -0.2809 -0.6079
28731SOL     OW86770   8.628   1.121   3.280  0.4488 -0.1454  0.4017
28731SOL    HW186771   8.626   1.101   3.186  0.7750 -3.0225  0.9115
28731SOL    HW286772   8.669   1.207   3.285  1.1581 -0.2556 -2.0670
28732SOL     OW86773   3.404   2.298   0.619  0.6329  0.3417 -0.1651
28732SOL    HW186774   3.430   2.365   0.555  0.3174  0.3518 -0.2889
28732SOL    HW286775   3.357   2.346   0.687 -1.2858  0.0426 -1.2040
28733SOL     OW86776   5.516   3.961   9.695  0.2318 -0.3303  0.1462
28733SOL    HW186777   5.456   3.940   9.623  1.1676  3.1728 -1.9012
28733SOL    HW286778   5.603   3.960   9.655  1.0276 -0.2645  1.7773
28734SOL     OW86779   6.180   3.470   4.425  0.1643  0.0955 -0.1542
28734SOL    HW186780   6.151   3.383   4.398  0.0855  0.6240 -1.8838
28734SOL    HW286781   6.248   3.493   4.362  0.2006  1.2822  0.3011
28735SOL     OW86782   0.334   9.271   7.516 -0.2129  0.1223 -0.5598
28735SOL    HW186783   0.383   9.284   7.435  0.2663 -0.6447 -0.4013
28735SOL    HW286784   0.244   9.255   7.487  0.0329 -0.5519 -0.9741
28736SOL     OW86785   6.999   5.415   6.462  0.5289 -0.6616  0.3995
28736SOL    HW186786   7.080   5.435   6.416  1.0337 -1.8235  0.7342
28736SOL    HW286787   6.930   5.433   6.399  0.9924  0.8055  0.2654
28737SOL     OW86788   3.612   0.416   6.539 -0.2690  0.0074  0.5919
28737SOL    HW186789   3.543   0.358   6.571 -0.2910  1.4409  3.3964
28737SOL    HW286790   3.567   0.497   6.516  0.2784  0.3838  0.8269
28738SOL     OW86791   9.665   1.840   0.384  0.1097  0.4495 -0.1368
28738SOL    HW186792   9.724   1.849   0.458 -0.4632 -0.0578  0.3912
28738SOL    HW286793   9.578   1.829   0.423 -0.3178  1.0288 -0.8961
28739SOL     OW86794   5.351   6.921   1.706  0.2930 -1.3321 -0.0850
28739SOL    HW186795   5.361   7.008   1.744 -0.4132 -1.2280 -0.1190
28739SOL    HW286796   5.433   6.906   1.658  0.4671 -0.7381  0.0174
28740SOL     OW86797   9.309   1.315   0.311 -0.0745  0.0821 -0.0211
28740SOL    HW186798   9.358   1.323   0.392 -1.6549  0.5254  0.9254
28740SOL    HW286799   9.370   1.345   0.243  1.3092 -0.4228  0.9589
28741SOL     OW86800   2.781   1.579   6.529  0.1687 -0.1762 -0.0864
28741SOL    HW186801   2.874   1.575   6.551  0.2919  0.0170 -0.5562
28741SOL    HW286802   2.736   1.544   6.606  0.6697 -0.9831 -0.1479
28742SOL     OW86803   3.263   0.287   7.627  0.3288  0.1960  0.3022
28742SOL    HW186804   3.351   0.264   7.599 -0.4655 -2.3347 -0.3337
28742SOL    HW286805   3.273   0.373   7.667  2.7950  0.6691 -1.1267
28743SOL     OW86806   7.683   5.062   7.883 -0.4763  0.0195 -0.0454
28743SOL    HW186807   7.677   4.972   7.850  1.0675 -0.1318  0.0139
28743SOL    HW286808   7.660   5.116   7.808  0.0944 -0.3986 -0.5334
28744SOL     OW86809   2.514   8.336   4.275  0.2109  0.6374  0.0033
28744SOL    HW186810   2.506   8.411   4.334  1.2330  1.7344 -1.2016
28744SOL    HW286811   2.557   8.371   4.197  1.5369 -1.3661 -0.2499
28745SOL     OW86812   2.009   0.299   1.204 -0.0312 -0.4675 -0.0716
28745SOL    HW186813   1.914   0.306   1.198  0.0424  0.9454 -0.0511
28745SOL    HW286814   2.034   0.244   1.131 -0.7793  0.1251 -0.7998
28746SOL     OW86815   1.043   9.166   7.420 -0.0899 -0.4557  0.1113
28746SOL    HW186816   1.011   9.090   7.372  0.0325 -0.4303 -0.0134
28746SOL    HW286817   1.125   9.136   7.461  1.2401  0.2644 -1.8689
28747SOL     OW86818   4.000   4.147   1.425  0.0279  0.2863  0.7021
28747SOL    HW186819   4.094   4.132   1.433  0.3904  0.4855 -2.2434
28747SOL    HW286820   3.962   4.059   1.417 -0.0297  0.2254  1.5261
28748SOL     OW86821   2.837   1.338   1.856  0.3077  0.1232  0.1519
28748SOL    HW186822   2.789   1.292   1.924  0.9478  0.5479  0.9128
28748SOL    HW286823   2.774   1.400   1.820  0.2798  0.7147  1.1726
28749SOL     OW86824   1.437   6.363   4.178 -0.0932 -0.6142 -0.2214
28749SOL    HW186825   1.438   6.291   4.240  2.1937  0.2609  0.8904
28749SOL    HW286826   1.530   6.383   4.163 -0.6091  0.4673 -2.4487
28750SOL     OW86827   3.762   1.919   2.465 -0.1954  0.1704 -0.6749
28750SOL    HW186828   3.768   1.956   2.553 -1.9681  0.5740 -0.6819
28750SOL    HW286829   3.716   1.836   2.476  0.6309 -0.3542 -1.0895
28751SOL     OW86830   4.140   5.006   9.535 -0.0441  0.6363  0.4420
28751SOL    HW186831   4.222   4.958   9.528  0.2416  1.0443  0.9088
28751SOL    HW286832   4.077   4.942   9.567 -0.7814 -0.6230 -3.0760
28752SOL     OW86833   1.072   8.242   7.413 -0.3989  0.0001  0.2065
28752SOL    HW186834   1.070   8.147   7.404  0.0835 -0.0845  0.9181
28752SOL    HW286835   1.056   8.275   7.324 -0.6425 -0.7378 -0.0319
28753SOL     OW86836   3.051   2.220   0.459  0.2987 -0.0957 -0.3166
28753SOL    HW186837   3.032   2.284   0.527 -0.6020 -0.2488 -0.4145
28753SOL    HW286838   3.050   2.135   0.503 -1.9272 -0.3678 -0.7660
28754SOL     OW86839   0.330   5.000   5.883 -0.1277  0.0937  0.6367
28754SOL    HW186840   0.303   4.916   5.846 -0.3824  0.5598 -0.2616
28754SOL    HW286841   0.424   5.003   5.869 -0.3963  0.9144 -1.4320
28755SOL     OW86842   7.061   1.753   2.166 -0.5009 -0.0842  0.0198
28755SOL    HW186843   6.989   1.803   2.127 -0.1144  0.4477 -0.0352
28755SOL    HW286844   7.020   1.676   2.204 -1.4185  1.2890  1.9695
28756SOL     OW86845   4.523   9.387   2.681  0.2118 -0.4048 -0.3272
28756SOL    HW186846   4.462   9.454   2.710  0.7390  0.0165 -0.1990
28756SOL    HW286847   4.468   9.309   2.669 -0.6710  0.3950 -1.8554
28757SOL     OW86848   0.610   1.729   5.261  0.0819  0.1196  0.1980
28757SOL    HW186849   0.586   1.642   5.293  0.2596 -0.3801 -0.9827
28757SOL    HW286850   0.526   1.771   5.243  0.0037  0.0244  0.3323
28758SOL     OW86851   4.154   6.216   1.772 -0.4502 -0.0036  0.0770
28758SOL    HW186852   4.142   6.127   1.805 -1.1966 -0.0324 -0.2650
28758SOL    HW286853   4.116   6.215   1.685  2.4407 -0.2155 -1.3135
28759SOL     OW86854   6.157   3.287   9.099  1.0015  0.8116  0.2999
28759SOL    HW186855   6.162   3.353   9.029 -1.4781  1.3488  0.5062
28759SOL    HW286856   6.241   3.293   9.144  1.3115  2.9970 -0.4403
28760SOL     OW86857   2.546   7.314   5.124  0.4334 -0.6790 -0.3491
28760SOL    HW186858   2.577   7.368   5.197 -0.6271 -0.3522 -0.1168
28760SOL    HW286859   2.545   7.225   5.160 -0.6652 -0.4471  0.2746
28761SOL     OW86860   5.685   9.644   4.541 -0.0636 -0.6713  0.4613
28761SOL    HW186861   5.678   9.617   4.449 -2.3529  1.5690 -0.1449
28761SOL    HW286862   5.709   9.564   4.588 -0.0635 -2.1739 -1.9164
28762SOL     OW86863   4.860   5.360   2.736 -0.4692 -0.8235 -0.0488
28762SOL    HW186864   4.845   5.344   2.643  0.0501  1.7885 -0.6416
28762SOL    HW286865   4.950   5.391   2.741 -0.9147  0.3808  1.1210
28763SOL     OW86866   4.624   3.388   7.893 -0.2535 -0.2114 -0.1201
28763SOL    HW186867   4.715   3.373   7.866 -0.0471 -1.5816  1.1892
28763SOL    HW286868   4.572   3.333   7.834 -0.1681 -0.0600 -0.3387
28764SOL     OW86869   6.064   7.250   1.903 -0.1527 -0.1441 -0.0825
28764SOL    HW186870   6.126   7.323   1.907  0.2200 -0.3518 -1.5293
28764SOL    HW286871   6.032   7.251   1.813 -0.4016 -1.5502 -0.0332
28765SOL     OW86872   3.387   7.625   4.567  0.4385  0.1567 -0.3702
28765SOL    HW186873   3.419   7.581   4.489 -0.1278  0.1145 -0.5835
28765SOL    HW286874   3.300   7.587   4.582 -1.7600  3.7004 -2.7092
28766SOL     OW86875   4.764   3.325   0.594 -0.1789 -0.0961 -0.1048
28766SOL    HW186876   4.684   3.376   0.606  0.0909  0.3545 -0.1934
28766SOL    HW286877   4.744   3.240   0.632 -0.8904 -0.1714 -0.6417
28767SOL     OW86878   6.981   9.157   1.651  0.1685 -0.2059  0.3712
28767SOL    HW186879   7.046   9.089   1.634 -0.1856 -0.6492  0.7783
28767SOL    HW286880   6.936   9.128   1.730 -0.2697  0.2897  0.3074
28768SOL     OW86881   0.423   5.645   2.966  0.4953 -0.1372  0.4394
28768SOL    HW186882   0.375   5.650   2.883 -0.8643 -1.3011  1.1058
28768SOL    HW286883   0.365   5.685   3.030  0.7985 -0.7358  1.1068
28769SOL     OW86884   6.844   9.770   7.211 -0.4063  0.0908 -0.0359
28769SOL    HW186885   6.806   9.692   7.170  0.5786 -0.1454 -0.5286
28769SOL    HW286886   6.899   9.735   7.282  0.6688  0.2575 -0.7573
28770SOL     OW86887   3.924   3.793   7.313 -0.2452 -0.2784  0.7773
28770SOL    HW186888   3.956   3.860   7.253  2.6493 -1.9072  0.2866
28770SOL    HW286889   3.926   3.834   7.399  0.8451  0.5008  0.4047
28771SOL     OW86890   5.906   0.664   8.379  0.2985 -0.2068  0.3429
28771SOL    HW186891   6.001   0.666   8.373  0.3014 -1.1084 -0.1310
28771SOL    HW286892   5.876   0.676   8.289 -0.0699  0.9935  0.6061
28772SOL     OW86893   6.616   5.623   6.820  0.8219  0.5339 -0.7293
28772SOL    HW186894   6.669   5.589   6.892  0.3843  0.5667 -0.3858
28772SOL    HW286895   6.528   5.634   6.858  0.0990 -1.2587 -1.7445
28773SOL     OW86896   6.431   0.448   1.472  0.2392  0.1077 -0.1750
28773SOL    HW186897   6.365   0.382   1.494 -0.2110  0.9238  1.0215
28773SOL    HW286898   6.386   0.531   1.483  1.2499  0.6591 -0.1068
28774SOL     OW86899   2.466   7.442   2.517 -0.2968  0.0915  0.2084
28774SOL    HW186900   2.507   7.518   2.476  0.9229  0.2182  1.5759
28774SOL    HW286901   2.389   7.424   2.463  0.4099  1.1471 -1.2216
28775SOL     OW86902   5.604   1.996   1.550  0.1299  0.8158 -0.2265
28775SOL    HW186903   5.598   1.987   1.455 -0.9574  1.1910 -0.2113
28775SOL    HW286904   5.639   1.912   1.580  3.3267  1.6971 -1.1494
28776SOL     OW86905   7.540   1.341   0.862 -0.2329 -0.2032 -0.0667
28776SOL    HW186906   7.493   1.315   0.783 -0.1626  2.1091 -0.9156
28776SOL    HW286907   7.552   1.259   0.910  0.4644 -1.8385 -2.8104
28777SOL     OW86908   7.226   9.621   6.040  0.3782  0.1025  0.0386
28777SOL    HW186909   7.161   9.611   5.970  0.6207 -0.7627 -0.0797
28777SOL    HW286910   7.247   9.714   6.040 -0.0319  0.2076 -0.6746
28778SOL     OW86911   2.769   8.646   8.904  0.3335 -0.4074 -0.0059
28778SOL    HW186912   2.810   8.564   8.934  1.9069 -0.2866 -1.6860
28778SOL    HW286913   2.839   8.711   8.910 -0.0304  0.1462 -1.5082
28779SOL     OW86914   4.195   2.815   8.237  0.1406 -0.2590 -0.4806
28779SOL    HW186915   4.108   2.790   8.204  0.0658  0.4613 -0.8354
28779SOL    HW286916   4.230   2.734   8.275 -0.4356 -0.7068 -0.8824
28780SOL     OW86917   7.693   8.644   6.751  0.2170 -0.2496  0.5866
28780SOL    HW186918   7.704   8.688   6.667  1.7954 -0.1961  0.7947
28780SOL    HW286919   7.688   8.551   6.729  0.4910 -0.2254  0.4193
28781SOL     OW86920   0.883   3.775   8.835 -0.0867  0.2873  0.6485
28781SOL    HW186921   0.801   3.775   8.885 -1.0223  1.4373 -0.8028
28781SOL    HW286922   0.855   3.763   8.744  1.2918  1.4143  0.0460
28782SOL     OW86923   0.571   0.534   4.831  0.2634  0.0308 -0.6022
28782SOL    HW186924   0.558   0.624   4.801  0.2571  0.9355  1.8774
28782SOL    HW286925   0.626   0.494   4.764  2.3115  2.6281 -0.6366
28783SOL     OW86926   1.090   6.069   5.565  0.0529  0.7414 -0.1249
28783SOL    HW186927   1.025   6.107   5.507  1.6954  1.0392 -1.8798
28783SOL    HW286928   1.109   5.983   5.529  0.4023  0.5201  0.5505
28784SOL     OW86929   8.254   4.357   6.125 -0.2589 -0.3416 -0.1301
28784SOL    HW186930   8.189   4.422   6.100 -0.8631 -0.6006  0.6990
28784SOL    HW286931   8.215   4.273   6.100 -0.1704 -0.4887  0.2153
28785SOL     OW86932   1.081   8.525   2.296  0.0418 -0.0041  0.4327
28785SOL    HW186933   1.118   8.539   2.208  1.4991  1.1141  1.1706
28785SOL    HW286934   1.095   8.609   2.340  0.0052 -0.7876  1.9701
28786SOL     OW86935   1.149   9.300   3.786 -0.2333  0.1948  0.0367
28786SOL    HW186936   1.136   9.206   3.779 -0.6108  0.2218  0.3141
28786SOL    HW286937   1.227   9.310   3.841  0.7702  0.0337 -1.3206
28787SOL     OW86938   7.507   2.299   3.414 -0.0867 -0.1612  0.1377
28787SOL    HW186939   7.458   2.222   3.386  1.7956 -1.3124 -0.2086
28787SOL    HW286940   7.511   2.355   3.337 -0.9515  0.0133  0.2133
28788SOL     OW86941   6.660   3.222   5.681 -1.0994  0.2267  0.3559
28788SOL    HW186942   6.689   3.249   5.768  1.8832  0.8176 -0.7310
28788SOL    HW286943   6.686   3.130   5.674 -3.2017 -0.4674  0.7535
28789SOL     OW86944   8.870   1.278   0.747 -0.5072 -0.2986  0.5776
28789SOL    HW186945   8.930   1.247   0.816 -1.0531  0.1705  1.2793
28789SOL    HW286946   8.845   1.198   0.700  1.2593 -0.4178 -0.2294
28790SOL     OW86947   3.117   2.394   9.136  0.8477 -0.4039  0.1056
28790SOL    HW186948   3.122   2.489   9.119 -2.0870  0.1799  1.8140
28790SOL    HW286949   3.159   2.354   9.061  2.6011  2.2550 -0.4655
28791SOL     OW86950   9.708   4.646   3.883  0.9448  0.2191 -0.4084
28791SOL    HW186951   9.790   4.654   3.834  0.6474 -1.4573 -1.2459
28791SOL    HW286952   9.685   4.553   3.876 -0.9223  0.6180 -0.0082
28792SOL     OW86953   3.356   9.818   7.857  0.3296 -0.3297 -0.0440
28792SOL    HW186954   3.377   9.855   7.942 -0.5191  0.1081 -0.0083
28792SOL    HW286955   3.269   9.853   7.837 -0.0846 -1.5375 -0.4497
28793SOL     OW86956   2.132   6.503   9.426 -0.4091  0.0947 -0.0789
28793SOL    HW186957   2.059   6.559   9.455 -0.0879  2.2817 -3.0243
28793SOL    HW286958   2.126   6.504   9.330  3.1215 -0.1677 -0.4050
28794SOL     OW86959   4.659   9.585   5.106  0.1108 -0.4264 -0.1039
28794SOL    HW186960   4.697   9.506   5.067  0.9085  0.6699 -1.6630
28794SOL    HW286961   4.701   9.591   5.193  0.7397 -1.2124 -0.3393
28795SOL     OW86962   9.210   8.277   2.776 -0.4757  0.4560 -0.4290
28795SOL    HW186963   9.229   8.281   2.869 -2.5693  4.0050  0.0345
28795SOL    HW286964   9.296   8.273   2.734  0.5896  0.6519  1.6258
28796SOL     OW86965   4.904   1.824   2.457  0.2885 -0.1566  0.0406
28796SOL    HW186966   4.949   1.909   2.456  0.3123 -0.1568  0.7650
28796SOL    HW286967   4.813   1.846   2.474 -0.0158 -0.1545 -1.4597
28797SOL     OW86968   7.131   6.042   3.847 -0.0319  0.0745 -0.5224
28797SOL    HW186969   7.207   5.997   3.886 -0.1208  1.0073  0.7892
28797SOL    HW286970   7.096   5.979   3.785 -0.1793 -1.7322  1.2812
28798SOL     OW86971   4.017   3.812   0.410 -0.4653  0.0261  0.8912
28798SOL    HW186972   4.068   3.892   0.418 -2.0937  1.2872 -0.5390
28798SOL    HW286973   4.032   3.765   0.492  1.4675  1.2094  1.2691
28799SOL     OW86974   5.863   2.875   0.411 -0.0016 -0.0484  0.0577
28799SOL    HW186975   5.912   2.876   0.329  0.3078 -2.5154  0.1471
28799SOL    HW286976   5.834   2.966   0.423  2.3175  0.9538 -1.3241
28800SOL     OW86977   2.391   9.891   0.224  0.4147  0.1362 -0.2060
28800SOL    HW186978   2.371   9.840   0.302 -0.3094  1.0014  0.1913
28800SOL    HW286979   2.383   9.829   0.152 -2.0124 -0.0104  0.1013
28801SOL     OW86980   9.288   6.155   1.345  0.0356 -0.4228  0.8903
28801SOL    HW186981   9.317   6.089   1.408  1.4751 -0.3525  0.3221
28801SOL    HW286982   9.230   6.107   1.286  1.6129 -1.3857  0.0611
28802SOL     OW86983   5.492   0.496   1.443 -0.7388  0.7864  0.2024
28802SOL    HW186984   5.455   0.574   1.485 -1.5728 -0.6648  2.3599
28802SOL    HW286985   5.443   0.423   1.482  0.7178 -0.8908 -0.9663
28803SOL     OW86986   0.624   1.752   4.758 -0.3420 -0.1266  0.2250
28803SOL    HW186987   0.570   1.675   4.743 -0.7569  0.2057  0.0029
28803SOL    HW286988   0.605   1.810   4.683  0.6799 -0.2121 -0.1158
28804SOL     OW86989   2.135   5.801   0.781  0.3350  0.0757  0.0335
28804SOL    HW186990   2.222   5.808   0.744  0.1175 -0.3242 -0.5529
28804SOL    HW286991   2.080   5.853   0.723  0.0493 -0.2907 -0.0246
28805SOL     OW86992   9.053   9.186   4.921  0.2380 -0.4957  0.0782
28805SOL    HW186993   9.081   9.111   4.868 -0.6312 -1.4496  0.9214
28805SOL    HW286994   9.126   9.201   4.981 -0.1121 -1.5329  0.7828
28806SOL     OW86995   9.628   0.383   0.733 -0.0134  0.0795  0.7371
28806SOL    HW186996   9.536   0.408   0.717  0.0497 -1.0619 -2.0524
28806SOL    HW286997   9.627   0.344   0.820 -2.2956 -0.3627  0.5915
28807SOL     OW86998   6.845   5.013   1.855 -0.8926 -0.3389 -0.0354
28807SOL    HW186999   6.771   4.998   1.913  0.3523 -0.1012  1.6848
28807SOL    HW287000   6.846   5.108   1.843 -0.9188 -0.3500 -0.1250
28808SOL     OW87001   2.302   1.158   9.236 -0.5846 -0.3280 -0.1730
28808SOL    HW187002   2.259   1.123   9.159  1.3093 -1.7772 -0.6462
28808SOL    HW287003   2.383   1.107   9.244 -0.5235  0.0332  2.5378
28809SOL     OW87004   6.095   0.467   6.742  0.5008  0.0766 -0.4349
28809SOL    HW187005   6.149   0.474   6.821 -1.2464  1.5584  0.6938
28809SOL    HW287006   6.122   0.542   6.689 -0.0347  0.4805 -0.1367
28810SOL     OW87007   6.445   6.530   5.099 -0.1939  0.5027 -0.2962
28810SOL    HW187008   6.435   6.489   5.185  0.3236 -0.6761 -0.7806
28810SOL    HW287009   6.530   6.573   5.103 -0.3022  0.6995 -0.1137
28811SOL     OW87010   7.366   6.505   4.266 -0.4017  0.0384  0.8141
28811SOL    HW187011   7.454   6.527   4.297  0.3436 -1.3287 -0.2059
28811SOL    HW287012   7.376   6.496   4.171 -1.2091 -1.9096  0.8625
28812SOL     OW87013   7.244   2.335   8.350 -0.1376 -0.1523  0.1799
28812SOL    HW187014   7.209   2.411   8.304 -1.4556 -0.7931  0.0813
28812SOL    HW287015   7.167   2.284   8.376  0.7151 -1.7930 -0.3280
28813SOL     OW87016   8.774   8.144   0.696  0.3801 -0.4312 -0.5946
28813SOL    HW187017   8.797   8.237   0.702 -0.0191 -0.2957 -1.1110
28813SOL    HW287018   8.747   8.131   0.605  0.8904 -1.1638 -0.6498
28814SOL     OW87019   4.359   6.425   4.083  0.6687  0.1299 -0.4423
28814SOL    HW187020   4.294   6.484   4.043  1.4534  1.2374 -0.1255
28814SOL    HW287021   4.443   6.459   4.053  1.1740 -0.3177  0.4504
28815SOL     OW87022   6.188   4.601   4.365  0.0262  0.8177  0.1721
28815SOL    HW187023   6.188   4.687   4.322  2.0565  1.1678  0.7499
28815SOL    HW287024   6.272   4.563   4.340 -0.7660 -0.9403  0.0892
28816SOL     OW87025   5.320   0.572   7.508  0.1922  0.2099  0.3680
28816SOL    HW187026   5.304   0.479   7.492 -0.3184  0.1871  0.9624
28816SOL    HW287027   5.239   0.604   7.547  0.2199  0.9991 -0.1932
28817SOL     OW87028   2.753   9.935   6.155 -0.0836  0.0041  0.2880
28817SOL    HW187029   2.721   9.862   6.208 -0.7499  0.4564  0.5248
28817SOL    HW287030   2.686  10.003   6.165 -1.7613 -0.8735 -3.3851
28818SOL     OW87031   0.422   4.209   1.211  0.3237  0.0816 -0.4289
28818SOL    HW187032   0.384   4.243   1.130 -0.6785 -0.0711 -0.0428
28818SOL    HW287033   0.406   4.277   1.276 -0.6699 -0.6093  0.0848
28819SOL     OW87034   8.279   1.547   7.947 -0.0853 -0.3254  0.0129
28819SOL    HW187035   8.297   1.532   8.039  0.2670 -1.6424 -0.2546
28819SOL    HW287036   8.291   1.642   7.935  2.5398 -0.5090  0.7326
28820SOL     OW87037   2.365   7.058   3.738 -0.0001  0.4036  0.3481
28820SOL    HW187038   2.305   7.080   3.667 -0.2821 -0.2826  0.3654
28820SOL    HW287039   2.440   7.019   3.694 -0.5928 -0.9357  0.4699
28821SOL     OW87040   3.303   1.222   4.914 -0.1286 -0.0008 -0.1385
28821SOL    HW187041   3.324   1.298   4.860  2.1190 -1.2932 -1.2264
28821SOL    HW287042   3.351   1.149   4.873  0.4683 -1.3533  2.7087
28822SOL     OW87043   6.200   4.086   3.637 -0.2037 -0.3833  0.6232
28822SOL    HW187044   6.169   4.175   3.626 -0.3510 -0.5096 -0.0409
28822SOL    HW287045   6.172   4.040   3.558  2.1319 -0.3566 -0.2979
28823SOL     OW87046   7.944   0.441   7.532 -0.1863  0.1788  0.2855
28823SOL    HW187047   7.928   0.379   7.604  1.4912 -0.2959  0.3015
28823SOL    HW287048   7.911   0.524   7.564 -1.6760 -0.5049  0.6234
28824SOL     OW87049   9.103   1.857   9.175 -0.4502 -0.6850  0.4036
28824SOL    HW187050   9.116   1.948   9.148  0.7192 -0.7546  0.6912
28824SOL    HW287051   9.122   1.806   9.096 -0.2368 -0.7262  0.4821
28825SOL     OW87052   0.877   3.493   5.640 -0.1854  0.2237  1.0829
28825SOL    HW187053   0.891   3.579   5.600 -1.1203  0.7249  1.7944
28825SOL    HW287054   0.885   3.431   5.568 -1.3628  1.0597  0.1927
28826SOL     OW87055   1.481   6.825   3.948  0.2773 -0.1075 -0.1596
28826SOL    HW187056   1.569   6.847   3.979  1.2176 -1.2147 -1.8842
28826SOL    HW287057   1.493   6.803   3.856 -1.3961 -2.5796  0.1106
28827SOL     OW87058   0.802   5.438   0.169  0.1113  0.2663  0.8496
28827SOL    HW187059   0.887   5.432   0.213  1.8093 -1.9358 -2.2997
28827SOL    HW287060   0.758   5.356   0.192  0.3641 -0.1911 -0.2349
28828SOL     OW87061   4.302   5.626   8.487  0.0159 -0.1396 -0.5627
28828SOL    HW187062   4.242   5.655   8.555  0.1661 -2.2486  0.5370
28828SOL    HW287063   4.321   5.535   8.509  2.2761 -0.0393 -1.8607
28829SOL     OW87064   1.991   9.407   5.331 -0.4838 -0.4871 -0.0617
28829SOL    HW187065   1.912   9.451   5.360  0.8875  1.5329  0.8294
28829SOL    HW287066   2.029   9.465   5.266  1.0690 -0.5974  0.6926
28830SOL     OW87067   2.885   9.836   9.821  0.2150 -0.4909 -0.5894
28830SOL    HW187068   2.856   9.863   9.908 -0.7465 -2.4229 -0.2562
28830SOL    HW287069   2.953   9.770   9.838 -0.1939 -1.1078 -1.2691
28831SOL     OW87070   5.366   3.521   8.512 -0.0872  0.1613  1.0077
28831SOL    HW187071   5.429   3.590   8.531  1.1688 -0.5393 -0.4731
28831SOL    HW287072   5.396   3.446   8.563  0.3970 -0.2262  0.1669
28832SOL     OW87073   7.098   9.206   2.263  0.3114 -0.2470 -0.4989
28832SOL    HW187074   7.021   9.155   2.289 -0.2990  0.1285 -1.5373
28832SOL    HW287075   7.130   9.244   2.345 -0.6553 -0.3291 -0.0720
28833SOL     OW87076   0.714   3.399   3.827 -0.3355  0.2732 -0.1971
28833SOL    HW187077   0.631   3.446   3.828 -1.4053 -1.4549  1.8368
28833SOL    HW287078   0.755   3.422   3.910 -0.1216 -1.0448  0.0868
28834SOL     OW87079   2.711   8.248   6.279 -0.0680  0.3736  0.2830
28834SOL    HW187080   2.697   8.253   6.185  2.3507  0.2197 -0.1567
28834SOL    HW287081   2.630   8.212   6.314 -0.3467 -1.3831 -1.9514
28835SOL     OW87082   4.968   6.330   0.450  0.4513 -0.1461 -0.5501
28835SOL    HW187083   5.022   6.326   0.529 -0.6100 -0.1909  0.1918
28835SOL    HW287084   4.998   6.408   0.405 -0.8282  1.5773  1.3697
28836SOL     OW87085   9.047   0.766   0.990 -0.3017  0.0838  0.4544
28836SOL    HW187086   9.012   0.727   1.070 -0.9542 -0.5839 -0.1392
28836SOL    HW287087   8.976   0.821   0.957 -1.1032 -1.7325 -1.0724
28837SOL     OW87088   4.891   4.576   1.874  0.6871 -0.2482  0.1629
28837SOL    HW187089   4.901   4.587   1.780  0.0652 -0.5117  0.0622
28837SOL    HW287090   4.934   4.492   1.893 -1.3284 -1.4417 -0.2888
28838SOL     OW87091   2.281   5.617   3.809 -0.5364 -0.0780  0.0155
28838SOL    HW187092   2.349   5.619   3.877  1.0788 -0.7447 -1.5051
28838SOL    HW287093   2.234   5.535   3.826  0.2025 -0.5118  0.0417
28839SOL     OW87094   3.616   2.695   2.637 -0.2152  0.0607 -0.0665
28839SOL    HW187095   3.663   2.612   2.648  1.8658  1.2805  0.8294
28839SOL    HW287096   3.564   2.704   2.717 -0.0890 -0.1813  0.0431
28840SOL     OW87097   4.178   1.564   1.362 -0.3015 -0.5167 -0.2400
28840SOL    HW187098   4.094   1.588   1.323  0.6894  4.1811 -0.1109
28840SOL    HW287099   4.161   1.561   1.456 -0.4232  0.0688 -0.2404
28841SOL     OW87100   8.098   9.625   5.169 -0.3098  0.1470 -0.2926
28841SOL    HW187101   8.023   9.630   5.228 -1.3982  2.4950 -1.7175
28841SOL    HW287102   8.162   9.687   5.206  0.8884 -1.6101  0.7414
28842SOL     OW87103   5.936   3.943   2.667  0.3002 -0.3162  0.0473
28842SOL    HW187104   5.951   3.991   2.585  0.5085  0.0236  0.2830
28842SOL    HW287105   5.853   3.897   2.653 -0.0772  0.3732 -0.0633
28843SOL     OW87106   1.855   3.330   7.126 -0.5066  0.0385 -0.7086
28843SOL    HW187107   1.878   3.395   7.059  1.3157  0.8353  0.6296
28843SOL    HW287108   1.826   3.382   7.201  1.6351 -0.5695  0.6359
28844SOL     OW87109   0.742   8.788   4.790  0.4391  0.0943 -0.0137
28844SOL    HW187110   0.753   8.840   4.870 -1.6602 -1.9130  1.7076
28844SOL    HW287111   0.781   8.703   4.811 -1.1325 -0.8350 -0.6546
28845SOL     OW87112   2.731   6.396   6.764 -0.0538 -0.3204  0.1807
28845SOL    HW187113   2.760   6.484   6.737  2.7489 -1.0161  0.6032
28845SOL    HW287114   2.645   6.386   6.723  1.4622  0.8853 -3.7510
28846SOL     OW87115   5.488   3.435   3.291  0.0548 -0.1670 -0.8099
28846SOL    HW187116   5.518   3.422   3.381  0.0675  0.4545 -0.7155
28846SOL    HW287117   5.529   3.518   3.265 -0.4251 -0.0441 -1.1810
28847SOL     OW87118   2.639   3.960   2.029  0.4147  0.0812 -1.1701
28847SOL    HW187119   2.644   3.865   2.020  3.2004  0.0211  0.1148
28847SOL    HW287120   2.583   3.974   2.105 -1.1765 -0.4120 -2.1968
28848SOL     OW87121   9.485   7.844   1.016  0.2411  0.0676  0.3499
28848SOL    HW187122   9.566   7.812   1.055  0.8275  0.0505 -0.8249
28848SOL    HW287123   9.507   7.932   0.985 -0.5784  0.5790  1.1653
28849SOL     OW87124   9.596   4.792   1.414  0.4046  0.2782  0.6718
28849SOL    HW187125   9.593   4.777   1.320  2.0610  3.0529  0.0647
28849SOL    HW287126   9.595   4.705   1.453 -0.4026 -0.9359 -1.8890
28850SOL     OW87127   9.849   6.905   3.721 -0.2996 -0.0177 -0.0988
28850SOL    HW187128   9.789   6.831   3.731 -0.2279  0.0275  0.7324
28850SOL    HW287129   9.808   6.960   3.654 -1.2109  0.0295  0.4741
28851SOL     OW87130   2.435   1.140   8.807  0.6636 -0.3596  0.0766
28851SOL    HW187131   2.372   1.162   8.739  1.0346  0.5489  0.0081
28851SOL    HW287132   2.518   1.177   8.775  0.7649  0.4060  1.1914
28852SOL     OW87133   3.192   7.685   7.000 -0.1432 -0.0201  0.3477
28852SOL    HW187134   3.195   7.767   7.049  0.5447 -0.2512  0.7067
28852SOL    HW287135   3.121   7.635   7.041 -0.5969  0.4064  0.0951
28853SOL     OW87136   6.870   0.991   2.947 -0.7444  0.0787  0.1162
28853SOL    HW187137   6.854   1.011   2.855  1.1210 -1.0453 -0.5217
28853SOL    HW287138   6.849   1.071   2.993 -2.9358  0.2827 -1.1147
28854SOL     OW87139   8.559   7.011   5.064 -0.1018 -0.8378  0.3354
28854SOL    HW187140   8.561   7.012   5.160 -0.1488  1.7501  0.3689
28854SOL    HW287141   8.640   7.055   5.038 -0.5492 -0.6355 -0.7845
28855SOL     OW87142   0.838   9.524   0.944 -0.1082 -0.1248 -0.2781
28855SOL    HW187143   0.886   9.603   0.970 -0.7226  0.1661 -0.0232
28855SOL    HW287144   0.812   9.541   0.853  0.2101 -0.2598 -0.3983
28856SOL     OW87145   3.157   8.321   5.033 -0.1705  0.0655  0.0582
28856SOL    HW187146   3.198   8.375   5.101 -1.9308  1.8522 -0.2049
28856SOL    HW287147   3.149   8.234   5.073  2.2384  0.0695  0.7040
28857SOL     OW87148   8.558   4.968   4.305  0.4193  0.5160 -0.2748
28857SOL    HW187149   8.539   4.876   4.285 -0.1048  0.4593  0.4603
28857SOL    HW287150   8.473   5.007   4.324  0.8104  0.7111  1.2014
28858SOL     OW87151   8.258   3.570   6.117  0.0124 -0.1679 -0.0230
28858SOL    HW187152   8.290   3.484   6.088 -0.3402 -0.6766  1.0407
28858SOL    HW287153   8.294   3.631   6.053 -1.8151 -1.3332 -2.3144
28859SOL     OW87154   2.854   6.247   9.789 -0.6241  0.0573 -0.1482
28859SOL    HW187155   2.878   6.188   9.718 -0.7909 -0.5292  0.2713
28859SOL    HW287156   2.937   6.283   9.820 -0.6133  1.0321 -1.2276
28860SOL     OW87157   0.276   0.692   8.433 -0.1308  0.1244  0.1886
28860SOL    HW187158   0.187   0.666   8.409 -0.1677  1.9512 -1.9952
28860SOL    HW287159   0.325   0.610   8.438 -1.4406 -0.7425 -0.7627
28861SOL     OW87160   5.919   6.676   2.112 -0.3190 -0.2277 -0.2912
28861SOL    HW187161   6.000   6.678   2.062  0.5526 -1.0711  1.0095
28861SOL    HW287162   5.932   6.739   2.183 -0.5759 -0.7505  0.2327
28862SOL     OW87163   6.606   2.079   1.669 -0.3370 -0.3783  0.2963
28862SOL    HW187164   6.560   2.032   1.601  1.9667 -1.1992 -0.7874
28862SOL    HW287165   6.644   2.155   1.625  5.2008 -3.3059 -0.7772
28863SOL     OW87166   9.440   3.523   6.115 -0.3392 -0.2601  0.0333
28863SOL    HW187167   9.419   3.538   6.208  1.5062 -0.1892  0.4729
28863SOL    HW287168   9.536   3.527   6.111 -0.3843 -0.2607 -1.8887
28864SOL     OW87169   5.511   5.446   2.750 -0.0316 -0.0299  0.2508
28864SOL    HW187170   5.431   5.495   2.766  0.3977  1.5232 -1.9286
28864SOL    HW287171   5.560   5.451   2.832 -1.6531 -0.0982  1.2701
28865SOL     OW87172   4.734   2.650   2.187  0.4747  0.1766  0.0355
28865SOL    HW187173   4.711   2.636   2.096  2.4438  0.0040 -0.4747
28865SOL    HW287174   4.741   2.745   2.196  0.7326  0.1751 -0.1278
28866SOL     OW87175   3.444   3.121   0.015  0.1876 -0.0493  0.4373
28866SOL    HW187176   3.469   3.204   0.057  1.2129  0.2480 -0.6892
28866SOL    HW287177   3.352   3.109   0.038 -0.5425  2.3681 -0.8774
28867SOL     OW87178   8.528   4.355   9.763 -0.3785 -0.2952  0.3126
28867SOL    HW187179   8.612   4.392   9.791  0.5275 -2.2823  0.3790
28867SOL    HW287180   8.471   4.367   9.839 -0.1550  0.9878  0.3010
28868SOL     OW87181   6.661   8.816   3.918 -0.0682 -0.3909  0.3667
28868SOL    HW187182   6.678   8.726   3.944 -2.1433 -0.5128  1.5400
28868SOL    HW287183   6.682   8.819   3.824 -3.2724 -3.1176 -0.6148
28869SOL     OW87184   1.466   0.960   9.409 -0.4235  0.3861 -0.5176
28869SOL    HW187185   1.559   0.955   9.432 -0.4807  1.4267  0.0076
28869SOL    HW287186   1.421   0.969   9.493 -1.0397 -0.4297 -0.7419
28870SOL     OW87187   5.792   4.629   3.348 -0.4885  0.2826 -0.1256
28870SOL    HW187188   5.827   4.693   3.410  2.1414 -1.8606  0.8045
28870SOL    HW287189   5.749   4.563   3.402  0.6120 -0.8847 -0.6018
28871SOL     OW87190   1.378   1.482   1.384  0.2264 -0.4468  0.2458
28871SOL    HW187191   1.392   1.389   1.364  0.3060 -0.3186 -0.2864
28871SOL    HW287192   1.412   1.529   1.308 -1.7446 -0.0699 -0.4630
28872SOL     OW87193   4.994   0.905   7.417 -0.5421 -0.5222 -0.7244
28872SOL    HW187194   4.944   0.953   7.483 -2.1841 -0.5271 -1.9110
28872SOL    HW287195   5.069   0.961   7.398 -1.5131  0.7762 -0.8284
28873SOL     OW87196   8.959   8.564   3.660 -0.1923 -0.3557 -0.4143
28873SOL    HW187197   9.050   8.553   3.630 -0.1762 -0.3222 -0.3779
28873SOL    HW287198   8.950   8.658   3.676 -0.7417 -0.1117 -2.0219
28874SOL     OW87199   3.620   5.331   7.306 -0.1642  0.4572 -0.0449
28874SOL    HW187200   3.620   5.321   7.401 -0.5773  0.2803 -0.0635
28874SOL    HW287201   3.706   5.299   7.279 -0.0702  0.4437  0.2610
28875SOL     OW87202   7.217   3.782   5.644  0.0004  0.5446 -0.3392
28875SOL    HW187203   7.298   3.774   5.694 -0.6898 -0.8300  0.6194
28875SOL    HW287204   7.148   3.783   5.711 -0.8166  1.1938 -1.1596
28876SOL     OW87205   9.224   2.896   0.666  0.0731  0.1689  0.1467
28876SOL    HW187206   9.275   2.817   0.648  2.5074  1.6566  0.0766
28876SOL    HW287207   9.238   2.913   0.759 -0.2973  0.6037  0.1261
28877SOL     OW87208   6.932   1.581   0.958 -0.4127  0.5746 -0.5049
28877SOL    HW187209   6.892   1.507   0.913  1.8999 -0.9372 -0.2175
28877SOL    HW287210   6.895   1.578   1.046 -0.3425 -0.2327 -0.4965
28878SOL     OW87211   2.775   2.358   6.476  0.5194 -0.0233 -0.3986
28878SOL    HW187212   2.773   2.446   6.439 -0.2687  0.1652  0.0675
28878SOL    HW287213   2.815   2.369   6.563  0.9372 -0.2160 -0.5640
28879SOL     OW87214   8.463   2.629   5.460  0.3887  0.0575 -0.3881
28879SOL    HW187215   8.394   2.656   5.520 -0.0046 -0.5060 -0.5776
28879SOL    HW287216   8.417   2.597   5.382  0.8675 -0.0877 -0.6176
28880SOL     OW87217   7.228   5.118   1.162 -0.1482 -0.4829  0.2537
28880SOL    HW187218   7.262   5.101   1.074 -1.1051 -0.8512 -0.0594
28880SOL    HW287219   7.306   5.128   1.216  0.4644  0.3996 -0.7527
28881SOL     OW87220   1.904   5.239   2.327  0.1995  0.5201 -0.0181
28881SOL    HW187221   1.837   5.188   2.281  0.0376 -0.1079  0.8919
28881SOL    HW287222   1.854   5.310   2.369  0.1721  0.3569  0.2270
28882SOL     OW87223   2.162   5.840   3.927 -0.2464  0.3545  0.5323
28882SOL    HW187224   2.208   5.761   3.898 -0.7152 -0.0458  0.8551
28882SOL    HW287225   2.146   5.889   3.847 -2.4559 -1.2386 -0.1038
28883SOL     OW87226   0.226   6.302   7.978 -0.1666  0.2915 -0.3892
28883SOL    HW187227   0.196   6.385   7.943  1.4094  0.6684 -0.9519
28883SOL    HW287228   0.200   6.237   7.913  0.0294  0.5796 -0.7598
28884SOL     OW87229   5.335   0.498   3.654  0.1607 -0.5282  0.5283
28884SOL    HW187230   5.271   0.569   3.655  0.7767  0.0443  0.3798
28884SOL    HW287231   5.283   0.418   3.653 -0.5591 -0.1002  1.7125
28885SOL     OW87232   0.308   2.202   9.313  0.0986 -0.6153 -0.1933
28885SOL    HW187233   0.386   2.151   9.335  1.7841  2.2029  0.7600
28885SOL    HW287234   0.265   2.218   9.397 -0.1010 -0.0233 -0.4047
28886SOL     OW87235   1.863   1.661   3.193 -0.0369 -0.2680  0.7590
28886SOL    HW187236   1.830   1.651   3.282 -0.5825 -1.3220  0.4502
28886SOL    HW287237   1.796   1.620   3.138  0.1787  0.5697 -0.1663
28887SOL     OW87238   2.848   1.580   1.993 -0.3736 -0.1544 -0.0058
28887SOL    HW187239   2.875   1.495   1.959  0.6271  0.4229 -0.7540
28887SOL    HW287240   2.879   1.581   2.083  0.3539 -0.2880 -0.2423
28888SOL     OW87241   7.801   5.382   8.126 -0.1025  0.2198 -0.7140
28888SOL    HW187242   7.764   5.370   8.214 -0.6605  1.9579 -0.6710
28888SOL    HW287243   7.885   5.338   8.129 -0.3736 -0.2550  0.5099
28889SOL     OW87244   6.241   8.306   9.823  0.0003  0.6631  0.1934
28889SOL    HW187245   6.207   8.266   9.743  0.8162  0.7732 -0.2196
28889SOL    HW287246   6.311   8.364   9.793  0.1978  0.8409  0.9730
28890SOL     OW87247   5.261   9.005   5.468  0.1401 -0.1214 -0.0177
28890SOL    HW187248   5.176   8.977   5.503 -1.1497  1.6022 -1.5849
28890SOL    HW287249   5.270   9.096   5.495  1.6188 -0.3541  0.3283
28891SOL     OW87250   6.489  -0.012   3.206  0.2106  0.9100  0.1481
28891SOL    HW187251   6.454   0.041   3.278 -1.2272 -0.5716  0.6064
28891SOL    HW287252   6.416  -0.022   3.146  0.1050 -1.3626  0.5811
28892SOL     OW87253   1.293   0.070   5.210 -0.1170 -0.0493  0.0207
28892SOL    HW187254   1.339  -0.012   5.194 -0.3788 -0.3473  0.7370
28892SOL    HW287255   1.258   0.060   5.299 -0.8838  0.4900 -0.2151
28893SOL     OW87256   6.030   7.553   5.650 -0.4082 -0.4129 -0.3967
28893SOL    HW187257   6.010   7.463   5.676 -0.6825  0.0474  1.0881
28893SOL    HW287258   6.005   7.606   5.726  3.4947  0.5509  0.4644
28894SOL     OW87259   8.667   6.463   3.381 -0.0611  0.3871  0.0633
28894SOL    HW187260   8.584   6.483   3.336 -0.5353 -0.2971  0.6151
28894SOL    HW287261   8.728   6.444   3.310  0.2653  3.0520 -0.4894
28895SOL     OW87262   3.897   0.332   1.239 -1.3245  0.5957  0.9883
28895SOL    HW187263   3.894   0.402   1.304  1.8625 -0.1027  2.0408
28895SOL    HW287264   3.886   0.377   1.155 -2.3160  1.9249  1.7890
28896SOL     OW87265   9.408   9.885   3.979 -0.3523  0.0666 -0.0196
28896SOL    HW187266   9.479   9.949   3.969  0.4974 -0.6279  1.2436
28896SOL    HW287267   9.340   9.932   4.027 -0.2215  0.3639 -0.1215
28897SOL     OW87268   4.631   2.637   4.499  0.2820  0.0767  0.1307
28897SOL    HW187269   4.630   2.718   4.447  0.9912 -0.3196 -0.5195
28897SOL    HW287270   4.604   2.665   4.586  2.5582  1.4312  0.4859
28898SOL     OW87271   3.057   1.225   3.956 -0.4514 -0.1429 -0.2721
28898SOL    HW187272   3.046   1.151   4.016 -0.0437 -1.1136 -1.3462
28898SOL    HW287273   2.968   1.257   3.941 -0.6560 -0.5403  0.0713
28899SOL     OW87274   4.675   4.657   1.265  0.2776  0.0879 -0.1011
28899SOL    HW187275   4.602   4.636   1.324  0.8883 -1.1740  0.2485
28899SOL    HW287276   4.646   4.735   1.218 -0.7462  0.3970  0.9784
28900SOL     OW87277   8.649   9.282   9.247  0.1901  0.1270  0.4826
28900SOL    HW187278   8.581   9.217   9.265  1.2732 -1.2613 -0.1863
28900SOL    HW287279   8.673   9.317   9.333  1.4524 -2.3699  1.2390
28901SOL     OW87280   1.566   0.663   8.646 -0.1243 -0.3412  0.0344
28901SOL    HW187281   1.500   0.691   8.583  0.2003  0.2695 -0.0347
28901SOL    HW287282   1.547   0.713   8.725  1.2471  1.0748 -0.4918
28902SOL     OW87283   7.629   3.521   0.339 -0.1425  0.5165  0.2145
28902SOL    HW187284   7.576   3.600   0.344 -1.8496 -0.6006  0.7517
28902SOL    HW287285   7.583   3.458   0.395 -0.7526 -1.9073 -2.7461
28903SOL     OW87286   5.902   1.473   9.051 -0.2816 -0.3185 -0.6764
28903SOL    HW187287   5.913   1.568   9.049 -1.0107 -0.1897  0.5793
28903SOL    HW287288   5.808   1.461   9.065  0.1460 -1.1590  2.0041
28904SOL     OW87289   4.807   2.317   2.559 -1.1425 -0.2430  0.2352
28904SOL    HW187290   4.884   2.362   2.593  0.7523 -2.6720 -0.5860
28904SOL    HW287291   4.793   2.354   2.472 -0.7561  0.0500  0.2959
28905SOL     OW87292   7.626   8.911   1.174  0.2893 -0.3305 -0.1447
28905SOL    HW187293   7.532   8.895   1.165 -0.0220  1.3623 -0.2326
28905SOL    HW287294   7.632   8.989   1.230  1.7071 -1.3391  1.1927
28906SOL     OW87295   0.338   7.202   3.169 -0.2209  0.2381  0.8562
28906SOL    HW187296   0.286   7.222   3.247 -0.3672  0.5659  0.6782
28906SOL    HW287297   0.364   7.288   3.135 -0.4127  0.1077  0.3727
28907SOL     OW87298   5.309   5.397   7.215 -0.2366  0.5000  0.0249
28907SOL    HW187299   5.272   5.385   7.302 -0.1974  0.5249  0.0453
28907SOL    HW287300   5.295   5.313   7.171  0.2829  0.2900  0.2574
28908SOL     OW87301   0.398   7.574   1.281  0.5976  0.2071  0.1309
28908SOL    HW187302   0.405   7.613   1.194  0.1216 -1.4731 -0.6957
28908SOL    HW287303   0.487   7.547   1.303  0.6890  0.4884  0.1147
28909SOL     OW87304   0.785   3.998   3.288 -0.0261 -1.0299  0.2160
28909SOL    HW187305   0.825   3.939   3.352 -1.7382 -0.6151  1.7528
28909SOL    HW287306   0.745   3.940   3.224 -0.6389 -1.5621  1.0480
28910SOL     OW87307   1.531   6.546   9.045 -0.0740 -0.0239 -0.4635
28910SOL    HW187308   1.585   6.605   8.992 -1.6096 -0.1315 -2.2394
28910SOL    HW287309   1.517   6.594   9.127  2.8937 -0.1211  0.2175
28911SOL     OW87310   6.092   2.606   5.673 -0.2571  0.2661 -0.0616
28911SOL    HW187311   6.009   2.643   5.705  0.2814  0.8996  0.6539
28911SOL    HW287312   6.066   2.538   5.611 -1.3267  0.0676  0.5798
28912SOL     OW87313   1.487   2.678   4.858  0.3187 -0.4391 -0.1548
28912SOL    HW187314   1.479   2.696   4.764 -0.9281  1.2071  0.2231
28912SOL    HW287315   1.577   2.704   4.880  0.1340  0.6403 -0.6163
28913SOL     OW87316   9.745   2.970   3.512  0.5571 -0.2188  0.0594
28913SOL    HW187317   9.775   2.932   3.594  1.8006  2.4548  0.9503
28913SOL    HW287318   9.715   3.058   3.535  0.4113  0.4113 -2.2425
28914SOL     OW87319   1.365   6.172   4.890 -0.2508 -0.0539 -0.1739
28914SOL    HW187320   1.400   6.152   4.804 -1.6763 -0.0107 -0.7858
28914SOL    HW287321   1.305   6.245   4.876 -1.5837 -0.9612  0.5877
28915SOL     OW87322   1.890   3.321   6.243  0.0772 -0.2135 -0.4719
28915SOL    HW187323   1.853   3.238   6.213  0.3718 -0.9756  1.1739
28915SOL    HW287324   1.819   3.364   6.289  0.2730 -0.1336 -0.2421
28916SOL     OW87325   7.491   3.648   3.002 -0.6499 -0.3033  0.0963
28916SOL    HW187326   7.443   3.723   3.038 -1.5592 -0.1514 -1.3733
28916SOL    HW287327   7.534   3.682   2.923  1.7377 -0.5036  1.2070
28917SOL     OW87328   9.712   2.975   6.319  0.2705 -0.3750  0.2208
28917SOL    HW187329   9.755   3.059   6.303 -0.0512 -0.0641  0.9417
28917SOL    HW287330   9.768   2.910   6.275  0.4739  0.2231 -0.4085
28918SOL     OW87331   3.771   3.729   2.404  0.4915  0.5408  0.1287
28918SOL    HW187332   3.840   3.790   2.379  0.3321  0.7711  0.2423
28918SOL    HW287333   3.814   3.665   2.461  1.3291 -1.1690 -2.2433
28919SOL     OW87334   2.220   0.656   4.369  0.3548  0.1244  0.0320
28919SOL    HW187335   2.132   0.649   4.333  0.4199  0.7104 -0.2474
28919SOL    HW287336   2.279   0.648   4.294  0.4704  2.1793 -0.1552
28920SOL     OW87337   3.537   8.937   2.957  0.3764 -0.7732  0.4207
28920SOL    HW187338   3.555   8.988   3.036  2.3757 -0.7895  0.0221
28920SOL    HW287339   3.622   8.902   2.931 -0.4284 -1.6955 -1.1201
28921SOL     OW87340   1.866   2.977   2.554 -0.0687  0.6020 -0.2894
28921SOL    HW187341   1.948   3.010   2.516  1.0845 -2.1403 -0.4322
28921SOL    HW287342   1.841   3.044   2.617  1.7262  2.0260 -0.9874
28922SOL     OW87343   4.527   8.457   2.377  0.8582 -0.3813 -0.2240
28922SOL    HW187344   4.564   8.424   2.459 -0.3878 -0.0833  0.4756
28922SOL    HW287345   4.463   8.391   2.351  0.1662  0.2590 -0.1506
28923SOL     OW87346   4.324   4.474   5.796 -0.6585 -0.3454  0.3911
28923SOL    HW187347   4.374   4.430   5.864 -0.2953  0.7388  0.8497
28923SOL    HW287348   4.321   4.412   5.723  3.5125  0.3991 -0.6607
28924SOL     OW87349   1.414   4.040   0.267 -0.1480  0.1060 -0.6810
28924SOL    HW187350   1.361   4.102   0.218  2.5249  2.6331 -0.6537
28924SOL    HW287351   1.491   4.026   0.213  1.5566  0.7083  1.4520
28925SOL     OW87352   1.364   6.558   4.819 -0.3797  0.3299 -0.1407
28925SOL    HW187353   1.448   6.593   4.788  0.1031  0.3256  1.1336
28925SOL    HW287354   1.332   6.625   4.880 -1.1574  0.1756 -0.3689
28926SOL     OW87355   7.080   8.809   3.537  0.5575  0.2726 -0.0492
28926SOL    HW187356   7.004   8.841   3.585  1.2397  0.7073  0.7770
28926SOL    HW287357   7.048   8.793   3.449 -0.5986 -0.0149  0.4080
28927SOL     OW87358   7.713   7.545   4.491 -0.1405 -0.4021  0.7426
28927SOL    HW187359   7.691   7.633   4.521  0.7858 -0.0357  0.3801
28927SOL    HW287360   7.630   7.498   4.493 -1.5958  1.5770 -2.8856
28928SOL     OW87361   3.852   5.575   3.982 -0.1556 -0.8221 -0.0995
28928SOL    HW187362   3.867   5.566   4.076 -1.1128  1.6389  0.3682
28928SOL    HW287363   3.777   5.518   3.963 -1.3788  0.3197  1.1078
28929SOL     OW87364   6.049   0.962   8.088  0.1070 -0.1760 -0.2754
28929SOL    HW187365   6.064   1.015   8.166  0.0360 -1.0680  0.3675
28929SOL    HW287366   6.069   1.020   8.015 -0.6272  0.9427  0.3775
28930SOL     OW87367   5.530   6.100   2.083  0.1261 -0.3290  0.0289
28930SOL    HW187368   5.527   6.196   2.088 -0.8948 -0.3413 -0.2452
28930SOL    HW287369   5.440   6.074   2.067  0.5018 -1.3043 -0.5855
28931SOL     OW87370   5.970   1.099   8.530  0.4006  0.0923 -0.0144
28931SOL    HW187371   6.024   1.134   8.459 -0.2213  0.3529 -0.3663
28931SOL    HW287372   6.023   1.029   8.568 -0.0280 -1.4032 -2.0046
28932SOL     OW87373   7.096   2.673   8.424  0.2091 -0.1611 -0.5484
28932SOL    HW187374   7.116   2.655   8.516  0.8640  1.3231 -0.3774
28932SOL    HW287375   7.181   2.689   8.383 -0.0909 -0.6356 -1.3906
28933SOL     OW87376   9.649   3.865   8.311  0.1988 -0.0181 -0.0927
28933SOL    HW187377   9.732   3.870   8.263  1.0629  2.2347  1.4224
28933SOL    HW287378   9.585   3.838   8.246  2.2334 -3.0230 -1.0865
28934SOL     OW87379   7.449   3.652   8.398 -0.7209  0.1541 -0.0775
28934SOL    HW187380   7.518   3.588   8.416  1.8930  2.7015 -0.3173
28934SOL    HW287381   7.449   3.710   8.475 -2.4574  0.3874 -0.2094
28935SOL     OW87382   5.832   5.245   6.316 -0.1233 -0.4008  0.0719
28935SOL    HW187383   5.840   5.339   6.336 -0.5433 -0.3891  0.1870
28935SOL    HW287384   5.867   5.237   6.227 -0.7938 -0.0096 -0.2378
28936SOL     OW87385   0.344   4.446   1.361 -0.0235  0.3563  0.0802
28936SOL    HW187386   0.310   4.483   1.280 -0.8854 -2.4128 -0.9301
28936SOL    HW287387   0.268   4.437   1.417  0.2233  0.3620  0.4199
28937SOL     OW87388   1.700   4.757   4.334 -0.0351 -0.8660  0.0721
28937SOL    HW187389   1.706   4.755   4.430 -1.9331  1.2966  0.3157
28937SOL    HW287390   1.606   4.746   4.316  0.4522 -2.7287 -1.6679
28938SOL     OW87391   0.105   4.864   9.135  0.0490 -0.1470  0.8024
28938SOL    HW187392   0.200   4.870   9.129  0.0505 -1.0172 -0.4109
28938SOL    HW287393   0.078   4.944   9.179  1.3139  0.2678  0.8448
28939SOL     OW87394   3.367   3.763   1.855 -0.6064 -0.2803 -0.2263
28939SOL    HW187395   3.394   3.839   1.906  2.4297 -1.0553 -0.4507
28939SOL    HW287396   3.322   3.706   1.917  1.4638 -0.4323  1.2570
28940SOL     OW87397   9.200   1.882   1.007  0.3473 -0.4299  0.1099
28940SOL    HW187398   9.147   1.803   1.015 -0.5776  0.3407  2.6438
28940SOL    HW287399   9.144   1.943   0.959 -0.3468 -0.2324  1.1366
28941SOL     OW87400   5.289   9.072   4.560 -0.5931  0.2642  0.2042
28941SOL    HW187401   5.278   9.039   4.649 -1.9020  0.4481  0.1323
28941SOL    HW287402   5.210   9.123   4.543 -0.6084 -0.1732 -1.2354
28942SOL     OW87403   4.247   2.305   4.542 -0.0999  0.0869 -0.0053
28942SOL    HW187404   4.232   2.215   4.515  0.0378 -0.0007  0.2082
28942SOL    HW287405   4.241   2.303   4.638 -0.9649  0.4584 -0.0409
28943SOL     OW87406   7.595   3.818   7.868 -0.3303 -0.3581 -0.0120
28943SOL    HW187407   7.549   3.766   7.802 -0.5990 -2.0887  1.4470
28943SOL    HW287408   7.525   3.856   7.921 -0.1401  1.7121 -1.1488
28944SOL     OW87409   8.118   3.714   8.368  0.2059  0.1044 -0.2795
28944SOL    HW187410   8.045   3.723   8.307  0.9717  0.3674 -1.1638
28944SOL    HW287411   8.090   3.763   8.446 -0.2641  0.7969 -0.8762
28945SOL     OW87412   4.557   1.025   6.105  0.3350 -0.0613  0.4561
28945SOL    HW187413   4.587   0.935   6.092  0.4047 -0.0138  0.2846
28945SOL    HW287414   4.517   1.049   6.021  0.5913  0.1726  0.4008
28946SOL     OW87415   1.637   3.058   2.824  0.1034  0.5074 -0.3714
28946SOL    HW187416   1.565   3.002   2.851 -0.6192  1.3168 -0.5818
28946SOL    HW287417   1.595   3.135   2.785  1.0804  0.7789 -0.9339
28947SOL     OW87418   5.038   6.590   5.423 -0.5227  0.1753  0.0146
28947SOL    HW187419   5.049   6.683   5.445  1.7562  0.0588 -0.3139
28947SOL    HW287420   5.127   6.554   5.431 -0.7012 -1.2562 -3.0101
28948SOL     OW87421   1.203   4.323   4.020 -0.0532  0.5614 -0.0908
28948SOL    HW187422   1.191   4.327   4.115 -2.8282  1.1674 -0.3771
28948SOL    HW287423   1.248   4.405   3.998  0.5748  0.4354  0.6821
28949SOL     OW87424   7.702   1.198   2.130 -0.1242 -0.5820 -0.1139
28949SOL    HW187425   7.745   1.278   2.161 -1.4698  0.3326 -0.5161
28949SOL    HW287426   7.651   1.167   2.204 -1.2510  0.1231 -0.5729
28950SOL     OW87427   1.941   6.877   2.080 -0.1052  0.3742 -0.1995
28950SOL    HW187428   2.010   6.818   2.108  1.1216  0.1825 -3.2386
28950SOL    HW287429   1.985   6.940   2.022 -2.0280  1.9538 -0.0762
28951SOL     OW87430   8.665   6.517   4.696 -0.1886 -0.1740  0.2427
28951SOL    HW187431   8.704   6.447   4.748 -0.2228  0.6887  1.4634
28951SOL    HW287432   8.719   6.593   4.714 -0.6255  0.3060 -0.4440
28952SOL     OW87433   3.290   3.143   0.611 -0.2104  0.2895 -0.6499
28952SOL    HW187434   3.231   3.090   0.557  0.4806 -2.7643  1.3042
28952SOL    HW287435   3.365   3.161   0.555 -0.9985  0.2198 -1.7541
28953SOL     OW87436   6.661   7.890   8.759  0.1703  0.6204 -0.6508
28953SOL    HW187437   6.635   7.862   8.847 -1.9799 -1.5826 -1.8436
28953SOL    HW287438   6.664   7.985   8.764 -0.3126  0.5819  1.6938
28954SOL     OW87439   5.423   0.884   6.757 -0.2181 -0.2181 -0.1461
28954SOL    HW187440   5.400   0.973   6.786  0.4410 -0.2239  0.4457
28954SOL    HW287441   5.419   0.888   6.662 -1.7640  0.0071 -0.0889
28955SOL     OW87442   1.215   9.617   5.783 -0.0393  0.3683  0.0773
28955SOL    HW187443   1.286   9.651   5.727 -0.9973  1.7782 -0.3335
28955SOL    HW287444   1.173   9.696   5.818  1.1339 -0.4186  3.7079
28956SOL     OW87445   1.199   5.253   2.789  0.2805  0.5984  0.0489
28956SOL    HW187446   1.272   5.294   2.741  0.9835 -0.3775  0.2600
28956SOL    HW287447   1.242   5.201   2.856 -0.5066 -1.6225 -1.0871
28957SOL     OW87448   4.624   6.508   6.683 -0.1393  0.7921 -0.1397
28957SOL    HW187449   4.682   6.541   6.614  0.8915 -0.0380  0.2852
28957SOL    HW287450   4.553   6.465   6.636  0.6030  0.1403 -0.6945
28958SOL     OW87451   3.701   1.948   2.210  0.1403  0.3662  0.1631
28958SOL    HW187452   3.718   1.941   2.304 -1.8887 -1.4249  0.4560
28958SOL    HW287453   3.775   1.904   2.169  1.0360  1.1449  0.8823
28959SOL     OW87454   4.914   6.777   8.515  0.2038  0.0228  0.6722
28959SOL    HW187455   4.931   6.754   8.606 -3.9992  0.3380  1.7313
28959SOL    HW287456   4.861   6.705   8.480  0.4474  0.6236 -1.0784
28960SOL     OW87457   4.578   1.271   6.508 -0.2692  0.2315 -0.0580
28960SOL    HW187458   4.602   1.227   6.589  0.3372  0.6368 -0.0073
28960SOL    HW287459   4.567   1.363   6.532 -0.0982  0.3529 -0.4299
28961SOL     OW87460   0.286   1.879   8.452 -0.3965  0.2653 -0.2835
28961SOL    HW187461   0.341   1.864   8.374  0.1694 -3.4758  0.6497
28961SOL    HW287462   0.326   1.825   8.520 -2.7988  0.8255  1.7060
28962SOL     OW87463   0.230   8.832   1.602  0.1060 -0.0032  0.2763
28962SOL    HW187464   0.193   8.753   1.640 -0.5523  0.4257  0.5361
28962SOL    HW287465   0.163   8.899   1.614  0.1307  0.2983 -1.0662
28963SOL     OW87466   5.834   4.450   4.935 -0.2701 -0.0913  1.2750
28963SOL    HW187467   5.877   4.523   4.978 -0.5468  1.3922 -0.8080
28963SOL    HW287468   5.774   4.415   5.000  0.5330  0.9478  2.6103
28964SOL     OW87469   4.301   7.895   8.998 -0.5961 -0.1287 -0.8533
28964SOL    HW187470   4.333   7.809   9.026  0.2769  0.7638  1.0266
28964SOL    HW287471   4.366   7.924   8.933 -2.1941 -1.8477 -3.4289
28965SOL     OW87472   8.960   6.093   3.039  0.2296 -0.2381 -0.4712
28965SOL    HW187473   9.020   6.035   3.087 -0.8942 -0.9812  0.1066
28965SOL    HW287474   8.961   6.175   3.088  0.9227 -0.1683 -0.5923
28966SOL     OW87475   6.783   0.021   7.372  0.4265  0.0082 -0.3274
28966SOL    HW187476   6.830  -0.034   7.310  3.0063  1.3494  0.2961
28966SOL    HW287477   6.812   0.110   7.352  0.7252  0.5558  2.2289
28967SOL     OW87478   4.268   0.904   0.514  0.1997  0.4782  0.4192
28967SOL    HW187479   4.311   0.829   0.557 -0.3422 -0.8701 -1.2944
28967SOL    HW287480   4.177   0.900   0.544  0.1026  0.2673  0.0997
28968SOL     OW87481   5.865   2.118   6.356 -0.5170  0.0561  0.4161
28968SOL    HW187482   5.772   2.096   6.366 -0.8148 -0.9912 -3.0681
28968SOL    HW287483   5.867   2.213   6.359 -1.3794  0.0678  2.1980
28969SOL     OW87484   7.570   0.753   5.655 -0.4260  0.0867  0.2793
28969SOL    HW187485   7.542   0.748   5.747 -1.7004 -0.4808 -0.1157
28969SOL    HW287486   7.555   0.664   5.621 -1.2949  0.6407 -0.8399
28970SOL     OW87487   0.999   0.924   2.476 -0.0967 -0.3853 -0.5040
28970SOL    HW187488   1.056   0.958   2.545 -1.6803  0.4200  0.4720
28970SOL    HW287489   1.058   0.874   2.419  1.3154 -0.8767  1.2736
28971SOL     OW87490   1.378   0.608   7.623  0.2677 -0.1300 -0.9038
28971SOL    HW187491   1.350   0.668   7.555  1.0938 -0.2756 -1.3811
28971SOL    HW287492   1.444   0.553   7.581  1.4178  0.3289  0.2217
28972SOL     OW87493   5.048   5.096   2.571  0.4460  0.4160  0.2706
28972SOL    HW187494   5.044   5.126   2.662 -0.0895  0.7149  0.1530
28972SOL    HW287495   5.011   5.008   2.574  2.0962 -0.2982  0.6298
28973SOL     OW87496   1.404   0.439   6.061 -0.2488  0.4361 -0.1382
28973SOL    HW187497   1.329   0.407   6.010  1.0892 -4.5522  0.5194
28973SOL    HW287498   1.480   0.422   6.006  0.8340 -0.4418  1.5579
28974SOL     OW87499   5.845   5.143   0.292  0.6555  0.7148  0.6456
28974SOL    HW187500   5.805   5.165   0.376 -0.8088  1.7853 -0.2891
28974SOL    HW287501   5.818   5.053   0.275  3.0134 -0.4318  2.4211
28975SOL     OW87502   8.123   7.679   0.170  0.0503 -0.3327 -0.3796
28975SOL    HW187503   8.171   7.628   0.235 -1.1294  0.0165  0.8329
28975SOL    HW287504   8.190   7.727   0.121  0.9431  0.2111  1.3041
28976SOL     OW87505   9.681   2.842   6.000  0.8197 -0.6202  0.3507
28976SOL    HW187506   9.735   2.813   5.926 -0.7058 -1.5997 -0.4364
28976SOL    HW287507   9.683   2.938   5.995  0.1209 -0.6611 -1.4678
28977SOL     OW87508   5.721   4.249   0.625  0.0272  0.1275 -0.1843
28977SOL    HW187509   5.783   4.196   0.675  0.6126  0.4276 -0.5802
28977SOL    HW287510   5.705   4.326   0.680  1.0905  0.7201 -0.6756
28978SOL     OW87511   8.627   0.828   1.264  0.3879 -0.1805 -0.8457
28978SOL    HW187512   8.605   0.737   1.284  2.1872 -0.8914 -1.8647
28978SOL    HW287513   8.618   0.834   1.169  2.6286 -0.0365 -1.1132
28979SOL     OW87514   2.173   2.005   8.418  0.1196 -0.4606 -0.2442
28979SOL    HW187515   2.142   1.951   8.490  1.8481  0.2369  1.1080
28979SOL    HW287516   2.264   1.978   8.405 -0.1571 -0.6232 -2.2622
28980SOL     OW87517   9.619   1.951   4.110  0.0337 -0.2157 -0.5818
28980SOL    HW187518   9.702   1.913   4.139  1.4974  2.0568 -1.4903
28980SOL    HW287519   9.633   2.046   4.115 -2.8446  0.2696  0.0870
28981SOL     OW87520   3.986   8.401   7.510  0.3865  0.0748 -0.0844
28981SOL    HW187521   3.998   8.494   7.493  2.0138 -0.2501 -0.9600
28981SOL    HW287522   3.908   8.396   7.566 -0.8905  1.7784 -1.5982
28982SOL     OW87523   8.192   0.009   1.825  0.2279 -0.6245 -0.2421
28982SOL    HW187524   8.288   0.015   1.828  0.2622  0.0520 -1.7165
28982SOL    HW287525   8.168   0.058   1.746 -1.2928 -1.3559 -0.2574
28983SOL     OW87526   4.781   2.568   6.858  0.2306 -0.0006  0.0571
28983SOL    HW187527   4.862   2.527   6.887  0.1220 -1.2809 -1.3261
28983SOL    HW287528   4.798   2.662   6.865  1.7220 -0.2449  0.0568
28984SOL     OW87529   3.321   8.768   9.141  0.0847  0.2611 -0.6332
28984SOL    HW187530   3.403   8.776   9.190  0.4622  1.9285 -1.4732
28984SOL    HW287531   3.254   8.753   9.208  0.9482 -0.3882  0.1210
28985SOL     OW87532   5.307   4.922   1.354 -0.0696  0.4397 -0.3620
28985SOL    HW187533   5.393   4.931   1.393 -1.2212  1.8387  2.0760
28985SOL    HW287534   5.260   4.864   1.413 -1.3579  1.2296 -0.5703
28986SOL     OW87535   9.045   3.506   9.765  0.3488 -0.2315  0.0262
28986SOL    HW187536   9.000   3.557   9.699  0.7785 -0.2547 -0.2878
28986SOL    HW287537   9.051   3.564   9.841 -0.4893 -0.3408  0.1838
28987SOL     OW87538   5.057   3.963   1.469 -0.2333  0.2322 -0.2227
28987SOL    HW187539   4.990   4.022   1.435  0.2749  1.0794  0.1927
28987SOL    HW287540   5.136   3.988   1.422  0.1577  0.4271  0.5169
28988SOL     OW87541   7.430   8.199   2.200  0.1229  0.7676 -0.6713
28988SOL    HW187542   7.347   8.240   2.175 -0.4130  0.3136  0.2980
28988SOL    HW287543   7.489   8.272   2.216  0.3192  1.0849 -2.6286
28989SOL     OW87544   8.111   4.218   1.868  0.4111 -0.3350  0.6927
28989SOL    HW187545   8.015   4.219   1.866  0.3783  0.5313  1.9141
28989SOL    HW287546   8.136   4.186   1.781 -0.9706  0.9598 -0.2384
28990SOL     OW87547   7.381   1.897   4.511  0.1026 -0.2914  0.1282
28990SOL    HW187548   7.472   1.916   4.535  0.2509 -0.2073 -0.4846
28990SOL    HW287549   7.367   1.946   4.430  0.2247 -2.0850 -1.0380
28991SOL     OW87550   2.238   0.284   4.218  0.1699  0.0226  0.0698
28991SOL    HW187551   2.282   0.203   4.191  1.1928  0.8510 -0.8516
28991SOL    HW287552   2.223   0.273   4.312 -0.9201 -1.7647 -0.2616
28992SOL     OW87553   1.342   7.562   3.106 -0.3084 -0.1055 -0.0987
28992SOL    HW187554   1.309   7.652   3.102  0.4252  0.1477 -0.6023
28992SOL    HW287555   1.432   7.571   3.138  0.1485 -0.5604 -1.2189
28993SOL     OW87556   5.410   8.257   2.231 -0.1434 -0.8669 -0.0356
28993SOL    HW187557   5.317   8.276   2.220  0.3489  2.2378  0.2482
28993SOL    HW287558   5.417   8.220   2.319 -0.8706  1.2999  0.9851
28994SOL     OW87559   5.666   7.609   0.332  0.3472 -0.4212  0.1863
28994SOL    HW187560   5.622   7.531   0.367  0.3088 -0.9193 -0.9176
28994SOL    HW287561   5.640   7.680   0.391  1.2051 -1.4116  1.8230
28995SOL     OW87562   2.239   0.939   3.519  0.4736 -0.8756 -0.1611
28995SOL    HW187563   2.198   0.859   3.549  0.3891 -0.6150  0.4370
28995SOL    HW287564   2.182   1.009   3.550  0.9519 -0.5475 -0.0043
28996SOL     OW87565   8.806   4.837   0.175  0.4736  0.6556  0.2709
28996SOL    HW187566   8.875   4.773   0.159 -0.3202  0.1361 -1.3054
28996SOL    HW287567   8.792   4.878   0.090 -1.8869 -0.0100  0.2678
28997SOL     OW87568   2.974   5.086   9.156  0.0424  0.2008  0.3758
28997SOL    HW187569   3.046   5.044   9.204  0.7274  1.6130  0.6257
28997SOL    HW287570   3.001   5.081   9.064 -1.1355 -2.2433  0.0724
28998SOL     OW87571   7.709   9.456   6.145 -0.1298 -0.2260 -0.2171
28998SOL    HW187572   7.724   9.403   6.068 -2.4575 -1.4618  0.1037
28998SOL    HW287573   7.696   9.393   6.216 -0.7402  0.8120  0.6317
28999SOL     OW87574   8.922   2.640   0.818 -0.0210 -0.1865  0.2332
28999SOL    HW187575   8.878   2.705   0.872  0.5301 -0.1876  0.6904
28999SOL    HW287576   8.905   2.557   0.862  1.0912 -0.0997  0.8643
29000SOL     OW87577   9.096   5.631   9.713  0.1176  0.0703  0.1984
29000SOL    HW187578   9.188   5.648   9.696  0.1482  0.8915  1.0398
29000SOL    HW287579   9.094   5.593   9.801 -0.4757  2.1706  1.1646
29001SOL     OW87580   1.064   1.385   3.931 -0.7011 -0.2772  0.5479
29001SOL    HW187581   0.969   1.370   3.938 -0.6485 -2.1951 -1.7330
29001SOL    HW287582   1.085   1.367   3.840  1.8231  0.5874  0.8730
29002SOL     OW87583   8.367   6.943   0.133 -0.2842 -0.3037  0.4427
29002SOL    HW187584   8.383   6.893   0.213 -1.4806 -0.7646  0.4145
29002SOL    HW287585   8.283   6.911   0.101 -0.5848  1.0113 -0.1487
29003SOL     OW87586   3.227   9.645   9.803 -0.2046  0.0283 -0.1789
29003SOL    HW187587   3.279   9.660   9.723 -2.4649 -1.1990 -2.0195
29003SOL    HW287588   3.271   9.697   9.870  3.5586 -1.1196 -1.4431
29004SOL     OW87589   7.773   4.999   6.186 -0.5647 -0.4011  0.2658
29004SOL    HW187590   7.849   4.982   6.241  1.5519  0.2864 -2.2179
29004SOL    HW287591   7.804   5.060   6.119 -3.9911  1.8675  0.4838
29005SOL     OW87592   0.091   3.072   4.036 -0.3730  0.2123 -0.3978
29005SOL    HW187593   0.109   3.161   4.006  4.3939 -0.0242  1.0005
29005SOL    HW287594   0.114   3.016   3.962  1.7155  0.0446  0.3141
29006SOL     OW87595   5.013   7.504   7.345 -0.3879  0.0549 -0.1591
29006SOL    HW187596   5.080   7.506   7.277  0.0121  0.9234  0.2390
29006SOL    HW287597   4.944   7.562   7.312 -1.1073 -1.0740 -0.7088
29007SOL     OW87598   4.177   0.050   6.494  0.3334 -0.2496  0.8128
29007SOL    HW187599   4.120   0.127   6.488  0.2019 -0.3874  0.2373
29007SOL    HW287600   4.134  -0.016   6.440  1.8255  0.1346 -0.9495
29008SOL     OW87601   9.783   9.049   6.832 -0.0042 -0.0809  0.0102
29008SOL    HW187602   9.788   9.143   6.850 -0.6872  0.3063 -1.6376
29008SOL    HW287603   9.828   9.008   6.906  0.4179  1.5452  0.6991
29009SOL     OW87604   3.419   9.055   8.765  0.2734  0.6313 -0.4819
29009SOL    HW187605   3.393   9.142   8.793  0.1273  0.6659 -0.7201
29009SOL    HW287606   3.368   8.995   8.820  1.6484  0.6687  0.9021
29010SOL     OW87607   1.246   8.766   1.392  0.3391 -0.3407  0.1437
29010SOL    HW187608   1.182   8.832   1.418  0.4901  0.4802 -1.4443
29010SOL    HW287609   1.239   8.698   1.459 -0.8152  0.6265  1.0486
29011SOL     OW87610   6.720   6.515   3.391  0.1006 -0.2391 -0.1645
29011SOL    HW187611   6.654   6.447   3.380  1.2575 -1.0282 -3.0572
29011SOL    HW287612   6.798   6.480   3.350  0.9029  2.6483 -1.3573
29012SOL     OW87613   1.698   2.159   8.778  0.2776  0.2266 -0.8509
29012SOL    HW187614   1.619   2.106   8.790  0.2738  0.4839  0.3981
29012SOL    HW287615   1.767   2.110   8.823  0.2762  1.2361  0.3026
29013SOL     OW87616   0.322   7.398   7.534 -0.1392 -0.1562  0.4820
29013SOL    HW187617   0.255   7.454   7.573 -0.6170 -1.0500  0.9836
29013SOL    HW287618   0.385   7.459   7.496 -1.3405  0.6952 -0.1965
29014SOL     OW87619   3.166   5.861   4.041 -0.0039 -0.4940 -0.0135
29014SOL    HW187620   3.171   5.954   4.019  0.5414 -0.8086 -1.3531
29014SOL    HW287621   3.077   5.835   4.016  0.0164 -0.4410 -0.1431
29015SOL     OW87622   2.843   5.605   3.492 -0.9085  0.4550  0.1765
29015SOL    HW187623   2.891   5.526   3.517  0.7987  1.3730 -0.0394
29015SOL    HW287624   2.755   5.574   3.472  0.2981 -1.8121 -2.2752
29016SOL     OW87625   1.561   3.750   6.763 -0.4919  0.3810 -0.7277
29016SOL    HW187626   1.520   3.741   6.677 -1.3412  0.5452 -0.3494
29016SOL    HW287627   1.491   3.728   6.825 -0.2427  1.4383 -0.0451
29017SOL     OW87628   4.154   7.944   5.887 -0.4637 -0.3983  0.3117
29017SOL    HW187629   4.202   7.951   5.804 -0.0022 -1.8161  0.4303
29017SOL    HW287630   4.216   7.977   5.953 -1.3883  2.2452 -0.0192
29018SOL     OW87631   3.706   3.581   7.552 -0.2383  0.2750 -0.1887
29018SOL    HW187632   3.664   3.607   7.470 -0.9069 -0.5880 -0.1329
29018SOL    HW287633   3.671   3.639   7.618  0.6762  1.3093 -0.5788
29019SOL     OW87634   0.434   5.699   8.522  0.1651 -0.5455 -0.2202
29019SOL    HW187635   0.382   5.658   8.453 -0.5045 -0.9070  0.4795
29019SOL    HW287636   0.513   5.731   8.478 -0.6416  0.0059 -1.3104
29020SOL     OW87637   8.001   4.790   8.759 -0.1736 -0.4608  0.3354
29020SOL    HW187638   7.906   4.801   8.752 -0.1037  0.8308  1.1620
29020SOL    HW287639   8.034   4.876   8.785  1.2924 -0.7507 -0.4469
29021SOL     OW87640   1.822   2.536   7.678  0.0298 -0.1259  0.1321
29021SOL    HW187641   1.815   2.441   7.689  1.8415 -0.1917  1.1125
29021SOL    HW287642   1.866   2.547   7.593  1.0279 -0.2259  0.6275
29022SOL     OW87643   9.738   2.074   2.211  0.6981 -0.5832 -0.2087
29022SOL    HW187644   9.676   2.044   2.145  0.3971  1.3762 -0.9055
29022SOL    HW287645   9.691   2.143   2.259  1.6242 -0.5298  0.6671
29023SOL     OW87646   9.784   6.918   6.115  0.0831  0.2493  0.9640
29023SOL    HW187647   9.758   6.987   6.176  1.0823  0.9892  0.5938
29023SOL    HW287648   9.704   6.868   6.099 -0.4562  0.7819  1.9383
29024SOL     OW87649   8.331   2.199   3.876  0.2691  0.1126  0.2815
29024SOL    HW187650   8.406   2.141   3.874 -0.3303 -0.7625  1.9028
29024SOL    HW287651   8.334   2.241   3.962  0.3728  2.1108 -0.6200
29025SOL     OW87652   5.996   1.929   0.628 -0.0155  0.2757  0.5556
29025SOL    HW187653   6.082   1.970   0.616  0.8856 -1.9992 -1.6041
29025SOL    HW287654   6.016   1.844   0.668 -1.1790 -0.5326 -0.5315
29026SOL     OW87655   8.911   7.245   2.797 -0.5444  0.2159  0.1682
29026SOL    HW187656   8.848   7.293   2.744  1.1556  1.4986 -0.8013
29026SOL    HW287657   8.858   7.192   2.856 -2.5040  0.6562 -1.1032
29027SOL     OW87658   5.018   6.974   7.089 -0.2963  0.0680 -0.1605
29027SOL    HW187659   4.984   7.050   7.137  0.1492 -0.5200  1.1340
29027SOL    HW287660   5.001   6.900   7.147 -0.9906 -0.8812 -1.5340
29028SOL     OW87661   6.463   5.104   0.251 -0.2050  0.1550  0.5166
29028SOL    HW187662   6.468   5.017   0.288 -2.8292 -0.5313 -0.4980
29028SOL    HW287663   6.517   5.100   0.172 -1.4001 -1.0373 -0.2799
29029SOL     OW87664   6.078   8.980   7.983 -0.3487  0.1297  0.8581
29029SOL    HW187665   6.161   9.021   8.005 -0.9048  2.5600 -1.1022
29029SOL    HW287666   6.051   9.022   7.901 -1.6137 -3.4007 -0.7449
29030SOL     OW87667   5.630   9.840   7.539  0.1486 -0.9672  0.4212
29030SOL    HW187668   5.580   9.760   7.555 -0.4201 -0.8698 -0.7251
29030SOL    HW287669   5.720   9.817   7.563 -0.1603 -1.6737  0.9315
29031SOL     OW87670   7.872   2.898   1.439  0.3936  0.2517 -0.2805
29031SOL    HW187671   7.794   2.863   1.395  0.4118  0.0589 -0.1644
29031SOL    HW287672   7.839   2.931   1.523  0.1540  1.7335 -0.9295
29032SOL     OW87673   6.710   5.767   1.661 -0.1177 -0.4907 -0.6532
29032SOL    HW187674   6.745   5.845   1.705 -0.3629  0.1649 -1.5833
29032SOL    HW287675   6.765   5.758   1.583  0.7162 -2.0084  0.0788
29033SOL     OW87676   7.594   0.450   7.368 -0.2273 -0.7015  0.2403
29033SOL    HW187677   7.592   0.480   7.459  1.0563 -0.9064  0.3476
29033SOL    HW287678   7.611   0.356   7.374 -0.4310 -0.7701 -0.2041
29034SOL     OW87679   5.158   2.610   1.430  0.6933  0.4987 -0.2148
29034SOL    HW187680   5.157   2.704   1.414  1.4425  0.4186 -0.7671
29034SOL    HW287681   5.141   2.602   1.524 -3.2979  0.9768 -0.7077
29035SOL     OW87682   2.649   1.348   9.606 -0.2822 -0.5301 -0.7787
29035SOL    HW187683   2.609   1.365   9.691  0.5150 -1.2695 -0.2359
29035SOL    HW287684   2.575   1.347   9.544 -0.8546  0.1139 -0.1228
29036SOL     OW87685   0.173   0.537   8.672  0.1337  0.0340 -0.5350
29036SOL    HW187686   0.155   0.444   8.675 -1.4708  0.3455  0.5634
29036SOL    HW287687   0.087   0.579   8.681  0.8708  1.6243 -0.4704
29037SOL     OW87688   3.495   8.023   5.569 -0.2237 -0.2489 -0.1406
29037SOL    HW187689   3.480   8.103   5.519 -0.6694 -0.9289 -1.1462
29037SOL    HW287690   3.560   8.047   5.634 -1.4692  1.3311  0.5994
29038SOL     OW87691   6.164   4.126   8.716 -0.3304 -0.1218  0.2968
29038SOL    HW187692   6.166   4.185   8.640 -0.3237 -0.1943  0.2404
29038SOL    HW287693   6.117   4.049   8.685 -2.4946  0.7940  1.0632
29039SOL     OW87694   5.485   5.749   4.720 -0.7404 -0.0724  0.1958
29039SOL    HW187695   5.391   5.762   4.726 -0.8103  0.8046 -2.0082
29039SOL    HW287696   5.523   5.816   4.778 -1.4255 -1.4355  2.3485
29040SOL     OW87697   7.231   2.552   0.883  0.0970 -0.5442  0.5337
29040SOL    HW187698   7.270   2.589   0.962 -1.9310  0.8222  0.9619
29040SOL    HW287699   7.223   2.459   0.901  1.9330 -0.6624  0.9124
29041SOL     OW87700   5.111   0.687   7.641  0.2373 -0.0512  0.1605
29041SOL    HW187701   5.094   0.605   7.687  0.7647 -0.3167 -0.1069
29041SOL    HW287702   5.033   0.702   7.588 -0.6770  0.6043  1.6168
29042SOL     OW87703   2.218   0.170   1.532  0.7809 -0.0546 -0.5211
29042SOL    HW187704   2.122   0.171   1.524  0.8588 -1.9678 -2.7817
29042SOL    HW287705   2.239   0.255   1.571 -1.9370 -0.4077  2.1442
29043SOL     OW87706   7.966   4.583   6.710 -0.0667  0.6736 -0.3460
29043SOL    HW187707   8.019   4.569   6.631 -0.1458 -0.7976 -0.1709
29043SOL    HW287708   7.946   4.494   6.741  0.7498  1.2014  1.8691
29044SOL     OW87709   5.875   2.478   8.354 -0.1427 -0.1207 -0.0201
29044SOL    HW187710   5.949   2.490   8.294  1.9876 -1.2978  2.1575
29044SOL    HW287711   5.913   2.432   8.429 -3.0895 -0.5680  1.3379
29045SOL     OW87712   7.373   9.271   2.684  0.2708 -0.1501 -0.1744
29045SOL    HW187713   7.423   9.348   2.712 -0.7554  0.6395 -0.4337
29045SOL    HW287714   7.413   9.198   2.731  2.2764  0.2821 -1.0840
29046SOL     OW87715   1.182   4.404   7.870 -0.1877  0.0767  0.4609
29046SOL    HW187716   1.190   4.496   7.895  0.6453  0.4646 -1.0922
29046SOL    HW287717   1.092   4.395   7.837 -0.1115  0.4599  0.1470
29047SOL     OW87718   9.006   7.719   6.530 -0.2395  0.4396  0.1644
29047SOL    HW187719   9.091   7.754   6.555  0.5709 -0.9614 -0.5115
29047SOL    HW287720   8.991   7.646   6.590 -0.9135  0.5962  0.1991
29048SOL     OW87721   9.136   8.748   4.793 -0.1900  0.6859 -0.1188
29048SOL    HW187722   9.161   8.665   4.833  0.6776  1.0541  0.1309
29048SOL    HW287723   9.057   8.775   4.840  0.5686  0.9031  1.0703
29049SOL     OW87724   9.059   5.496   9.068 -0.5426 -0.5700  0.0466
29049SOL    HW187725   9.063   5.495   8.973 -1.9518 -0.6768 -0.0325
29049SOL    HW287726   9.139   5.450   9.096 -0.0920 -0.4951 -1.0650
29050SOL     OW87727   4.543   8.224   7.186  0.0385  0.3961  0.1072
29050SOL    HW187728   4.612   8.212   7.251 -0.3458 -0.0790  0.4398
29050SOL    HW287729   4.580   8.285   7.123  1.4832 -1.2543 -0.7494
29051SOL     OW87730   2.535   5.199   4.407  0.2258 -0.3222 -0.2705
29051SOL    HW187731   2.573   5.270   4.458 -0.4632 -0.3262  0.2562
29051SOL    HW287732   2.611   5.157   4.365  0.7864 -0.2529  0.6478
29052SOL     OW87733   3.347   7.407   5.125 -0.0831 -0.0155 -0.3114
29052SOL    HW187734   3.442   7.406   5.126  0.0274  0.0468 -3.0726
29052SOL    HW287735   3.321   7.317   5.143  0.5892 -0.4139 -1.2794
29053SOL     OW87736   4.833   2.402   2.851 -0.7006  0.7283 -0.3648
29053SOL    HW187737   4.761   2.338   2.853 -0.6270  0.5956 -1.2850
29053SOL    HW287738   4.798   2.475   2.801 -0.5504  1.1246  0.1045
29054SOL     OW87739   9.432   9.645   0.737  0.1950  0.0852 -0.2751
29054SOL    HW187740   9.386   9.602   0.809  0.6753 -1.0503 -0.6271
29054SOL    HW287741   9.479   9.574   0.692  0.8129  0.9406 -1.0240
29055SOL     OW87742   2.724   2.600   0.188 -0.4376  0.4188  0.1275
29055SOL    HW187743   2.730   2.538   0.116 -3.5425  1.4775 -1.2167
29055SOL    HW287744   2.790   2.571   0.251 -0.4088 -3.0098 -1.2964
29056SOL     OW87745   4.720   7.257   9.275 -0.0857  0.1867 -0.2820
29056SOL    HW187746   4.799   7.252   9.221  0.0906  0.5659 -0.0641
29056SOL    HW287747   4.674   7.175   9.257 -0.4513  0.6656 -1.6499
29057SOL     OW87748   5.743   6.574   6.495  0.2584  0.7606 -0.3522
29057SOL    HW187749   5.680   6.590   6.424 -1.6154  0.1457  1.0900
29057SOL    HW287750   5.770   6.483   6.482  0.6342  0.9318 -0.7994
29058SOL     OW87751   6.398   3.799   9.964 -0.2280  0.4646 -0.0252
29058SOL    HW187752   6.415   3.751  10.045 -1.5180 -0.6666 -0.3872
29058SOL    HW287753   6.352   3.736   9.908 -0.4315  1.5992 -1.1833
29059SOL     OW87754   3.357   0.861   5.292 -0.6135 -0.4797  0.0566
29059SOL    HW187755   3.452   0.848   5.294 -0.5980 -0.5808  2.4849
29059SOL    HW287756   3.346   0.955   5.300 -0.6676 -0.6001  1.7724
29060SOL     OW87757   7.110   9.531   8.451  0.0990  0.0242  0.1590
29060SOL    HW187758   7.106   9.604   8.512 -0.2388 -1.0474  1.4705
29060SOL    HW287759   7.051   9.555   8.379  1.0533  1.6226 -0.1402
29061SOL     OW87760   6.310   2.826   7.737 -0.5354  0.0703 -0.6793
29061SOL    HW187761   6.379   2.773   7.777  0.4727  0.7657 -1.4045
29061SOL    HW287762   6.289   2.893   7.802  0.4038  0.6126 -0.9041
29062SOL     OW87763   0.154   1.572   6.037  0.9916 -0.1212 -0.2673
29062SOL    HW187764   0.239   1.589   6.076  1.6469 -3.1176 -0.2258
29062SOL    HW287765   0.173   1.521   5.959 -0.7892 -1.3639  0.0586
29063SOL     OW87766   0.127   4.322   3.087  0.3075  0.3775 -0.6630
29063SOL    HW187767   0.179   4.341   3.009  0.3422  1.5562 -0.3682
29063SOL    HW287768   0.166   4.375   3.156 -2.3122  2.8139 -0.8195
29064SOL     OW87769   2.705   0.303   5.587  0.0162 -0.3743  0.0160
29064SOL    HW187770   2.750   0.235   5.537 -0.4301 -1.1281  0.6103
29064SOL    HW287771   2.766   0.325   5.658 -0.2065 -0.8081  0.3460
29065SOL     OW87772   2.687   6.739   3.037  0.0077 -0.3649 -0.2737
29065SOL    HW187773   2.691   6.739   2.941  2.4736 -2.9764 -0.2874
29065SOL    HW287774   2.632   6.663   3.058 -1.8573  1.1102  0.4699
29066SOL     OW87775   0.661   9.932   7.001 -0.0333 -0.3287 -0.0426
29066SOL    HW187776   0.584   9.961   7.050  0.9231  1.6662  0.3848
29066SOL    HW287777   0.723   9.902   7.067  0.7569  1.1382 -0.0702
29067SOL     OW87778   6.403   7.021   3.382  0.1292 -0.0400  0.3005
29067SOL    HW187779   6.393   7.032   3.477 -0.7547  3.7588 -0.0497
29067SOL    HW287780   6.497   7.007   3.370  0.1976 -1.0519  1.7393
29068SOL     OW87781   7.587   5.626   8.399  0.5035  0.0478 -0.1122
29068SOL    HW187782   7.511   5.660   8.445  0.1147  0.6448 -1.1758
29068SOL    HW287783   7.555   5.548   8.354  0.6922 -0.0882 -0.0147
29069SOL     OW87784   4.559   2.179   4.358 -0.0186 -0.4358  0.8509
29069SOL    HW187785   4.532   2.260   4.316  0.2322 -1.1847 -0.8465
29069SOL    HW287786   4.653   2.171   4.338 -0.1528 -1.3990  0.5301
29070SOL     OW87787   2.934   6.573   8.658 -0.8775 -0.7593 -0.1508
29070SOL    HW187788   2.926   6.494   8.605 -0.0568 -0.5932 -0.5354
29070SOL    HW287789   2.861   6.628   8.630  0.7109  0.2234 -2.6745
29071SOL     OW87790   2.739   8.211   9.851  0.3828  0.0789  0.0623
29071SOL    HW187791   2.815   8.267   9.868  0.8693 -0.1933 -1.1319
29071SOL    HW287792   2.688   8.214   9.932  1.8280 -0.0057  1.0002
29072SOL     OW87793   4.086   9.708   3.377  0.0107 -0.5528  0.3368
29072SOL    HW187794   4.127   9.706   3.463 -0.7090 -0.4147  0.6872
29072SOL    HW287795   4.042   9.624   3.370  1.0614 -1.0683 -0.4031
29073SOL     OW87796   7.570   9.024   1.993  0.4774 -0.6591 -0.3149
29073SOL    HW187797   7.597   8.984   1.910 -0.2400  0.5721 -1.1798
29073SOL    HW287798   7.651   9.055   2.032  0.6629  0.5024 -1.5365
29074SOL     OW87799   2.936   3.447   3.993  0.0781 -0.1136 -0.4520
29074SOL    HW187800   3.003   3.514   4.006 -1.5206  1.2478  1.5814
29074SOL    HW287801   2.870   3.488   3.938 -0.9699  0.1187  0.8980
29075SOL     OW87802   0.914   4.431   0.327  0.2803 -0.0912  0.2083
29075SOL    HW187803   0.864   4.435   0.246 -0.0606 -0.5414  0.3958
29075SOL    HW287804   0.965   4.350   0.319 -0.8050 -0.8729  1.0524
29076SOL     OW87805   1.783   0.084   8.512 -0.4285 -0.5876  0.2242
29076SOL    HW187806   1.709   0.104   8.569 -1.4065 -0.0389 -1.1751
29076SOL    HW287807   1.839   0.161   8.518 -0.9542 -0.1606 -0.1821
29077SOL     OW87808   1.841   2.207   5.274 -0.1258  0.3713 -0.1868
29077SOL    HW187809   1.893   2.281   5.245  0.7584 -0.1925 -0.0758
29077SOL    HW287810   1.860   2.137   5.211 -0.2230 -0.0471  0.2401
29078SOL     OW87811   7.552   7.744   5.723 -0.5898 -0.2024  0.1499
29078SOL    HW187812   7.643   7.716   5.733 -0.7520  0.0413  3.4168
29078SOL    HW287813   7.500   7.666   5.743 -1.1463 -0.2755 -1.4472
29079SOL     OW87814   5.248   9.161   5.130  0.2672  0.0927  0.3710
29079SOL    HW187815   5.188   9.212   5.184  0.0954 -0.3637  0.6223
29079SOL    HW287816   5.322   9.141   5.188  0.5412  0.4322  0.1413
29080SOL     OW87817   9.580   8.753   8.923 -0.2497  0.2070 -0.4898
29080SOL    HW187818   9.518   8.690   8.959  0.3358  0.0902  0.3569
29080SOL    HW287819   9.645   8.698   8.878 -0.6388  0.3148 -1.1861
29081SOL     OW87820   8.848   4.231   9.498  0.3516  0.0696  0.1369
29081SOL    HW187821   8.797   4.251   9.419  0.9627  0.9439 -0.0575
29081SOL    HW287822   8.939   4.233   9.468  0.6239  0.9468  0.9685
29082SOL     OW87823   7.678   7.562   8.945  0.5254  0.3312 -0.0488
29082SOL    HW187824   7.725   7.590   8.866  1.1527 -0.9223 -0.1390
29082SOL    HW287825   7.606   7.624   8.952  0.7934  0.8279 -1.2763
29083SOL     OW87826   4.432   5.360   1.893  0.6418 -0.0100  0.3676
29083SOL    HW187827   4.464   5.273   1.872  1.1341 -0.3285  2.1956
29083SOL    HW287828   4.479   5.384   1.974 -0.0673  1.6082  0.3506
29084SOL     OW87829   2.982   4.432   7.153  0.1523  0.1580  0.2919
29084SOL    HW187830   2.923   4.363   7.181  2.3227 -2.8892 -2.0046
29084SOL    HW287831   2.943   4.467   7.073 -0.7114  1.3613  1.2046
29085SOL     OW87832   0.947   5.565   3.748 -0.4420 -0.5835 -0.3046
29085SOL    HW187833   0.868   5.543   3.698  0.7230 -0.8654 -2.1109
29085SOL    HW287834   1.016   5.510   3.710  0.7653  0.1110  0.7984
29086SOL     OW87835   3.321   2.080   1.275  0.4729  0.0894  0.7776
29086SOL    HW187836   3.290   2.007   1.329  0.9373 -0.0478  0.8666
29086SOL    HW287837   3.345   2.148   1.337  0.5492  0.1149  0.7210
29087SOL     OW87838   5.458   4.569   0.166 -0.1215  0.4066  0.8433
29087SOL    HW187839   5.384   4.629   0.158  0.2291  0.6778 -0.8951
29087SOL    HW287840   5.428   4.489   0.121  0.2379  0.1179  1.1096
29088SOL     OW87841   4.990   9.589   9.462 -0.4442  0.8119  0.0597
29088SOL    HW187842   5.022   9.547   9.541  0.7548  1.0904 -0.2564
29088SOL    HW287843   4.934   9.660   9.493  1.5094  2.1311  0.7577
29089SOL     OW87844   9.551   2.025   5.300  0.3683  0.0068  0.0692
29089SOL    HW187845   9.537   2.118   5.283 -0.0889 -0.0872 -0.0702
29089SOL    HW287846   9.468   1.983   5.278  0.8368 -0.5489 -0.6733
29090SOL     OW87847   3.492   3.470   0.445 -0.1329 -0.0045  0.0130
29090SOL    HW187848   3.421   3.532   0.426 -1.2609 -0.3937  2.6178
29090SOL    HW287849   3.572   3.516   0.417 -1.2701  0.6784 -2.4412
29091SOL     OW87850   0.313   9.093   3.893  0.5149  0.8641 -0.4515
29091SOL    HW187851   0.259   9.166   3.861  0.2486  0.0971 -1.8326
29091SOL    HW287852   0.371   9.133   3.957  0.6868  2.3891 -1.5005
29092SOL     OW87853   2.894   6.885   9.041  0.1801 -0.4952  0.3013
29092SOL    HW187854   2.979   6.928   9.037 -0.8877  1.6354 -0.8959
29092SOL    HW287855   2.906   6.815   9.106  2.0342  1.5624  2.3578
29093SOL     OW87856   6.783   5.076   4.857  0.2685  0.3803 -0.2848
29093SOL    HW187857   6.722   5.141   4.892  0.2127 -0.1496  0.6475
29093SOL    HW287858   6.800   5.017   4.931  1.2340  0.0182 -0.7699
29094SOL     OW87859   7.196   2.231   0.719  0.9321  0.4894 -0.4297
29094SOL    HW187860   7.264   2.213   0.785  1.6475 -0.2832 -1.3539
29094SOL    HW287861   7.146   2.149   0.714  1.4146  0.2490 -1.4542
29095SOL     OW87862   3.152   7.585   4.259  0.0985 -0.3071 -0.2110
29095SOL    HW187863   3.150   7.497   4.223 -0.1884 -0.2048 -0.4484
29095SOL    HW287864   3.069   7.624   4.232 -0.0156 -0.1464  0.3503
29096SOL     OW87865   2.340   5.569   0.067 -0.1009 -0.8722 -0.2586
29096SOL    HW187866   2.312   5.659   0.053 -1.4314 -1.6080 -2.9398
29096SOL    HW287867   2.264   5.525   0.105 -0.2446 -1.3386 -1.0622
29097SOL     OW87868   6.217   8.880   3.015  0.0726  0.1879 -0.1060
29097SOL    HW187869   6.236   8.844   3.102 -0.0921  1.6803  0.5669
29097SOL    HW287870   6.132   8.842   2.993  0.9540 -1.6798 -0.4648
29098SOL     OW87871   4.439   6.705   1.482 -0.3078  0.3589  0.0607
29098SOL    HW187872   4.486   6.667   1.408 -0.3763  0.0610  0.1686
29098SOL    HW287873   4.435   6.635   1.547 -1.5564  0.1225 -0.2389
29099SOL     OW87874   1.802   0.161   7.197 -0.0662 -0.4105 -0.2023
29099SOL    HW187875   1.805   0.148   7.292  1.5274  0.6776 -0.0638
29099SOL    HW287876   1.811   0.072   7.161 -0.2358 -0.7909  0.6559
29100SOL     OW87877   5.676   0.510   6.870  0.9205 -0.1004  0.0241
29100SOL    HW187878   5.582   0.521   6.857  1.2299  1.4611 -1.1098
29100SOL    HW287879   5.688   0.518   6.965  0.1136  1.6670  0.0126
29101SOL     OW87880   6.945   8.075   8.786 -0.2859  0.5715 -0.0351
29101SOL    HW187881   7.022   8.035   8.825  0.2081  0.9219 -0.6375
29101SOL    HW287882   6.974   8.105   8.700 -1.6404 -1.2503 -1.2176
29102SOL     OW87883   1.088   0.900   6.383 -0.2362 -0.5325 -0.0677
29102SOL    HW187884   1.113   0.909   6.291  0.4448  2.1182  0.3135
29102SOL    HW287885   1.162   0.856   6.424  0.5694  0.5579 -0.3311
29103SOL     OW87886   8.326   5.717   5.439 -0.0779  0.0361  0.5404
29103SOL    HW187887   8.358   5.807   5.435  0.7366 -0.2763 -0.6431
29103SOL    HW287888   8.405   5.665   5.458 -0.1410 -0.6042 -0.8339
29104SOL     OW87889   2.029   9.364   2.728 -0.1561  0.2030 -0.0504
29104SOL    HW187890   2.009   9.405   2.644 -0.4156 -0.8584 -0.5321
29104SOL    HW287891   2.044   9.272   2.706 -0.0931 -0.0639  1.0535
29105SOL     OW87892   9.899   7.519   7.303  0.1721  0.0422  0.4146
29105SOL    HW187893   9.912   7.464   7.380  2.9654 -0.6150 -0.4176
29105SOL    HW287894   9.806   7.510   7.282  0.2366 -3.4565  1.0330
29106SOL     OW87895   8.635   6.123   1.480 -0.1404 -0.3779 -0.5520
29106SOL    HW187896   8.660   6.213   1.498 -0.8991  0.3610 -2.8278
29106SOL    HW287897   8.589   6.094   1.559  0.5735  1.0188  0.4114
29107SOL     OW87898   6.935   4.795   5.552  0.1755  0.2474 -0.4126
29107SOL    HW187899   6.979   4.857   5.611 -2.0025  0.5413  1.0417
29107SOL    HW287900   7.001   4.728   5.534  1.3882  0.9499  1.1693
29108SOL     OW87901   6.459   2.261   0.642  0.0101 -0.0060  0.0015
29108SOL    HW187902   6.480   2.329   0.707 -2.2710  0.4751  0.3359
29108SOL    HW287903   6.536   2.205   0.640  1.2819  1.5995  1.0124
29109SOL     OW87904   7.829   6.342   3.141 -0.4639 -0.1098  0.5232
29109SOL    HW187905   7.916   6.346   3.179  0.0828 -0.9015 -0.5755
29109SOL    HW287906   7.843   6.314   3.051 -1.9586 -2.3931  0.8888
29110SOL     OW87907   3.058   6.245   3.051  0.5844  0.1697 -0.0869
29110SOL    HW187908   3.064   6.229   3.145  0.4316  2.0765  0.2965
29110SOL    HW287909   3.078   6.338   3.041 -2.1658  0.7147 -1.6094
29111SOL     OW87910   3.733   4.860   5.238  0.4062  0.6365  0.3373
29111SOL    HW187911   3.653   4.879   5.190  0.1090 -1.7230 -0.2115
29111SOL    HW287912   3.804   4.887   5.179  0.0471  1.9627  0.4885
29112SOL     OW87913   2.082   5.857   8.079 -0.1376  0.1911 -0.9950
29112SOL    HW187914   1.987   5.865   8.068 -0.6083 -2.3773  0.3568
29112SOL    HW287915   2.115   5.830   7.994 -1.0925 -1.7570 -0.7969
29113SOL     OW87916   5.573   1.844   4.903  0.4800 -0.2165 -0.2819
29113SOL    HW187917   5.538   1.813   4.986  1.0114  0.1980  0.1005
29113SOL    HW287918   5.652   1.892   4.926  1.1192 -0.8401 -1.1082
29114SOL     OW87919   5.059   3.426   2.273 -0.1185 -0.4425  0.2673
29114SOL    HW187920   5.089   3.337   2.288  1.5769 -0.3087 -1.8740
29114SOL    HW287921   5.140   3.477   2.264 -1.0391  0.9323 -0.5435
29115SOL     OW87922   9.013   4.834   7.226 -0.0034 -0.2726  0.2419
29115SOL    HW187923   8.936   4.796   7.184 -0.2541 -0.3577  0.7685
29115SOL    HW287924   9.079   4.765   7.223  0.1533 -0.1006 -0.4697
29116SOL     OW87925   8.119   2.042   4.678  0.9476  0.4254  0.3118
29116SOL    HW187926   8.166   2.022   4.759  0.7920 -2.4440 -0.2035
29116SOL    HW287927   8.180   2.093   4.626  1.7113  0.7714  1.5067
29117SOL     OW87928   4.038   9.897   0.393  0.1292 -0.6107 -0.5940
29117SOL    HW187929   3.979   9.841   0.343 -0.8431  1.2532 -1.6368
29117SOL    HW287930   4.078   9.955   0.328  0.0181  0.8418  0.5736
29118SOL     OW87931   5.275   9.171   2.701  0.5924 -0.1920 -0.0093
29118SOL    HW187932   5.245   9.217   2.622  1.6722  0.9793  0.2224
29118SOL    HW287933   5.198   9.124   2.732 -0.3946  0.9385 -0.6429
29119SOL     OW87934   1.521   9.812   8.334  0.1951 -0.3556  0.7082
29119SOL    HW187935   1.568   9.893   8.315 -1.9792  0.9753  0.6449
29119SOL    HW287936   1.461   9.835   8.405 -0.6119 -1.8622  0.5639
29120SOL     OW87937   4.311   4.564   5.142  0.4819 -0.2179 -0.5157
29120SOL    HW187938   4.221   4.535   5.156  0.5958  0.7867  3.6418
29120SOL    HW287939   4.305   4.633   5.076 -2.0351  0.8136  0.6920
29121SOL     OW87940   1.761   6.932   1.371 -0.4139  0.4929 -0.5001
29121SOL    HW187941   1.736   7.011   1.418  1.1399  0.1763  0.9509
29121SOL    HW287942   1.715   6.861   1.416  1.1642  0.1759  0.6825
29122SOL     OW87943   6.120   4.541   8.140 -0.0669  0.0828  0.5909
29122SOL    HW187944   6.085   4.626   8.168 -2.8240 -0.6723 -0.3061
29122SOL    HW287945   6.199   4.530   8.192 -0.7577  2.2594  2.2584
29123SOL     OW87946   1.650   3.688   2.009 -0.1412 -0.1113 -0.3457
29123SOL    HW187947   1.650   3.764   1.951 -1.2317 -1.0848 -1.6710
29123SOL    HW287948   1.686   3.721   2.092 -0.8826  1.9058 -0.7822
29124SOL     OW87949   9.925   1.199   8.775  1.1345 -0.1724  0.0996
29124SOL    HW187950   9.966   1.192   8.861 -0.2369 -0.3565  0.7661
29124SOL    HW287951   9.869   1.277   8.781 -2.9510 -2.8847  1.2226
29125SOL     OW87952   7.662   6.114   7.875 -0.3910  0.1217  0.1215
29125SOL    HW187953   7.579   6.152   7.846  0.4290  0.3717 -2.1563
29125SOL    HW287954   7.650   6.020   7.864 -0.4498  0.1464 -0.0349
29126SOL     OW87955   9.156   6.962   7.063 -0.4136 -0.0591 -0.3036
29126SOL    HW187956   9.133   6.951   6.971  0.8184  0.9580 -0.7547
29126SOL    HW287957   9.187   7.053   7.069 -1.8025  0.3688  1.4042
29127SOL     OW87958   7.954   6.984   1.887  0.0293 -0.5035  0.2674
29127SOL    HW187959   7.879   6.927   1.869 -1.1515  0.7290  1.0726
29127SOL    HW287960   7.952   6.997   1.982  0.7113  0.2764  0.1853
29128SOL     OW87961   3.490   0.028   6.989  0.0937 -0.2415 -0.2029
29128SOL    HW187962   3.444   0.112   6.993  0.6516  0.1525 -1.3157
29128SOL    HW287963   3.548   0.028   7.065 -0.6604 -0.0891  0.3803
29129SOL     OW87964   4.183   0.939   0.070 -0.0375 -0.3129 -0.3269
29129SOL    HW187965   4.171   0.848   0.042 -1.2946 -0.0507 -0.7049
29129SOL    HW287966   4.114   0.954   0.134  2.0446 -0.5242  2.1145
29130SOL     OW87967   1.345   9.668   9.394 -0.0117 -0.5504  0.8730
29130SOL    HW187968   1.288   9.703   9.463  1.0729 -0.3191  1.6829
29130SOL    HW287969   1.285   9.622   9.335 -1.2452  1.0151  0.8197
29131SOL     OW87970   6.898   7.793   3.607  0.1637  0.5973  0.3968
29131SOL    HW187971   6.932   7.875   3.569  0.8307  0.0138 -0.3054
29131SOL    HW287972   6.947   7.724   3.562  0.3413 -0.1610  1.7085
29132SOL     OW87973   3.961   9.750   2.358  0.0439  0.3856 -0.4517
29132SOL    HW187974   3.898   9.752   2.430 -0.9747  0.0039 -1.3127
29132SOL    HW287975   3.958   9.838   2.321  0.0571  0.3823 -0.4606
29133SOL     OW87976   1.262   9.672   6.545 -0.3098  0.1538 -0.4702
29133SOL    HW187977   1.295   9.673   6.454 -0.7023  0.8260 -0.6054
29133SOL    HW287978   1.295   9.589   6.580  1.3724  0.6868 -0.6649
29134SOL     OW87979   4.826   6.218   2.784 -0.1222  0.1833  0.3154
29134SOL    HW187980   4.764   6.147   2.768 -0.1096  0.1167  0.5582
29134SOL    HW287981   4.911   6.181   2.760 -0.2237  0.4178 -0.4449
29135SOL     OW87982   6.160   0.666   1.345 -0.8082  0.2275 -0.5086
29135SOL    HW187983   6.102   0.653   1.421 -2.3783 -0.1886 -1.7224
29135SOL    HW287984   6.224   0.730   1.375  0.2966 -1.8718  2.0479
29136SOL     OW87985   0.676   1.331   9.958 -0.0009  0.5481  0.4161
29136SOL    HW187986   0.738   1.266   9.925  0.4690  0.9630  0.4805
29136SOL    HW287987   0.645   1.296  10.041  0.2886  0.4329  0.4733
29137SOL     OW87988   1.576   4.881   0.721 -0.1469 -0.3083 -0.4961
29137SOL    HW187989   1.542   4.799   0.687  0.7988 -0.5624 -0.8664
29137SOL    HW287990   1.608   4.928   0.644  2.5394 -1.1367 -0.0026
29138SOL     OW87991   3.220   2.295   3.001 -0.1999 -0.0723 -0.2599
29138SOL    HW187992   3.293   2.348   2.971  0.4097 -1.0584 -0.5819
29138SOL    HW287993   3.248   2.260   3.085 -0.4668 -0.1352 -0.1949
29139SOL     OW87994   6.173   1.898   5.245 -0.1414  0.1287 -0.2172
29139SOL    HW187995   6.207   1.814   5.275 -1.3750 -0.9894 -1.7634
29139SOL    HW287996   6.223   1.916   5.165 -1.1843 -0.1141 -0.9369
29140SOL     OW87997   8.267   4.050   8.161 -0.1887 -0.0811 -0.4892
29140SOL    HW187998   8.324   4.064   8.085 -1.6880 -0.3077 -1.6983
29140SOL    HW287999   8.184   4.020   8.124 -0.3923 -2.0433  1.3596
29141SOL     OW88000   0.824   1.217   8.582 -0.4898 -0.0554  0.1756
29141SOL    HW188001   0.885   1.248   8.515 -0.5498  0.2493  0.2604
29141SOL    HW288002   0.880   1.181   8.650 -0.3924  0.4789  0.3796
29142SOL     OW88003   7.514   6.468   8.375  0.4062 -0.0513  0.0907
29142SOL    HW188004   7.553   6.445   8.459  1.0720 -0.6466 -0.3681
29142SOL    HW288005   7.424   6.492   8.396 -0.6560 -3.8665  0.5642
29143SOL     OW88006   9.292   5.470   4.166  0.0731 -0.1415  0.1702
29143SOL    HW188007   9.294   5.556   4.209  0.1108 -0.9318  1.8422
29143SOL    HW288008   9.312   5.408   4.236  0.3084 -1.5051 -1.0608
29144SOL     OW88009   7.593   7.384   2.860 -0.4416 -0.0221 -0.4636
29144SOL    HW188010   7.517   7.438   2.838 -0.1112  1.3355  1.4883
29144SOL    HW288011   7.669   7.437   2.833 -0.1408 -0.0184  0.3518
29145SOL     OW88012   6.635   0.637   5.140  0.0492  0.1577 -0.1956
29145SOL    HW188013   6.651   0.594   5.056 -1.6628 -1.7588  0.3883
29145SOL    HW288014   6.624   0.566   5.202 -0.1992  1.5103  1.3841
29146SOL     OW88015   7.006   1.920   9.442  0.3536  0.0498 -0.2602
29146SOL    HW188016   6.921   1.931   9.399  0.5060  0.2915 -0.5121
29146SOL    HW288017   6.985   1.902   9.533 -0.0275 -2.1493 -0.7234
29147SOL     OW88018   0.234   7.291   6.065  0.4622  0.1049 -0.2050
29147SOL    HW188019   0.163   7.228   6.073 -0.7093  1.3949 -0.0307
29147SOL    HW288020   0.287   7.259   5.993  0.9992 -2.0832  1.0794
29148SOL     OW88021   0.344   7.795   1.008  0.1230 -0.5700  0.2895
29148SOL    HW188022   0.365   7.763   0.920 -2.4245 -0.8202 -0.3180
29148SOL    HW288023   0.376   7.885   1.009 -1.6667  0.1778 -1.7355
29149SOL     OW88024   4.589   7.073   4.448  0.4661 -0.1465 -0.1967
29149SOL    HW188025   4.669   7.032   4.414  0.8178 -0.8568  1.3795
29149SOL    HW288026   4.555   7.124   4.375  0.7525 -2.1725 -1.8194
29150SOL     OW88027   5.301   6.265   1.782  0.2735  0.3676 -0.3992
29150SOL    HW188028   5.263   6.192   1.832 -1.5441  0.6133 -1.3297
29150SOL    HW288029   5.318   6.228   1.695  0.2636  0.7928 -0.5849
29151SOL     OW88030   1.282   4.121   3.201  0.1331 -0.2920 -0.8898
29151SOL    HW188031   1.287   4.216   3.190 -0.4781 -0.3049 -1.3265
29151SOL    HW288032   1.330   4.085   3.126  0.3504 -0.3346 -0.7337
29152SOL     OW88033   6.806   9.237   6.482  0.5143  0.0185  0.0643
29152SOL    HW188034   6.758   9.268   6.560 -1.5502 -1.2620 -0.6153
29152SOL    HW288035   6.792   9.305   6.417  1.4923  0.6654  0.5021
29153SOL     OW88036   4.385   5.655   3.055  0.2170 -0.3196  0.5686
29153SOL    HW188037   4.442   5.682   3.127  1.2164  0.9626 -0.6600
29153SOL    HW288038   4.444   5.620   2.989 -0.4493  0.4605 -0.4806
29154SOL     OW88039   3.191   4.745   0.288 -0.2656  0.1739 -0.0465
29154SOL    HW188040   3.225   4.660   0.258 -1.0971  0.2769 -1.3046
29154SOL    HW288041   3.158   4.727   0.376  1.3025 -0.3590  0.4697
29155SOL     OW88042   0.892   6.912   8.659  0.4121 -0.1963 -0.1863
29155SOL    HW188043   0.797   6.917   8.665  0.5313  1.6663  0.8798
29155SOL    HW288044   0.920   7.002   8.640  2.0124 -0.5110  0.4966
29156SOL     OW88045   3.218   9.975   6.728 -0.1166 -0.6577 -0.0907
29156SOL    HW188046   3.283   9.914   6.692  1.4012 -1.1144  3.0250
29156SOL    HW288047   3.149   9.918   6.762 -0.6506 -0.3503 -0.6441
29157SOL     OW88048   1.842   7.089   8.694  0.1675  0.0118  0.1442
29157SOL    HW188049   1.826   7.162   8.754  0.0466 -0.2488  0.4314
29157SOL    HW288050   1.889   7.129   8.621 -0.5180  0.5114 -0.0391
29158SOL     OW88051   5.271   3.210   9.212 -0.1649  0.1076  0.3878
29158SOL    HW188052   5.284   3.285   9.154 -2.3850 -0.4370 -0.9180
29158SOL    HW288053   5.337   3.147   9.183  0.1868  0.6737 -0.0804
29159SOL     OW88054   9.549   5.596   4.369 -0.0488  0.0279 -0.5431
29159SOL    HW188055   9.537   5.679   4.414 -0.0621 -0.8849  1.2350
29159SOL    HW288056   9.580   5.619   4.282  1.3969  1.8352  0.3922
29160SOL     OW88057   9.101   0.258   1.608  1.0683  0.6770 -0.1770
29160SOL    HW188058   9.146   0.280   1.526  1.1879  0.0756 -0.2751
29160SOL    HW288059   9.056   0.339   1.633  0.9216  0.8308 -0.9095
29161SOL     OW88060   5.618   7.470   4.042  0.1698  0.7189 -0.2965
29161SOL    HW188061   5.613   7.418   4.123  1.2926  0.6074 -0.2890
29161SOL    HW288062   5.680   7.423   3.987 -0.3149  0.9910 -1.0994
29162SOL     OW88063   7.328   2.105   4.296 -0.0885  0.4369 -0.2653
29162SOL    HW188064   7.254   2.113   4.236 -0.6954 -0.3377  0.3622
29162SOL    HW288065   7.312   2.171   4.363  0.3398  0.9759 -0.6859
29163SOL     OW88066   1.903   0.541   3.265 -0.2334 -0.3431  0.2770
29163SOL    HW188067   1.824   0.564   3.217  0.6117  1.8171 -0.2089
29163SOL    HW288068   1.876   0.539   3.357 -0.8222  0.6427  0.1366
29164SOL     OW88069   0.696   1.346   6.440  0.2471  0.1400  0.2928
29164SOL    HW188070   0.727   1.436   6.450 -0.5511  0.4372  0.1833
29164SOL    HW288071   0.627   1.338   6.506  0.4961 -0.4779  0.4802
29165SOL     OW88072   2.954   6.337   0.108  0.0180 -0.2112 -0.5572
29165SOL    HW188073   2.972   6.416   0.056 -2.4618 -0.3072 -1.7361
29165SOL    HW288074   2.900   6.368   0.180  0.5236 -0.5864 -0.0169
29166SOL     OW88075   6.120   2.484   7.591 -0.0465 -0.0377  0.2596
29166SOL    HW188076   6.077   2.414   7.543  0.4967 -0.2274  0.0372
29166SOL    HW288077   6.065   2.499   7.667 -0.5497 -0.2098 -0.0664
29167SOL     OW88078   5.196   0.547   9.267 -0.6987 -0.4228 -0.7546
29167SOL    HW188079   5.193   0.589   9.181  0.6376  0.1521 -0.5492
29167SOL    HW288080   5.169   0.456   9.250 -0.6568 -0.2647 -1.7466
29168SOL     OW88081   6.210   6.266   5.132 -0.3711  0.1645  0.1049
29168SOL    HW188082   6.156   6.293   5.207 -0.9640 -3.0748  0.9926
29168SOL    HW288083   6.298   6.297   5.154 -0.5090 -0.7839  2.2495
29169SOL     OW88084   5.209   6.886   3.246  0.5429  0.3687 -0.2583
29169SOL    HW188085   5.255   6.970   3.242 -0.3392  0.9263  0.8340
29169SOL    HW288086   5.251   6.840   3.318 -0.7272  0.9923  0.9289
29170SOL     OW88087   2.021   1.936   6.401 -0.2674  0.0499 -0.2610
29170SOL    HW188088   2.049   2.026   6.418  1.0836 -0.5696  1.0069
29170SOL    HW288089   2.093   1.897   6.352 -1.0520 -0.2368 -1.2312
29171SOL     OW88090   5.970   9.544   7.710 -0.3814 -0.5802 -0.3883
29171SOL    HW188091   6.061   9.548   7.739 -0.6402  0.0929  0.3598
29171SOL    HW288092   5.957   9.452   7.684  0.5509 -0.6427 -0.6775
29172SOL     OW88093   5.931   9.166   1.494  0.3682 -0.0156  0.4305
29172SOL    HW188094   5.885   9.175   1.411 -0.8151  0.6654  1.1360
29172SOL    HW288095   5.952   9.073   1.500 -0.2390 -0.2047 -0.2550
29173SOL     OW88096   9.433   8.570   7.143  0.8279  0.3285 -0.5988
29173SOL    HW188097   9.479   8.596   7.063  0.3577 -1.7078 -1.6054
29173SOL    HW288098   9.374   8.643   7.162  1.0181  0.8952 -2.0774
29174SOL     OW88099   9.751   7.015   6.363  0.1861 -0.2546 -0.2396
29174SOL    HW188100   9.715   6.956   6.429  0.1286 -0.6921 -0.6592
29174SOL    HW288101   9.751   7.101   6.405  0.6051 -0.6094  0.5018
29175SOL     OW88102   1.968   1.285   9.015 -0.0422 -0.1013  0.0847
29175SOL    HW188103   1.944   1.193   9.023  0.9998 -0.3178  1.0344
29175SOL    HW288104   1.952   1.307   8.923  0.7577 -1.5396 -0.4213
29176SOL     OW88105   2.992   7.480   2.932 -0.3246 -0.2751 -0.3349
29176SOL    HW188106   3.030   7.434   2.857  2.3026 -0.0169  0.7509
29176SOL    HW288107   3.027   7.434   3.008  2.2866  3.2003  0.8269
29177SOL     OW88108   6.945   0.118   5.918 -0.1895  0.3669 -0.0282
29177SOL    HW188109   7.021   0.163   5.954 -0.3321  0.7915 -0.2490
29177SOL    HW288110   6.889   0.100   5.994  0.1555 -0.0077  0.1442
29178SOL     OW88111   8.282   9.852   7.209  0.1266 -0.3592 -0.1944
29178SOL    HW188112   8.314   9.942   7.221  0.1372 -0.2191 -1.1819
29178SOL    HW288113   8.278   9.816   7.298 -0.9115  0.9654  0.3364
29179SOL     OW88114   8.556   1.657   0.525  0.1851  0.1155 -0.0304
29179SOL    HW188115   8.505   1.703   0.458  1.8285  0.7403 -0.9028
29179SOL    HW288116   8.513   1.572   0.533  0.1748 -0.1555 -2.2366
29180SOL     OW88117   0.357   3.259   2.585 -0.4609 -0.3390 -0.1550
29180SOL    HW188118   0.263   3.256   2.606 -0.3179 -1.1987  0.3820
29180SOL    HW288119   0.377   3.172   2.550  0.0654 -0.0419 -0.6137
29181SOL     OW88120   7.023   4.163   1.254 -0.2676 -0.0320  0.3047
29181SOL    HW188121   6.934   4.149   1.222 -0.1217 -2.4890  0.7332
29181SOL    HW288122   7.014   4.171   1.349 -0.0576 -0.0756  0.3296
29182SOL     OW88123   9.253   6.379   6.564  0.8186 -0.1612  0.5053
29182SOL    HW188124   9.311   6.369   6.640  0.9436 -2.7663  0.1541
29182SOL    HW288125   9.304   6.346   6.490 -0.7208 -1.6211  0.0270
29183SOL     OW88126   3.642   5.320   8.403 -0.1540  0.1744 -0.3541
29183SOL    HW188127   3.693   5.251   8.362 -0.9992 -0.3486 -0.5527
29183SOL    HW288128   3.643   5.300   8.497  0.1223  0.2499 -0.3408
29184SOL     OW88129   9.012   7.830   0.702  0.1684 -0.1925 -0.1338
29184SOL    HW188130   9.023   7.835   0.797 -1.6360 -0.8685  0.1552
29184SOL    HW288131   8.943   7.765   0.689 -1.4838  1.7222 -1.7297
29185SOL     OW88132   4.615   6.078   1.966 -0.0175  0.1673  0.0914
29185SOL    HW188133   4.648   6.163   1.993  0.3051 -0.2254  0.9934
29185SOL    HW288134   4.542   6.061   2.026  0.3284 -0.4634  0.3404
29186SOL     OW88135   5.839   1.006   5.134 -0.1606 -0.1311  0.4989
29186SOL    HW188136   5.829   1.005   5.039 -2.5239 -0.5673  0.6990
29186SOL    HW288137   5.763   1.056   5.165  2.1022  2.6529  2.0615
29187SOL     OW88138   5.193   4.735   4.088 -0.2794 -0.2025  0.2621
29187SOL    HW188139   5.268   4.739   4.148 -1.2889  0.4065  1.5353
29187SOL    HW288140   5.181   4.642   4.070  2.1277 -0.2288 -1.7853
29188SOL     OW88141   6.278   1.664   5.338  0.2394 -0.2645  0.4367
29188SOL    HW188142   6.372   1.649   5.345  0.3907  0.9167  1.1927
29188SOL    HW288143   6.238   1.581   5.364  1.0619 -0.6880  0.3837
29189SOL     OW88144   6.356   4.374   0.845 -0.2516  0.1363  0.0200
29189SOL    HW188145   6.448   4.401   0.836 -0.0515 -0.3298  0.5862
29189SOL    HW288146   6.306   4.449   0.814  0.2121  2.0851  3.5125
29190SOL     OW88147   8.516   7.454   4.361  0.2773  0.6536 -0.2855
29190SOL    HW188148   8.511   7.532   4.416 -0.0305  1.4360 -1.3989
29190SOL    HW288149   8.578   7.397   4.407  1.1197  1.8687  0.1537
29191SOL     OW88150   8.017   9.768   3.523 -0.4112  0.0429 -0.1088
29191SOL    HW188151   8.050   9.803   3.605 -0.0167 -1.9663  0.6268
29191SOL    HW288152   8.090   9.775   3.462 -0.1134 -0.1618  0.2271
29192SOL     OW88153   6.786   2.929   6.765  0.0159  0.3183  0.2168
29192SOL    HW188154   6.865   2.982   6.755 -0.0173  0.4411  0.6070
29192SOL    HW288155   6.807   2.847   6.721  0.2624  0.4529  0.0797
29193SOL     OW88156   9.667   8.780   9.730 -0.0109  0.6163 -0.2688
29193SOL    HW188157   9.579   8.816   9.724 -0.9103 -1.5217 -0.8563
29193SOL    HW288158   9.656   8.687   9.711  2.2721  0.1460  0.4250
29194SOL     OW88159   6.532   2.583   0.623  0.4346  0.3505 -0.5317
29194SOL    HW188160   6.616   2.559   0.584  0.8011  0.8894 -0.0945
29194SOL    HW288161   6.466   2.542   0.567  1.0233 -1.6211  0.1496
29195SOL     OW88162   0.180   6.360   9.575  0.0069  0.0654 -0.1825
29195SOL    HW188163   0.151   6.332   9.661  1.8433  1.1013  0.8406
29195SOL    HW288164   0.198   6.279   9.527 -0.1990 -0.5086  0.6934
29196SOL     OW88165   3.937   4.435   1.847  0.0946 -0.2633  0.0316
29196SOL    HW188166   3.912   4.516   1.803 -0.2106 -0.4974 -0.2239
29196SOL    HW288167   4.023   4.413   1.811  1.3514  1.2504  1.8554
29197SOL     OW88168   2.721   5.687   6.160 -0.6498 -0.1679 -0.1344
29197SOL    HW188169   2.711   5.706   6.067  0.0414  1.2957  0.0610
29197SOL    HW288170   2.678   5.761   6.204  0.6213  0.1205  0.6862
29198SOL     OW88171   2.662   8.945   5.137  0.0405 -0.6893  0.3166
29198SOL    HW188172   2.691   9.010   5.074  1.0416  0.0418  1.4974
29198SOL    HW288173   2.615   8.995   5.204 -3.4181 -1.7343 -1.1171
29199SOL     OW88174   7.559   4.333   7.544 -0.3174  0.1859  0.1998
29199SOL    HW188175   7.636   4.309   7.492 -0.4536 -1.4682  0.7315
29199SOL    HW288176   7.554   4.267   7.612 -0.1121  2.3122  2.4279
29200SOL     OW88177   9.695   1.777   4.906 -0.2882  0.0569  0.3105
29200SOL    HW188178   9.677   1.871   4.909  1.1820  0.3644  0.0176
29200SOL    HW288179   9.622   1.738   4.955 -1.1749  1.2921  0.0362
29201SOL     OW88180   3.762   4.434   2.310  0.2040  0.1335 -0.3168
29201SOL    HW188181   3.724   4.519   2.335  0.2928 -0.1544  0.8379
29201SOL    HW288182   3.837   4.457   2.256  1.0585  0.8738  1.1140
29202SOL     OW88183   9.488   1.727   3.455 -0.0385  0.1680  0.0137
29202SOL    HW188184   9.527   1.681   3.380 -3.3101 -0.5099 -1.4699
29202SOL    HW288185   9.490   1.663   3.526 -1.1542 -0.9876 -0.9436
29203SOL     OW88186   6.839   4.501   7.995 -0.4806 -0.0503 -0.2400
29203SOL    HW188187   6.872   4.471   8.080 -0.6564  0.6876  0.1036
29203SOL    HW288188   6.913   4.549   7.957  0.4037 -2.3285 -1.5640
29204SOL     OW88189   9.437   3.067   9.201 -0.2208  0.0890  0.3094
29204SOL    HW188190   9.418   3.150   9.158  1.2395 -0.0603 -0.7040
29204SOL    HW288191   9.532   3.059   9.198 -0.3615 -2.0900 -0.5896
29205SOL     OW88192   5.336   9.808   4.731 -0.1415 -0.6387  0.0271
29205SOL    HW188193   5.347   9.737   4.668  0.5104  0.3659 -1.0547
29205SOL    HW288194   5.286   9.874   4.682  2.5399  1.2393 -0.4013
29206SOL     OW88195   8.652   1.610   1.994 -0.4254 -0.3774  0.3151
29206SOL    HW188196   8.587   1.680   1.991 -0.0110 -0.0196 -0.5903
29206SOL    HW288197   8.603   1.533   2.023 -1.5116 -0.3787 -1.4020
29207SOL     OW88198   7.685   7.297   2.519  0.5260  0.3101  0.9012
29207SOL    HW188199   7.699   7.391   2.509 -0.4900  0.4777  0.9272
29207SOL    HW288200   7.627   7.289   2.595 -0.0871 -0.2679  0.3887
29208SOL     OW88201   2.465   4.972   4.208 -0.0854  0.0655 -0.1260
29208SOL    HW188202   2.421   5.024   4.275  2.2773  0.0231  1.5868
29208SOL    HW288203   2.449   4.881   4.235 -1.5476 -0.0625 -1.3173
29209SOL     OW88204   0.930   6.020   5.783 -0.0648 -0.0994  0.1860
29209SOL    HW188205   0.910   5.932   5.752  0.5687 -0.4663  0.7855
29209SOL    HW288206   0.999   6.051   5.724 -1.1011  0.4542 -0.7476
29210SOL     OW88207   5.876   9.138   4.768  0.1310  0.3768 -0.7904
29210SOL    HW188208   5.961   9.177   4.789  1.0141 -0.2728 -2.8832
29210SOL    HW288209   5.816   9.213   4.762  0.7126  0.9213 -0.0540
29211SOL     OW88210   6.600   9.205   3.752  0.4022 -0.1020  0.0447
29211SOL    HW188211   6.636   9.293   3.767 -0.3884  0.5356 -1.6015
29211SOL    HW288212   6.512   9.209   3.789  1.0640 -0.9173  1.8785
29212SOL     OW88213   6.723   8.027   4.338  1.0597  0.2819 -0.2756
29212SOL    HW188214   6.751   8.119   4.340  1.4130  0.1651  0.3438
29212SOL    HW288215   6.634   8.029   4.373  0.6026  0.5299 -1.3748
29213SOL     OW88216   7.403   0.539   0.869 -0.3551  0.4744  0.1985
29213SOL    HW188217   7.334   0.473   0.878 -0.7372  0.7710 -0.5029
29213SOL    HW288218   7.358   0.622   0.877  0.0055  0.6634  0.2884
29214SOL     OW88219   1.685   5.167   7.201 -0.0221 -0.0251 -0.7429
29214SOL    HW188220   1.680   5.239   7.264  0.0592 -0.5408 -0.1374
29214SOL    HW288221   1.760   5.115   7.229  0.1783 -0.1191 -1.4265
29215SOL     OW88222   3.288   4.053   7.818  0.0043 -0.0544 -0.2632
29215SOL    HW188223   3.233   4.127   7.843 -1.6595 -0.8808 -1.2629
29215SOL    HW288224   3.279   3.991   7.891 -0.0105  0.0200 -0.2022
29216SOL     OW88225   9.141   0.324   3.812  0.3547 -0.0099 -0.1668
29216SOL    HW188226   9.175   0.235   3.801 -2.6708 -1.2086 -0.9393
29216SOL    HW288227   9.135   0.359   3.724  0.9257  0.7324  0.0790
29217SOL     OW88228   4.177   2.721   0.042  0.4621 -0.4294  0.3574
29217SOL    HW188229   4.116   2.771  -0.012  0.0997 -1.6321 -0.3963
29217SOL    HW288230   4.259   2.771   0.039 -0.1535  0.6043  0.4351
29218SOL     OW88231   3.389   8.082   6.185  0.1351  0.5986  0.1949
29218SOL    HW188232   3.370   7.995   6.150  1.0140  0.4357  0.0826
29218SOL    HW288233   3.414   8.065   6.276  0.8417  0.6644  0.0163
29219SOL     OW88234   7.526   0.159   4.280  0.6979  0.1539  0.1018
29219SOL    HW188235   7.544   0.247   4.315 -0.9164  0.5144  0.0963
29219SOL    HW288236   7.485   0.113   4.353 -0.5717  0.1641 -0.5867
29220SOL     OW88237   6.616   4.926   9.281  0.4691 -0.1478 -0.0149
29220SOL    HW188238   6.559   4.970   9.344 -0.5406  2.3206 -2.4745
29220SOL    HW288239   6.563   4.853   9.249 -1.0797  1.5924 -1.6191
29221SOL     OW88240   1.724   3.145   6.142  0.2952 -0.1805 -0.1096
29221SOL    HW188241   1.644   3.161   6.192 -0.5181 -0.3660 -1.3011
29221SOL    HW288242   1.693   3.114   6.057  1.6168  0.3915 -0.8325
29222SOL     OW88243   7.678   3.250   1.438  0.5067 -0.0423  0.6813
29222SOL    HW188244   7.685   3.343   1.416  0.8819 -0.0820  0.6332
29222SOL    HW288245   7.664   3.249   1.533  0.3243  0.0694  0.6561
29223SOL     OW88246   8.369   8.947   8.169  0.0789  0.4107  0.4275
29223SOL    HW188247   8.445   8.934   8.112  0.4314 -0.7209  1.1371
29223SOL    HW288248   8.294   8.917   8.116  0.2590  0.4761  0.1344
29224SOL     OW88249   8.224   4.360   8.477 -0.2529  0.0300 -0.0628
29224SOL    HW188250   8.291   4.366   8.545 -1.9737  0.4869  1.6843
29224SOL    HW288251   8.273   4.346   8.396  1.9937  1.4232  0.9700
29225SOL     OW88252   7.248   7.119   9.522  0.1191  0.0511  0.2612
29225SOL    HW188253   7.158   7.089   9.534  0.5199 -1.1360  0.4823
29225SOL    HW288254   7.248   7.160   9.436 -1.0860  1.9408  1.0977
29226SOL     OW88255   4.664   8.396   2.625  0.4816 -0.1908 -0.5311
29226SOL    HW188256   4.729   8.460   2.596  1.5020 -0.7059  0.5294
29226SOL    HW288257   4.712   8.337   2.683 -1.2886  0.4786  1.8271
29227SOL     OW88258   9.417   8.268   2.213  0.0835  0.7065  0.1026
29227SOL    HW188259   9.474   8.334   2.252  0.6305  0.8551 -0.9131
29227SOL    HW288260   9.452   8.184   2.243  1.7141  0.7261 -1.5766
29228SOL     OW88261   9.865   4.136   6.793 -0.0747  0.4097  0.6774
29228SOL    HW188262   9.778   4.165   6.822 -1.1642 -0.1513 -1.7524
29228SOL    HW288263   9.876   4.049   6.831 -0.0014  0.9886  2.0182
29229SOL     OW88264   6.876   5.518   1.690  0.1314 -0.2460 -0.7018
29229SOL    HW188265   6.854   5.446   1.630 -1.5289 -0.2008 -0.2130
29229SOL    HW288266   6.791   5.548   1.722  0.9481  0.1044  1.2587
29230SOL     OW88267   5.651   6.672   1.848  0.6592 -0.0976  0.1070
29230SOL    HW188268   5.604   6.691   1.929 -0.0988  0.2628 -0.4044
29230SOL    HW288269   5.720   6.738   1.843 -0.0733  0.6650 -0.1520
29231SOL     OW88270   9.675   6.857   2.487 -0.3220  0.1879 -0.0102
29231SOL    HW188271   9.728   6.879   2.563 -0.2467 -0.4413  0.1287
29231SOL    HW288272   9.672   6.937   2.435 -2.3152  1.3712  1.7826
29232SOL     OW88273   7.637   4.283   8.446 -0.2697  0.5780  0.5493
29232SOL    HW188274   7.673   4.239   8.522 -0.3552 -0.8757 -0.2158
29232SOL    HW288275   7.713   4.320   8.401  0.0318 -0.4741  0.1752
29233SOL     OW88276   5.223   6.837   6.080 -0.3702 -0.2346  0.9627
29233SOL    HW188277   5.166   6.826   6.004  1.7469  0.4769 -0.8452
29233SOL    HW288278   5.271   6.755   6.087 -0.0844 -0.0537  1.1402
29234SOL     OW88279   2.345   3.846   0.963  0.1982 -0.4530  0.0058
29234SOL    HW188280   2.403   3.795   1.019  1.4350  1.8303  0.9625
29234SOL    HW288281   2.403   3.897   0.907 -0.8859  0.8574 -0.0035
29235SOL     OW88282   8.072   2.621   9.484 -0.4409 -0.1279  0.2229
29235SOL    HW188283   7.994   2.663   9.447  0.2205  1.0096  0.0535
29235SOL    HW288284   8.109   2.688   9.543  1.6863  0.3072 -1.4804
29236SOL     OW88285   5.260   7.177   5.065  0.2033  0.6862  0.2514
29236SOL    HW188286   5.168   7.153   5.053  0.9192 -1.6475 -0.9335
29236SOL    HW288287   5.294   7.113   5.128  0.5288  2.9455  2.5571
29237SOL     OW88288   3.835   9.190   2.573 -0.2735  0.2462  0.5814
29237SOL    HW188289   3.816   9.256   2.641 -1.9165  1.9658 -1.4287
29237SOL    HW288290   3.819   9.235   2.491 -0.6887 -2.4854 -0.9422
29238SOL     OW88291  -0.015   5.232   7.930  0.0349 -0.7687  0.6674
29238SOL    HW188292   0.054   5.182   7.885 -0.5084 -1.8594  0.9990
29238SOL    HW288293   0.032   5.285   7.994  0.6279 -0.9949  0.4279
29239SOL     OW88294   9.209   6.201   4.580 -0.2963 -0.0750  0.6779
29239SOL    HW188295   9.215   6.220   4.486  2.3610  0.1348  0.8045
29239SOL    HW288296   9.210   6.288   4.621 -2.4275 -0.1302  0.9106
29240SOL     OW88297   6.080   9.128   5.965 -0.0421  0.3632 -0.5891
29240SOL    HW188298   6.093   9.054   5.905  0.6215 -1.0508  1.1880
29240SOL    HW288299   6.161   9.178   5.960  1.7919 -2.0075  1.9554
29241SOL     OW88300   2.807   3.334   0.365 -0.0270 -0.1121  0.1360
29241SOL    HW188301   2.832   3.346   0.457  3.0962  0.3079 -0.6643
29241SOL    HW288302   2.828   3.418   0.324 -2.6066  0.1527 -0.7900
29242SOL     OW88303   0.505   0.103   0.280 -0.1630  0.4027  0.0138
29242SOL    HW188304   0.435   0.151   0.237 -0.5902 -1.3774 -1.3932
29242SOL    HW288305   0.485   0.010   0.264  1.7291 -0.2077  0.8110
29243SOL     OW88306   6.120   3.332   3.961 -0.7790  0.0816 -0.3201
29243SOL    HW188307   6.109   3.358   4.052 -1.4817  1.5993 -0.8005
29243SOL    HW288308   6.175   3.400   3.923 -1.8282  0.3751 -1.3951
29244SOL     OW88309   0.476   5.641   0.973  0.2332  0.0796 -0.4432
29244SOL    HW188310   0.467   5.547   0.989 -0.8260  0.3293  0.5532
29244SOL    HW288311   0.520   5.674   1.051 -1.2141  0.6943  0.1467
29245SOL     OW88312   9.957   7.103  -0.022 -0.9898  0.6782 -0.2716
29245SOL    HW188313   9.974   7.167   0.047 -1.1471  1.1037 -0.6234
29245SOL    HW288314   9.887   7.048   0.013  1.1041 -1.2102  1.2751
29246SOL     OW88315   1.060   2.768   1.347  0.0170 -0.2674  0.1780
29246SOL    HW188316   1.151   2.795   1.352  0.1790 -0.5767 -0.9378
29246SOL    HW288317   1.062   2.673   1.360 -0.3256 -0.0802  1.8008
29247SOL     OW88318   3.637   9.046   9.397  0.2166  0.0804 -0.4412
29247SOL    HW188319   3.644   8.951   9.389 -0.1829  0.1214 -1.3634
29247SOL    HW288320   3.667   9.080   9.313  0.2376  0.7730 -0.1659
29248SOL     OW88321   9.315   5.237   7.360 -0.0604 -0.1940  0.3457
29248SOL    HW188322   9.243   5.238   7.297  0.0523 -0.0606  0.2167
29248SOL    HW288323   9.322   5.145   7.387 -0.1101 -0.2519  0.1653
29249SOL     OW88324   1.096   3.630   3.883 -0.0919 -0.1123 -0.0171
29249SOL    HW188325   1.015   3.631   3.933  0.2940  0.5795  0.6066
29249SOL    HW288326   1.160   3.674   3.939  1.1403 -2.0541  0.2004
29250SOL     OW88327   9.683   8.038   4.464  0.3250  0.2031 -0.1810
29250SOL    HW188328   9.694   7.944   4.450  0.5390  0.0628  0.8675
29250SOL    HW288329   9.659   8.046   4.557  0.1047  1.1672 -0.3089
29251SOL     OW88330   7.565   8.349   3.571  0.5595 -0.2068  0.2403
29251SOL    HW188331   7.640   8.377   3.519  1.0116 -1.4474  0.1980
29251SOL    HW288332   7.588   8.262   3.603 -1.7663 -1.6834 -1.7269
29252SOL     OW88333   7.815   1.082   6.470  0.0087 -0.5584  0.5708
29252SOL    HW188334   7.752   1.154   6.469  0.2554 -0.3452  0.4203
29252SOL    HW288335   7.790   1.030   6.546 -1.9149 -1.8341 -0.8104
29253SOL     OW88336   7.856   0.642   2.052  0.3446 -0.4177 -0.1167
29253SOL    HW188337   7.764   0.664   2.062  0.3135  0.5134 -2.0819
29253SOL    HW288338   7.858   0.546   2.051 -0.4645 -0.4600  0.8539
29254SOL     OW88339   7.382   6.449   2.393 -0.2526  0.0528  0.2217
29254SOL    HW188340   7.302   6.408   2.426 -0.1763 -1.2331 -1.0960
29254SOL    HW288341   7.357   6.539   2.375 -1.1483 -0.0837  0.7128
29255SOL     OW88342   5.687   6.896   7.505 -0.3043 -0.1630 -0.8495
29255SOL    HW188343   5.613   6.953   7.527 -0.6318 -0.2240 -1.7837
29255SOL    HW288344   5.688   6.830   7.575  0.2126  1.0938  0.3646
29256SOL     OW88345   2.148   5.165   5.061  0.3399 -0.4844  0.0257
29256SOL    HW188346   2.141   5.197   4.971  1.2074 -1.6204 -0.4761
29256SOL    HW288347   2.226   5.109   5.061 -1.0449 -2.5524  0.8198
29257SOL     OW88348   4.022   8.244   4.215  0.0152  0.2080  0.0147
29257SOL    HW188349   3.955   8.285   4.160 -0.5469 -0.3778  0.2537
29257SOL    HW288350   4.034   8.305   4.288 -0.1678  0.3722 -0.0909
29258SOL     OW88351   4.604   5.667   6.916  0.7021  0.5141 -0.1243
29258SOL    HW188352   4.556   5.627   6.988  0.0089 -0.1879 -0.9490
29258SOL    HW288353   4.669   5.602   6.891 -0.5376 -0.2115 -1.5800
29259SOL     OW88354   1.990   8.009   1.310  0.5966  0.0804  0.2157
29259SOL    HW188355   2.024   8.014   1.220  2.0377  0.0606  0.7337
29259SOL    HW288356   2.068   7.999   1.364 -0.2974 -0.5443  1.4307
29260SOL     OW88357   7.373   3.785   8.615  0.1909 -0.1300  0.6139
29260SOL    HW188358   7.316   3.764   8.689 -1.9583  1.7008 -0.4263
29260SOL    HW288359   7.460   3.795   8.655 -0.9089  1.0141  2.9547
29261SOL     OW88360   2.861   3.499   6.457  0.0055  0.6845  0.0502
29261SOL    HW188361   2.783   3.508   6.402  1.6426  0.1234 -2.5172
29261SOL    HW288362   2.872   3.404   6.467  0.8697  0.7312 -0.4042
29262SOL     OW88363   4.046   7.684   4.728  0.1381  0.0303  0.1239
29262SOL    HW188364   3.998   7.675   4.810  0.1710  4.0200  0.7716
29262SOL    HW288365   4.137   7.668   4.751 -0.1092 -1.2741  0.2726
29263SOL     OW88366   6.655   6.236   6.834  0.0558  0.0016 -0.1966
29263SOL    HW188367   6.732   6.260   6.885 -0.3958  0.7730  0.1349
29263SOL    HW288368   6.638   6.312   6.778 -1.6546  0.7017  1.1750
29264SOL     OW88369   2.126   9.127   7.530 -0.0698 -0.3963 -0.3727
29264SOL    HW188370   2.212   9.138   7.571 -0.6699  1.5381  0.4543
29264SOL    HW288371   2.063   9.154   7.597 -1.4076 -2.3377 -0.7522
29265SOL     OW88372   1.661   3.430   0.413  0.2167 -0.1682  0.3245
29265SOL    HW188373   1.614   3.506   0.447  0.2705 -0.5320  1.2331
29265SOL    HW288374   1.682   3.377   0.490 -1.3967 -2.0317 -0.4375
29266SOL     OW88375   3.062   5.871   4.524 -0.0969 -0.2492  0.0221
29266SOL    HW188376   3.079   5.963   4.503  1.7258 -0.1262  1.7207
29266SOL    HW288377   3.107   5.822   4.454  0.4270  0.1570  0.0672
29267SOL     OW88378   4.030   6.225   0.734 -0.1060 -0.0907  0.2019
29267SOL    HW188379   4.114   6.211   0.689  1.4751  1.3932  2.4723
29267SOL    HW288380   4.033   6.165   0.808 -1.9353 -1.3355 -0.6774
29268SOL     OW88381   6.125   7.053   3.706  0.1916  0.3119 -0.0657
29268SOL    HW188382   6.076   7.017   3.632 -1.0993  1.3767  0.2326
29268SOL    HW288383   6.067   7.042   3.781 -0.1325  2.6144  0.0976
29269SOL     OW88384   0.626   6.782   8.110 -0.4051  0.0035 -0.0792
29269SOL    HW188385   0.648   6.790   8.203 -1.2491  0.3994  0.0924
29269SOL    HW288386   0.698   6.731   8.073 -0.0591 -0.1592  0.7910
29270SOL     OW88387   7.151   4.840   5.308 -0.1961 -0.6586  0.0317
29270SOL    HW188388   7.215   4.911   5.310  0.3313 -1.0986 -0.7658
29270SOL    HW288389   7.195   4.770   5.260 -1.2044 -1.0348 -0.3606
29271SOL     OW88390   3.700   9.370   4.769  0.0695  0.1400  0.1435
29271SOL    HW188391   3.614   9.358   4.727 -0.3505 -0.2046  1.0656
29271SOL    HW288392   3.748   9.291   4.746  0.0737  0.2448 -0.2148
29272SOL     OW88393   9.833   7.335   7.842 -0.2193  0.2757 -0.2842
29272SOL    HW188394   9.897   7.265   7.856 -0.8374  0.1694  2.6651
29272SOL    HW288395   9.885   7.413   7.829  0.5435  0.0278  1.1342
29273SOL     OW88396   6.136   2.064   1.255 -0.3550  0.2573  0.2942
29273SOL    HW188397   6.100   1.977   1.241  0.6333  0.0872 -1.6364
29273SOL    HW288398   6.229   2.055   1.233  0.1672  1.4102  1.8533
29274SOL     OW88399   0.409   3.233   7.108 -0.2167 -0.4350 -0.3045
29274SOL    HW188400   0.375   3.217   7.195  1.5284  1.0152  0.7057
29274SOL    HW288401   0.482   3.171   7.099  0.2310  0.0848 -0.3197
29275SOL     OW88402   4.190   5.087   9.913 -0.1330  0.2041  0.0628
29275SOL    HW188403   4.127   5.133   9.969  0.0368  1.6807 -0.9207
29275SOL    HW288404   4.191   4.998   9.948  0.7180  1.2527  3.0970
29276SOL     OW88405   1.671   8.431   4.469  0.4521 -0.0101  0.6166
29276SOL    HW188406   1.657   8.413   4.376  0.5847  0.1654  0.5610
29276SOL    HW288407   1.612   8.504   4.489 -2.2030 -2.2468  1.5248
29277SOL     OW88408   5.618   5.940   6.333 -0.0350  0.0178  0.4150
29277SOL    HW188409   5.701   5.894   6.321 -0.4294 -0.3810 -0.9647
29277SOL    HW288410   5.551   5.872   6.330 -0.4807  0.4472  0.4130
29278SOL     OW88411   7.273   4.959   0.748 -0.7199 -0.0556  0.0311
29278SOL    HW188412   7.337   5.010   0.795 -1.3669 -0.5116  1.4560
29278SOL    HW288413   7.193   4.965   0.800 -1.5535 -0.3479 -1.1520
29279SOL     OW88414   4.731   0.763   6.754 -0.0580  0.2736 -0.4489
29279SOL    HW188415   4.659   0.700   6.753 -1.8690  2.2058 -2.3592
29279SOL    HW288416   4.810   0.710   6.758 -1.5419 -1.9796  0.5732
29280SOL     OW88417   7.632   1.737   8.926 -0.0245  0.5475 -0.0647
29280SOL    HW188418   7.555   1.716   8.979 -1.1689 -3.7164 -2.9355
29280SOL    HW288419   7.705   1.696   8.973 -0.3685  0.1358  0.1163
29281SOL     OW88420   5.387   1.530   0.355  0.2395  0.1392  0.5935
29281SOL    HW188421   5.473   1.494   0.333 -0.0900 -1.4624  1.7472
29281SOL    HW288422   5.406   1.610   0.404  1.0858 -0.1206  0.7030
29282SOL     OW88423   9.811   6.382   2.348 -0.4480 -0.0985 -0.4334
29282SOL    HW188424   9.828   6.450   2.284  0.2264  0.6556  0.5163
29282SOL    HW288425   9.748   6.323   2.306  1.2294 -0.5679 -2.4082
29283SOL     OW88426   5.702   4.970   5.338  0.1617  0.3106  0.3722
29283SOL    HW188427   5.776   5.002   5.391  0.4031 -0.4120  0.4837
29283SOL    HW288428   5.742   4.929   5.262 -0.1849  1.2525 -0.3471
29284SOL     OW88429   8.090   0.061   3.385 -0.4535 -0.3240  0.2144
29284SOL    HW188430   8.047   0.097   3.308 -0.9324  1.0616  1.0994
29284SOL    HW288431   8.148  -0.007   3.350  1.3754  2.0431 -1.6765
29285SOL     OW88432   8.963   5.109   6.116 -0.4176 -0.3659  0.1217
29285SOL    HW188433   8.952   5.199   6.085 -0.0026 -0.2825  0.2126
29285SOL    HW288434   8.889   5.096   6.176 -0.1449  0.1251  0.5834
29286SOL     OW88435   1.555   0.199   1.899  0.4328  0.3113 -0.2234
29286SOL    HW188436   1.462   0.223   1.907  0.0645 -1.0753 -0.1678
29286SOL    HW288437   1.555   0.104   1.898  1.7854  0.2949 -1.1996
29287SOL     OW88438   4.235   3.796   7.346  0.1609  0.3215 -0.5897
29287SOL    HW188439   4.176   3.856   7.301  0.0335 -0.3418 -1.3468
29287SOL    HW288440   4.242   3.830   7.435 -1.8879  0.0549 -0.2851
29288SOL     OW88441   7.561   5.202   5.119 -0.1392  0.3108  0.1717
29288SOL    HW188442   7.512   5.148   5.180 -1.0972  1.3156  0.3140
29288SOL    HW288443   7.498   5.225   5.051  0.6810 -0.0575 -0.7428
29289SOL     OW88444   1.097   4.190   7.381 -0.1671 -0.2172 -0.3432
29289SOL    HW188445   1.130   4.152   7.463 -1.5821 -0.3040  0.2235
29289SOL    HW288446   1.032   4.126   7.351  0.0104  0.0469 -1.2935
29290SOL     OW88447   4.549   7.931   9.641 -0.2270  0.1002  0.2748
29290SOL    HW188448   4.559   7.994   9.712  1.4776 -0.7747  0.8582
29290SOL    HW288449   4.586   7.850   9.675 -0.5013 -0.6797 -1.1869
29291SOL     OW88450   9.143   7.966   8.248 -0.4487  0.9591  0.0824
29291SOL    HW188451   9.231   7.941   8.221 -0.4232  1.9074 -0.7261
29291SOL    HW288452   9.153   7.993   8.340 -0.0017  0.5935  0.1462
29292SOL     OW88453   0.323   8.087   2.118  0.1009  0.1299 -0.0723
29292SOL    HW188454   0.395   8.105   2.058 -0.0236 -1.1734 -0.6537
29292SOL    HW288455   0.256   8.045   2.064 -0.6590  0.3365  0.6772
29293SOL     OW88456   5.363   2.887   5.011  0.1411  0.4719 -0.8692
29293SOL    HW188457   5.336   2.896   5.102 -0.0078 -0.4618 -0.8149
29293SOL    HW288458   5.340   2.971   4.971 -0.8649  0.4641 -0.3228
29294SOL     OW88459   5.568   2.916   7.199 -0.1278 -0.1638  0.2727
29294SOL    HW188460   5.509   2.980   7.159  0.2292  0.0365  0.0582
29294SOL    HW288461   5.648   2.965   7.217 -0.4635 -0.1119  1.7471
29295SOL     OW88462   0.381   9.719   3.028 -0.2857  0.0597 -0.4390
29295SOL    HW188463   0.414   9.808   3.014  0.0149  0.2404  1.1785
29295SOL    HW288464   0.294   9.731   3.066  0.1111 -0.2719  0.6450
29296SOL     OW88465   4.523   1.803   9.329  0.0040 -0.1045  0.1764
29296SOL    HW188466   4.500   1.850   9.410  0.0537  1.1479 -0.5085
29296SOL    HW288467   4.460   1.836   9.264  0.4023 -0.5711 -0.4580
29297SOL     OW88468   4.573   3.984   3.192  0.7384 -1.2254 -0.1830
29297SOL    HW188469   4.551   3.921   3.260  0.1771  0.2800  1.0825
29297SOL    HW288470   4.512   3.966   3.121 -0.6274 -0.9820  0.8920
29298SOL     OW88471   2.565   8.293   4.886 -0.0537 -0.1848  0.6852
29298SOL    HW188472   2.566   8.238   4.964  1.0189  1.2311  1.7243
29298SOL    HW288473   2.515   8.370   4.912  0.2795  0.2866 -0.0391
29299SOL     OW88474   3.593   2.520   5.634 -0.0142 -0.4535 -1.2152
29299SOL    HW188475   3.629   2.561   5.712 -1.3221  1.0141 -1.3243
29299SOL    HW288476   3.652   2.548   5.563 -0.5070  0.6971 -1.1824
29300SOL     OW88477   0.458   4.224   0.930  0.3544  0.2471 -0.4366
29300SOL    HW188478   0.448   4.191   0.840  0.1057  2.2649 -1.2016
29300SOL    HW288479   0.549   4.207   0.951 -0.0090 -1.9371 -0.3048
29301SOL     OW88480   2.533   1.514   2.756  0.5937 -0.1958  0.1007
29301SOL    HW188481   2.438   1.503   2.756  0.8203 -2.7461  0.4235
29301SOL    HW288482   2.546   1.609   2.750 -1.9027  0.1201 -2.4833
29302SOL     OW88483   3.434   3.705   5.777  0.3516  0.1348 -0.2046
29302SOL    HW188484   3.528   3.691   5.776  0.2272 -1.1474  1.4342
29302SOL    HW288485   3.411   3.705   5.870 -1.3779 -0.4798 -0.5905
29303SOL     OW88486   3.940   7.727   0.134  0.5331  0.1256  0.1962
29303SOL    HW188487   3.986   7.716   0.217  1.1000  1.4513  0.0855
29303SOL    HW288488   3.982   7.803   0.094  0.6842 -0.8728 -1.5995
29304SOL     OW88489   0.119   1.553   5.433  0.4494 -0.1211 -0.2758
29304SOL    HW188490   0.115   1.637   5.387  0.6760  0.9464  1.5779
29304SOL    HW288491   0.201   1.556   5.482  0.3067 -1.3105  0.0796
29305SOL     OW88492   7.604   8.663   4.691  0.4425 -0.0163  0.2930
29305SOL    HW188493   7.686   8.615   4.709 -0.0080 -0.2178  1.9453
29305SOL    HW288494   7.580   8.635   4.603  0.8686 -1.9045  0.7158
29306SOL     OW88495   6.535   3.065   6.772  0.0000  0.4273 -0.2720
29306SOL    HW188496   6.611   3.009   6.786  0.0649  0.7921  1.0075
29306SOL    HW288497   6.512   3.097   6.860 -1.3794  0.6451 -0.6793
29307SOL     OW88498   9.572   6.084   4.362 -0.1512 -0.1379  0.1450
29307SOL    HW188499   9.570   5.989   4.347 -0.1456 -0.1741  0.3755
29307SOL    HW288500   9.512   6.098   4.435 -1.1372  0.1840 -0.7091
29308SOL     OW88501   2.208   7.292   1.271  0.5838 -0.1130  0.1690
29308SOL    HW188502   2.125   7.244   1.267  0.6096 -0.1519  0.1031
29308SOL    HW288503   2.272   7.227   1.300  0.3109  0.2726  1.7279
29309SOL     OW88504   8.088   4.785   6.895 -0.0583  0.0004  0.4237
29309SOL    HW188505   8.080   4.756   6.986 -0.3808 -0.7263  0.1634
29309SOL    HW288506   8.025   4.732   6.847  0.8376 -0.3470 -0.3962
29310SOL     OW88507   1.262   1.055   6.757 -0.5148 -0.4301  0.0995
29310SOL    HW188508   1.226   1.142   6.770  0.4452  0.0124 -0.0781
29310SOL    HW288509   1.189   0.996   6.771 -1.7972  0.4916 -2.1410
29311SOL     OW88510   2.600   1.870   6.195 -0.0934 -0.3223  0.0454
29311SOL    HW188511   2.547   1.941   6.229 -0.2696  0.5542 -1.9323
29311SOL    HW288512   2.563   1.791   6.234 -1.7660  0.4187  0.0095
29312SOL     OW88513   1.864   3.915   0.922 -0.1779  0.3841  0.2470
29312SOL    HW188514   1.851   3.856   0.996  0.7155  0.0852  0.1720
29312SOL    HW288515   1.948   3.958   0.939 -0.2777  0.8024 -0.2630
29313SOL     OW88516   7.535   1.592   6.771 -0.1947 -0.0033  0.9061
29313SOL    HW188517   7.495   1.635   6.695  0.1583  0.9439  1.2382
29313SOL    HW288518   7.576   1.514   6.735 -0.0469  0.4200  0.1144
29314SOL     OW88519   9.548   2.609   3.371 -0.1391 -0.3693 -0.0168
29314SOL    HW188520   9.559   2.586   3.463  2.6336  1.4498  0.2451
29314SOL    HW288521   9.527   2.527   3.327  1.6477 -1.8974  1.8117
29315SOL     OW88522   8.893   8.704   6.556 -0.3938 -0.2946  0.6568
29315SOL    HW188523   8.954   8.753   6.611  0.6587 -1.5799  0.6589
29315SOL    HW288524   8.931   8.617   6.548 -0.5783 -0.2151 -1.9830
29316SOL     OW88525   5.227   2.810   8.053  0.1033 -0.3126 -0.1167
29316SOL    HW188526   5.172   2.885   8.075  0.1082 -0.7886  1.6584
29316SOL    HW288527   5.166   2.738   8.041  0.1732 -0.2690 -0.7755
29317SOL     OW88528   0.739   4.958   6.264 -0.2196  0.3040  0.2003
29317SOL    HW188529   0.673   5.021   6.292 -1.0435 -0.1128 -0.7609
29317SOL    HW288530   0.786   4.936   6.345 -0.9961  0.9032  0.8322
29318SOL     OW88531   4.349   9.601   9.580  0.8369 -0.0546 -0.4975
29318SOL    HW188532   4.434   9.640   9.559  1.4235 -0.8889  0.2277
29318SOL    HW288533   4.325   9.552   9.501  0.4901  1.0751 -1.1054
29319SOL     OW88534   3.787   2.922   8.641  0.1252 -0.0474 -0.6079
29319SOL    HW188535   3.847   2.901   8.712  0.8216  1.8329 -0.5848
29319SOL    HW288536   3.837   2.904   8.561 -0.7508 -2.4319 -0.7142
29320SOL     OW88537   5.807   5.181   6.579  0.5933  0.2456 -0.3456
29320SOL    HW188538   5.728   5.128   6.592  0.1228  1.1968  0.9203
29320SOL    HW288539   5.820   5.182   6.484 -2.0506  1.6298 -0.8140
29321SOL     OW88540   9.702   7.111   1.301 -0.5420 -0.2662  0.5936
29321SOL    HW188541   9.673   7.196   1.333  0.3571  0.3248 -0.1168
29321SOL    HW288542   9.622   7.068   1.270 -1.2641 -0.3869  2.4908
29322SOL     OW88543   3.138   3.321   9.726  0.0958 -0.0682 -0.5054
29322SOL    HW188544   3.194   3.309   9.649  0.0831 -0.1081 -0.5085
29322SOL    HW288545   3.055   3.282   9.702 -0.3336  1.1073 -0.9686
29323SOL     OW88546   2.267   7.832   9.867 -0.1676 -0.2274  0.2625
29323SOL    HW188547   2.175   7.841   9.892 -0.2917 -0.9749  0.1086
29323SOL    HW288548   2.310   7.797   9.946 -0.0228  0.0918  0.3252
29324SOL     OW88549   7.012   9.264   0.958  0.1589  0.3014 -0.3089
29324SOL    HW188550   7.067   9.332   0.920 -1.2865  0.7053 -1.7783
29324SOL    HW288551   6.922   9.297   0.950 -0.3561 -0.4163  1.8448
29325SOL     OW88552   0.573   6.070   4.293  0.2890 -0.0249  0.0478
29325SOL    HW188553   0.662   6.081   4.259  0.4821  2.7764  1.1702
29325SOL    HW288554   0.518   6.116   4.229 -0.2097 -0.7070 -0.0187
29326SOL     OW88555   8.385   3.190   9.090 -0.2493  0.4761 -0.1788
29326SOL    HW188556   8.356   3.099   9.080  0.2460  0.5583 -3.1602
29326SOL    HW288557   8.330   3.240   9.030  0.8121  1.8481 -0.0625
29327SOL     OW88558   3.826   6.693   2.589  0.8864 -0.0459  0.5719
29327SOL    HW188559   3.890   6.626   2.564  1.8965  1.1373 -0.0856
29327SOL    HW288560   3.796   6.730   2.506 -1.3204 -1.1301  0.8088
29328SOL     OW88561   1.182   9.761   2.491  0.2810 -0.0240 -0.1819
29328SOL    HW188562   1.259   9.741   2.543  0.7044 -1.0166 -1.1452
29328SOL    HW288563   1.114   9.781   2.555  1.4060  1.1683  0.6742
29329SOL     OW88564   8.508   8.161   8.652 -0.4589  0.0432 -0.4287
29329SOL    HW188565   8.519   8.074   8.692 -0.2151  1.0747  1.9236
29329SOL    HW288566   8.415   8.166   8.631 -0.8627 -0.1086  1.1985
29330SOL     OW88567   6.153   4.456   7.791 -0.0063 -0.0049  0.0452
29330SOL    HW188568   6.192   4.450   7.878 -1.9887 -0.1896  0.9731
29330SOL    HW288569   6.194   4.386   7.740 -2.4284 -3.4072  2.3588
29331SOL     OW88570   1.827   2.721   1.497  0.4184  0.3863 -0.5000
29331SOL    HW188571   1.883   2.716   1.575 -0.1452  2.2346  0.0761
29331SOL    HW288572   1.754   2.662   1.516  0.8615 -0.0585 -0.1403
29332SOL     OW88573   3.784   6.164   4.605  0.6258 -0.6383  0.1535
29332SOL    HW188574   3.802   6.246   4.651 -0.0837 -0.4351  0.0720
29332SOL    HW288575   3.726   6.115   4.663  0.4474 -0.7670 -0.1321
29333SOL     OW88576   8.571   4.115   5.818 -0.1402 -0.1098 -0.5480
29333SOL    HW188577   8.572   4.027   5.780 -1.1263 -0.2503 -0.3006
29333SOL    HW288578   8.497   4.158   5.775  1.7712  1.4539 -2.4544
29334SOL     OW88579   4.584   1.532   9.451 -0.4355  0.1343 -0.2648
29334SOL    HW188580   4.592   1.447   9.407  2.5932 -0.2201  0.6979
29334SOL    HW288581   4.626   1.594   9.392 -0.0242  0.3983  0.2934
29335SOL     OW88582   3.430   0.392   4.248 -0.1024  0.7047 -0.4872
29335SOL    HW188583   3.455   0.375   4.339  1.7672  1.3987 -0.8373
29335SOL    HW288584   3.375   0.317   4.224  0.5534 -0.2139  0.7742
29336SOL     OW88585   1.242   2.919   6.800 -0.7340 -0.4546  0.2953
29336SOL    HW188586   1.333   2.949   6.793 -0.3362 -2.0336 -2.5546
29336SOL    HW288587   1.191   2.983   6.751 -1.5009  1.2843  3.1505
29337SOL     OW88588   6.965   3.876   3.327 -0.2589  0.0882 -0.1084
29337SOL    HW188589   7.054   3.905   3.346 -0.0796 -0.2996 -0.3482
29337SOL    HW288590   6.973   3.783   3.307 -1.0692 -0.5940  2.3788
29338SOL     OW88591   4.161   6.984   1.201  0.0271  0.7998 -0.3072
29338SOL    HW188592   4.197   7.054   1.146 -0.5136  0.9643 -0.4574
29338SOL    HW288593   4.075   6.966   1.164 -0.6894  1.4627  0.9454
29339SOL     OW88594   1.200   0.646   9.538  0.4271 -0.6762 -0.7690
29339SOL    HW188595   1.239   0.561   9.558 -1.4471 -1.5261 -0.5073
29339SOL    HW288596   1.120   0.625   9.491  0.2021  0.9876 -1.1892
29340SOL     OW88597   3.522   0.703   4.047  0.1900  0.0733  0.3247
29340SOL    HW188598   3.581   0.634   4.077 -0.4466 -0.7488 -0.2779
29340SOL    HW288599   3.511   0.687   3.954 -0.4329  0.6349  0.2932
29341SOL     OW88600   8.126   6.733   4.669 -0.5721  0.0975  0.0990
29341SOL    HW188601   8.204   6.679   4.682  0.4898  1.2759 -1.1029
29341SOL    HW288602   8.110   6.772   4.755  0.8194  0.6737  0.1304
29342SOL     OW88603   6.379   5.038   7.415  0.4124  0.2932 -0.0334
29342SOL    HW188604   6.307   5.029   7.352 -1.0167  2.8376  1.0935
29342SOL    HW288605   6.440   4.968   7.391 -2.1833 -1.7282 -1.3293
29343SOL     OW88606   9.236   0.475   6.410 -0.1719 -0.2323  0.1377
29343SOL    HW188607   9.300   0.525   6.360  0.8046 -0.8319  0.7671
29343SOL    HW288608   9.151   0.513   6.385  0.5442  2.0410  0.9359
29344SOL     OW88609   5.154   1.053   5.583 -0.7226 -0.2207 -0.3568
29344SOL    HW188610   5.063   1.082   5.573 -0.8198  0.0313  1.0580
29344SOL    HW288611   5.188   1.104   5.656  0.1023 -1.3442  0.0795
29345SOL     OW88612   9.301   4.350   1.807 -0.0657  0.3661 -0.2418
29345SOL    HW188613   9.248   4.392   1.738 -0.3911  0.1631 -0.1174
29345SOL    HW288614   9.304   4.415   1.877 -2.7559 -0.7458  1.0353
29346SOL     OW88615   7.857   4.214   4.784 -0.3957 -0.3454 -0.4381
29346SOL    HW188616   7.885   4.300   4.752  0.1454 -0.3529  0.0021
29346SOL    HW288617   7.939   4.170   4.810 -0.7318 -0.7235  0.0024
29347SOL     OW88618   8.867   5.309   5.144  0.2514 -0.5733 -0.0631
29347SOL    HW188619   8.829   5.326   5.230  0.1566 -0.8725 -0.0443
29347SOL    HW288620   8.795   5.274   5.092  0.6266 -1.6902  0.1464
29348SOL     OW88621   0.356   3.420   8.166 -0.1828  0.2050  0.3752
29348SOL    HW188622   0.279   3.442   8.112 -1.0471 -0.3616  1.3402
29348SOL    HW288623   0.365   3.325   8.155  1.5265  0.4782 -1.1725
29349SOL     OW88624   8.221   4.053   7.160  0.1990 -0.4592 -0.6633
29349SOL    HW188625   8.191   4.139   7.132  2.0780  0.3465 -0.3799
29349SOL    HW288626   8.141   4.005   7.183 -0.8973  1.0975 -1.0996
29350SOL     OW88627   9.854   5.907   2.011  0.0178  0.1181 -0.2858
29350SOL    HW188628   9.947   5.889   2.006  0.0683  0.7275 -2.4922
29350SOL    HW288629   9.819   5.838   2.067  1.6906 -0.4592  0.1037
29351SOL     OW88630   9.208   7.521   4.383  0.5112  0.0899 -0.4064
29351SOL    HW188631   9.126   7.558   4.350  1.1638  0.3893 -1.7794
29351SOL    HW288632   9.202   7.530   4.478 -1.3445 -0.5649 -0.4293
29352SOL     OW88633   7.212   1.141   3.767  0.0189  0.7266 -0.1289
29352SOL    HW188634   7.217   1.052   3.802  2.2278  1.2821  1.2207
29352SOL    HW288635   7.242   1.133   3.677  0.7135  0.1387  0.1405
29353SOL     OW88636   2.432   9.020   3.919  0.0027  0.5983 -0.0614
29353SOL    HW188637   2.369   8.949   3.923 -1.5620  1.9653  1.3480
29353SOL    HW288638   2.454   9.038   4.011  3.6818 -0.7687 -0.4784
29354SOL     OW88639   1.316   1.496   0.747 -0.4031  0.0276  0.2186
29354SOL    HW188640   1.258   1.427   0.781 -1.0957  0.1735 -0.6372
29354SOL    HW288641   1.390   1.449   0.709 -0.9874 -0.2776 -0.5765
29355SOL     OW88642   1.250   5.838   9.419  0.2165 -0.1808 -0.1518
29355SOL    HW188643   1.286   5.875   9.339 -0.9571  0.3232 -0.4677
29355SOL    HW288644   1.160   5.814   9.396  0.2194 -1.0792  0.6998
29356SOL     OW88645   2.626   3.098   1.920  0.8084 -0.2661 -0.4240
29356SOL    HW188646   2.705   3.061   1.959  0.8485  0.5299  0.2821
29356SOL    HW288647   2.635   3.192   1.933 -0.9577 -0.2527  1.0118
29357SOL     OW88648   5.073   2.007   7.344 -0.4034 -0.0705  0.2670
29357SOL    HW188649   5.138   1.965   7.401  1.1349  1.2452 -0.4459
29357SOL    HW288650   5.099   1.983   7.255 -1.4522 -0.2601 -0.0110
29358SOL     OW88651   1.595   0.674   4.494  0.5983 -0.5039  0.0770
29358SOL    HW188652   1.648   0.656   4.417  1.8869 -0.7317  0.9855
29358SOL    HW288653   1.555   0.591   4.516  0.8231 -0.6134  0.0786
29359SOL     OW88654   2.932   9.582   1.246 -0.1040  0.1256  0.0526
29359SOL    HW188655   2.952   9.650   1.310 -1.5984  0.4654  0.2055
29359SOL    HW288656   2.845   9.605   1.214 -0.6350 -1.6927  0.0873
29360SOL     OW88657   5.977   0.886   0.637 -0.6612 -0.4321 -0.2987
29360SOL    HW188658   6.068   0.903   0.614 -0.7722  0.6451 -0.0042
29360SOL    HW288659   5.968   0.919   0.726 -1.2497 -0.8717 -0.1872
29361SOL     OW88660   9.551   4.923   9.256  0.0248  0.5164 -0.6690
29361SOL    HW188661   9.515   4.843   9.293  0.3700 -0.7349 -2.8750
29361SOL    HW288662   9.620   4.949   9.316 -1.4068  0.3488  1.1435
29362SOL     OW88663   4.713   6.993   3.866  0.2035 -0.0705 -0.2357
29362SOL    HW188664   4.660   7.073   3.878  1.4157  0.5590  1.3379
29362SOL    HW288665   4.755   6.980   3.951  0.5073 -2.0763 -0.6468
29363SOL     OW88666   8.108   9.250   4.991 -0.1817  0.3203 -0.0440
29363SOL    HW188667   8.053   9.174   5.008 -0.8774 -0.1344 -3.5266
29363SOL    HW288668   8.048   9.313   4.948  1.3973  0.8007 -1.6687
29364SOL     OW88669   3.183   8.919   6.312 -0.0386 -0.4429 -0.6241
29364SOL    HW188670   3.135   8.851   6.359 -0.8530 -0.3303 -1.2701
29364SOL    HW288671   3.119   8.989   6.297  0.3549 -0.2305 -1.3927
29365SOL     OW88672   8.284   5.224   1.806 -0.4983 -0.2851 -0.2888
29365SOL    HW188673   8.207   5.265   1.844  0.0273 -0.2471  0.7794
29365SOL    HW288674   8.251   5.174   1.732 -1.7126 -1.2006  0.8240
29366SOL     OW88675   4.859   7.839   1.375  0.1512 -0.5892 -0.7047
29366SOL    HW188676   4.857   7.744   1.365  1.0109 -0.7502  0.3363
29366SOL    HW288677   4.813   7.873   1.299 -2.0039 -1.8905 -0.0650
29367SOL     OW88678   6.095   3.043   1.728  0.4648  0.5917 -0.0333
29367SOL    HW188679   6.075   3.003   1.644  0.0060  1.4581 -0.3505
29367SOL    HW288680   6.023   3.017   1.785  1.6938 -1.5383  0.6637
29368SOL     OW88681   8.577   0.263   4.943  0.3073 -0.1471  0.4297
29368SOL    HW188682   8.627   0.183   4.963  0.3373 -0.5608 -1.1964
29368SOL    HW288683   8.585   0.273   4.848 -1.2591  0.7663  0.3705
29369SOL     OW88684   8.517   3.329   9.452  0.1951 -0.1656  0.5159
29369SOL    HW188685   8.526   3.326   9.356  0.8483  0.4271  0.5551
29369SOL    HW288686   8.424   3.347   9.466 -0.0433 -0.9371  0.0080
29370SOL     OW88687   7.981   7.921   7.481 -0.1287 -0.0251  0.1345
29370SOL    HW188688   8.061   7.928   7.534  0.2760 -1.7401 -0.1868
29370SOL    HW288689   7.917   7.882   7.541  0.4965 -2.5217 -0.7168
29371SOL     OW88690   1.061   8.423   3.405  0.0488 -0.0691 -0.9571
29371SOL    HW188691   1.011   8.370   3.343 -0.9197  0.1644 -0.3995
29371SOL    HW288692   1.028   8.397   3.491  0.7965  0.1965 -0.5816
29372SOL     OW88693   7.573   1.302   0.402 -0.0501  0.3816  0.3493
29372SOL    HW188694   7.583   1.264   0.315  1.2088 -1.0233  1.0621
29372SOL    HW288695   7.527   1.234   0.452 -0.5743  1.0901  0.8390
29373SOL     OW88696   6.815   9.448   8.710 -0.2860  0.1108 -0.3711
29373SOL    HW188697   6.742   9.496   8.669 -0.7301 -0.3919 -0.1805
29373SOL    HW288698   6.815   9.479   8.801  0.0480  0.4650 -0.4876
29374SOL     OW88699   7.866   5.011   5.719 -0.1682  0.0741  0.0837
29374SOL    HW188700   7.835   5.043   5.635  0.0015  0.2289  0.0787
29374SOL    HW288701   7.800   4.947   5.747 -0.1775 -0.0442 -0.2084
29375SOL     OW88702   7.375   7.150   3.619  0.0191  0.3966  0.0437
29375SOL    HW188703   7.309   7.204   3.663 -2.3728 -0.1685 -2.5471
29375SOL    HW288704   7.325   7.098   3.556  3.0330  0.4839 -2.6682
29376SOL     OW88705   0.701   7.008   4.467 -0.1519  0.1018  0.1061
29376SOL    HW188706   0.793   7.003   4.494 -0.4916 -0.4629  1.2141
29376SOL    HW288707   0.701   6.978   4.376  0.5636 -1.5216  0.5963
29377SOL     OW88708   7.771   6.316   1.653  0.0482 -0.4349 -0.2544
29377SOL    HW188709   7.855   6.277   1.678 -0.6995 -0.5720  2.2691
29377SOL    HW288710   7.795   6.386   1.591  2.0407 -0.3024  0.5788
29378SOL     OW88711   2.152   5.765   1.923 -0.4068  0.4459 -0.4887
29378SOL    HW188712   2.213   5.831   1.952 -1.1856  0.6706  0.7082
29378SOL    HW288713   2.131   5.715   2.002 -1.1286 -0.1438 -1.0370
29379SOL     OW88714   4.537   4.119   6.876 -0.2558  0.6523 -0.2249
29379SOL    HW188715   4.474   4.100   6.946  0.6152  0.1357  0.4441
29379SOL    HW288716   4.578   4.202   6.902 -1.4207  1.5773 -1.2321
29380SOL     OW88717   7.987   4.889   5.452 -0.4650  0.9649  0.0468
29380SOL    HW188718   8.034   4.820   5.404 -0.6197  1.9865 -1.6535
29380SOL    HW288719   7.898   4.885   5.418 -1.2930  0.0477  2.1583
29381SOL     OW88720   3.023   1.552   7.448  0.1406 -0.5192 -0.2045
29381SOL    HW188721   3.076   1.588   7.519 -2.8310  2.6108  0.7073
29381SOL    HW288722   2.991   1.469   7.483 -0.2751  0.3655  1.6917
29382SOL     OW88723   3.649   4.365   5.606 -0.0069  0.2076  0.1784
29382SOL    HW188724   3.570   4.411   5.577 -0.1875 -0.8873 -1.1961
29382SOL    HW288725   3.684   4.419   5.676 -0.4832  2.1892 -1.0262
29383SOL     OW88726   5.601   8.461   6.568 -0.4384  0.1822  0.5330
29383SOL    HW188727   5.626   8.453   6.476  0.5753 -0.2695  0.8248
29383SOL    HW288728   5.678   8.500   6.610 -0.2864 -1.0342  1.4332
29384SOL     OW88729   8.886   8.049   0.929 -0.2152  0.0499  0.0764
29384SOL    HW188730   8.826   8.015   0.862 -2.9193  0.5578  2.0873
29384SOL    HW288731   8.935   7.972   0.959 -0.5670 -0.5670 -0.8992
29385SOL     OW88732   0.653   4.462   8.533 -0.2625 -0.3680  0.3406
29385SOL    HW188733   0.664   4.554   8.557 -0.8506 -0.4451  0.9104
29385SOL    HW288734   0.664   4.415   8.615 -0.0728 -0.8029  0.0665
29386SOL     OW88735   1.935   1.049   4.925 -0.2523  0.0377 -0.7654
29386SOL    HW188736   1.945   0.988   4.853  1.0281 -0.4851 -0.1703
29386SOL    HW288737   2.018   1.045   4.972 -0.5361  1.4462 -0.0963
29387SOL     OW88738   1.048   3.832   2.605 -0.1309 -0.3590 -0.1650
29387SOL    HW188739   0.987   3.765   2.576  0.5656 -0.0096 -2.6482
29387SOL    HW288740   1.105   3.847   2.530  1.8919  0.6006  1.4571
29388SOL     OW88741   5.360   1.711   6.202  0.0600  0.0284 -0.4262
29388SOL    HW188742   5.278   1.719   6.154 -0.1242  2.3510  0.1669
29388SOL    HW288743   5.339   1.654   6.276 -0.1040 -2.1160 -2.0336
29389SOL     OW88744   0.603   5.837   4.448  0.1506  0.1658 -0.4870
29389SOL    HW188745   0.596   5.926   4.413 -0.5222 -0.0571 -0.9176
29389SOL    HW288746   0.536   5.833   4.516  1.2552  0.5011  0.6545
29390SOL     OW88747   9.619   2.046   4.875  0.4740  0.0536  0.3548
29390SOL    HW188748   9.627   2.137   4.905 -2.0535 -0.1678  2.0277
29390SOL    HW288749   9.555   2.050   4.804 -0.0994 -0.4443  0.8262
29391SOL     OW88750   5.248   6.244   5.651  0.4121 -0.4073 -0.0629
29391SOL    HW188751   5.325   6.231   5.596  1.0593 -1.0248  0.9385
29391SOL    HW288752   5.201   6.161   5.647 -1.7281  0.8040 -2.8277
29392SOL     OW88753   4.928   2.244   0.906 -0.2075  0.3326 -0.4117
29392SOL    HW188754   4.833   2.237   0.893 -0.6413  0.1723  2.3344
29392SOL    HW288755   4.940   2.242   1.000  2.5276  0.9031 -0.6563
29393SOL     OW88756   0.273   8.691   9.356  0.0722  0.5396 -0.1723
29393SOL    HW188757   0.261   8.639   9.436 -1.5001 -0.4163 -0.9960
29393SOL    HW288758   0.210   8.762   9.364  0.3858  0.8281 -0.2609
29394SOL     OW88759   3.122   0.962   6.738  0.4224 -0.0572  0.4088
29394SOL    HW188760   3.113   0.888   6.797  1.0766  0.3643  1.0540
29394SOL    HW288761   3.035   0.974   6.700 -0.4506  0.6688  2.4962
29395SOL     OW88762   5.808   3.218   8.329  0.5576 -0.0365  0.0835
29395SOL    HW188763   5.898   3.251   8.328  0.8362 -0.7687  0.2372
29395SOL    HW288764   5.762   3.270   8.264  0.7102  1.3971  1.0762
29396SOL     OW88765   8.002   0.631   0.414 -0.1326 -0.0074  0.1975
29396SOL    HW188766   7.933   0.566   0.429 -0.3678 -0.1916 -1.5356
29396SOL    HW288767   8.018   0.669   0.501 -1.8060 -0.5579  0.7855
29397SOL     OW88768   5.380   4.148   8.767  0.1128  0.4377 -0.1593
29397SOL    HW188769   5.392   4.053   8.774  0.7959  0.4955 -0.4987
29397SOL    HW288770   5.356   4.162   8.675  0.6172  0.6491 -0.2642
29398SOL     OW88771   4.767   5.384   5.014 -0.1830  0.1870  0.5110
29398SOL    HW188772   4.681   5.422   4.998 -1.2106 -2.2367 -0.3201
29398SOL    HW288773   4.777   5.385   5.109 -0.8761  0.9665  0.5827
29399SOL     OW88774   1.104   3.087   8.754 -0.6782  0.2753  0.6718
29399SOL    HW188775   1.013   3.106   8.778 -1.0341 -0.5572  0.0296
29399SOL    HW288776   1.129   3.014   8.810 -0.9036 -0.4525 -0.1373
29400SOL     OW88777   4.082   7.103   5.799 -0.2968 -0.1328 -0.1031
29400SOL    HW188778   4.155   7.109   5.860 -0.7934 -1.7008  0.6797
29400SOL    HW288779   4.008   7.076   5.852 -1.2653  0.5943 -1.0423
29401SOL     OW88780   6.516   7.504   0.823  0.4806  0.6110 -0.1314
29401SOL    HW188781   6.498   7.486   0.915  1.0400 -0.1777 -0.1682
29401SOL    HW288782   6.489   7.424   0.777  2.9006 -0.1849 -0.3232
29402SOL     OW88783   1.836   5.959   5.936  0.4965 -0.0334 -0.2703
29402SOL    HW188784   1.813   5.884   5.881 -0.6386  2.3995 -3.3845
29402SOL    HW288785   1.911   6.000   5.893 -0.6890  2.1980 -0.3765
29403SOL     OW88786   1.203   0.360   9.519 -0.6713 -0.2075  0.3368
29403SOL    HW188787   1.141   0.287   9.519 -1.0786  0.1345 -0.2459
29403SOL    HW288788   1.269   0.334   9.584 -0.1572 -1.6498 -0.6933
29404SOL     OW88789   0.751   5.997   6.746 -0.0951 -0.5329 -0.7648
29404SOL    HW188790   0.672   5.944   6.737 -1.0978  0.8324 -0.3363
29404SOL    HW288791   0.820   5.934   6.765 -1.2528 -1.6771 -0.1788
29405SOL     OW88792   3.037   6.757   6.209  0.3715  0.3363 -0.5279
29405SOL    HW188793   3.115   6.713   6.244  0.3655  1.3702  0.8995
29405SOL    HW288794   3.071   6.834   6.164  0.1588  1.1360  0.6505
29406SOL     OW88795   3.957   9.847   8.617 -0.1086 -0.5747 -0.4943
29406SOL    HW188796   4.029   9.801   8.574  0.2720 -0.1301 -0.3346
29406SOL    HW288797   3.898   9.777   8.646  1.6927 -1.1889  1.9803
29407SOL     OW88798   7.535   9.400   9.388  0.3810 -0.3635  0.2820
29407SOL    HW188799   7.451   9.355   9.381  0.0147  0.4360 -0.8008
29407SOL    HW288800   7.512   9.493   9.384  1.3109 -0.1339  0.0123
29408SOL     OW88801   5.918   6.873   5.335  0.0033 -0.0857 -0.3665
29408SOL    HW188802   5.862   6.929   5.281  0.6459 -0.6498 -1.6671
29408SOL    HW288803   5.992   6.852   5.278  2.0867  1.4415  1.5886
29409SOL     OW88804   1.030   6.708   3.672 -0.3110 -0.1473 -0.1352
29409SOL    HW188805   1.100   6.773   3.671  0.7337 -1.1841 -2.8425
29409SOL    HW288806   0.951   6.759   3.654  0.0761  0.7057  0.4938
29410SOL     OW88807   9.825   2.537   8.264  0.0177 -0.8132  0.2152
29410SOL    HW188808   9.913   2.511   8.235  0.2731  0.4406 -0.1777
29410SOL    HW288809   9.806   2.477   8.336  1.6492 -0.4207  1.0286
29411SOL     OW88810   0.182   1.169   0.599  0.8518 -0.6257 -0.1517
29411SOL    HW188811   0.216   1.256   0.579  0.6714  0.4327  3.4307
29411SOL    HW288812   0.117   1.152   0.532  1.1191  1.8545 -1.1435
29412SOL     OW88813   9.059   1.024   3.338 -0.6305  0.1111 -0.0491
29412SOL    HW188814   9.149   1.040   3.311 -0.3479  2.3104  1.8328
29412SOL    HW288815   9.042   0.933   3.314  1.6325  0.0122 -1.5882
29413SOL     OW88816   0.477   4.755   2.034 -0.0843 -0.5344 -0.2604
29413SOL    HW188817   0.534   4.700   2.087  1.3258  1.2271  0.1650
29413SOL    HW288818   0.420   4.798   2.096  0.6171  0.4586 -0.2763
29414SOL     OW88819   3.317   6.407   8.943  0.3864  0.0349  0.5393
29414SOL    HW188820   3.334   6.461   9.020 -1.4185  0.4697  0.6644
29414SOL    HW288821   3.246   6.451   8.897  0.9581 -0.5918 -1.0287
29415SOL     OW88822   5.743   4.535   7.028  0.1586 -0.0400 -0.4213
29415SOL    HW188823   5.807   4.604   7.016  0.8363 -0.6592 -0.4233
29415SOL    HW288824   5.794   4.458   7.054 -0.0168 -1.6135 -4.0356
29416SOL     OW88825   2.361   1.146   4.544  0.0707 -0.0891 -0.3606
29416SOL    HW188826   2.323   1.068   4.503 -0.7793  0.4729 -0.6739
29416SOL    HW288827   2.289   1.187   4.591  0.3042  0.9402 -0.8642
29417SOL     OW88828   6.314   9.059   0.426  0.7212 -0.4988  0.2377
29417SOL    HW188829   6.230   9.029   0.392  0.9273  0.7123 -1.5052
29417SOL    HW288830   6.367   8.980   0.432 -0.0461 -1.0640 -0.1765
29418SOL     OW88831   5.746   9.453   4.050 -0.5778 -0.6630  0.3776
29418SOL    HW188832   5.715   9.371   4.009  0.8605 -0.1496 -1.9220
29418SOL    HW288833   5.841   9.442   4.056 -0.5952 -0.0199  2.1238
29419SOL     OW88834   8.605   4.453   1.603  0.2050 -0.2968 -0.5068
29419SOL    HW188835   8.620   4.420   1.514  1.3026  0.8754 -0.8044
29419SOL    HW288836   8.558   4.383   1.648 -1.5777 -0.4063 -2.3846
29420SOL     OW88837   3.440   4.083   5.856  0.3963 -0.4331 -0.1006
29420SOL    HW188838   3.457   3.991   5.876 -0.6653 -1.5274 -3.6672
29420SOL    HW288839   3.498   4.103   5.782 -0.3358  1.3897 -0.2256
29421SOL     OW88840   4.527   9.914   7.129 -0.6420  0.1794 -0.0427
29421SOL    HW188841   4.521   9.990   7.187 -0.1989  0.5702 -0.4897
29421SOL    HW288842   4.469   9.849   7.167 -0.7680  0.6261  0.5360
29422SOL     OW88843   5.128   8.520   6.492  0.0648  0.2493 -0.1298
29422SOL    HW188844   5.118   8.443   6.436 -0.2715  0.2610 -0.0919
29422SOL    HW288845   5.221   8.525   6.512 -0.0199 -0.6078  0.5183
29423SOL     OW88846   0.392   5.789   7.867  0.3232  0.2931  0.6624
29423SOL    HW188847   0.379   5.702   7.829 -5.6562 -0.7396  3.9402
29423SOL    HW288848   0.388   5.848   7.792 -0.4100 -1.9962 -1.2451
29424SOL     OW88849   4.245   2.155   8.675  0.2874 -0.0655 -0.0238
29424SOL    HW188850   4.319   2.106   8.639  1.3211  1.6569 -0.3384
29424SOL    HW288851   4.283   2.209   8.744 -0.4766  1.5350 -0.7880
29425SOL     OW88852   2.574   3.596   8.807  0.5652 -0.0295  0.1411
29425SOL    HW188853   2.482   3.588   8.784  0.8971 -2.6230 -0.5510
29425SOL    HW288854   2.621   3.584   8.725  1.5820  2.8839  0.1638
29426SOL     OW88855   8.753   3.491   8.184 -0.3375  0.4081  0.0252
29426SOL    HW188856   8.673   3.523   8.142 -0.7068  0.0805  0.4794
29426SOL    HW288857   8.771   3.407   8.141 -0.2692  0.4517 -0.0332
29427SOL     OW88858   7.461   0.756   0.419 -0.1496 -0.1828 -0.0915
29427SOL    HW188859   7.523   0.694   0.380  0.1913  0.2908 -0.3092
29427SOL    HW288860   7.432   0.714   0.500 -2.3146 -2.0933 -1.7027
29428SOL     OW88861   0.192   7.072   0.346  0.1616  0.3141 -0.4648
29428SOL    HW188862   0.152   6.986   0.357  1.7022 -0.3700  0.0995
29428SOL    HW288863   0.264   7.057   0.284 -0.0116  1.3703 -0.9483
29429SOL     OW88864   0.230   2.329   6.335  0.2801  0.2753 -0.1221
29429SOL    HW188865   0.247   2.249   6.286  0.9487 -1.0328  2.1465
29429SOL    HW288866   0.229   2.302   6.426  3.0620  3.2398  0.9447
29430SOL     OW88867   4.215   4.662   6.062 -0.1610 -0.4004 -0.1159
29430SOL    HW188868   4.266   4.581   6.051  1.1062  0.5449 -1.7082
29430SOL    HW288869   4.172   4.674   5.977 -3.2735 -1.2329  1.2105
29431SOL     OW88870   5.979   2.477   6.930  0.1504  0.3720 -0.2082
29431SOL    HW188871   6.006   2.397   6.974  1.2432  0.5280 -0.5710
29431SOL    HW288872   5.935   2.529   6.997  2.2063  0.8228  0.8614
29432SOL     OW88873   1.605   9.902   8.775 -0.0579  0.3825  0.1136
29432SOL    HW188874   1.596   9.995   8.798  0.9249  0.2708  0.9763
29432SOL    HW288875   1.605   9.856   8.858 -3.2861 -0.7092 -0.3460
29433SOL     OW88876   2.522   0.062   9.076  0.2549 -0.8160 -0.5081
29433SOL    HW188877   2.552   0.146   9.040 -0.1935 -0.6562 -0.5254
29433SOL    HW288878   2.496   0.011   8.999  1.9281 -1.5549 -0.6198
29434SOL     OW88879   4.337   3.793   0.851 -0.2763 -0.4890  0.5557
29434SOL    HW188880   4.285   3.787   0.771  0.5190  1.5381 -0.1877
29434SOL    HW288881   4.295   3.863   0.902 -0.1250 -1.0064  1.4188
29435SOL     OW88882   0.167   5.830   1.583  0.3493  0.6156 -0.3672
29435SOL    HW188883   0.177   5.925   1.583  0.8393  0.6578 -3.0482
29435SOL    HW288884   0.076   5.815   1.610  0.5813  1.7310  1.1587
29436SOL     OW88885   9.688   1.394   7.600  0.2883  0.4770 -0.0788
29436SOL    HW188886   9.626   1.379   7.671 -2.9479  1.5685 -2.4571
29436SOL    HW288887   9.706   1.488   7.603  0.6827  0.4111 -0.2911
29437SOL     OW88888   1.382   5.556   4.977  0.5845  0.1887  0.3048
29437SOL    HW188889   1.459   5.535   5.029 -0.4898  1.1528  2.3767
29437SOL    HW288890   1.399   5.644   4.943  0.3159  0.4881  0.9382
29438SOL     OW88891   6.944   9.893   0.789 -0.2540 -0.1887 -0.0546
29438SOL    HW188892   6.852   9.910   0.772 -0.5148 -0.6099  0.8815
29438SOL    HW288893   6.946   9.806   0.829  0.6479 -0.6220 -0.9850
29439SOL     OW88894   9.394   7.482   7.047  0.7169 -0.1790 -0.1571
29439SOL    HW188895   9.456   7.446   6.984  1.5312 -0.2143  0.6540
29439SOL    HW288896   9.316   7.426   7.038  0.7804 -0.1215 -1.1911
29440SOL     OW88897   0.300   7.904   3.372  0.0601 -0.1380  0.1520
29440SOL    HW188898   0.220   7.853   3.358  0.2529 -0.5950  0.6500
29440SOL    HW288899   0.276   7.967   3.441 -0.3347  0.8212 -0.8421
29441SOL     OW88900   5.488   8.095   3.228  0.0416 -0.1653 -0.2127
29441SOL    HW188901   5.453   8.155   3.293 -1.1700  0.0339 -1.0293
29441SOL    HW288902   5.421   8.027   3.219  0.8614 -1.0058 -0.1788
29442SOL     OW88903   5.743   8.712   3.636  0.1785  0.2568 -0.1972
29442SOL    HW188904   5.794   8.653   3.691 -1.0850 -2.3789 -1.6754
29442SOL    HW288905   5.667   8.661   3.610 -0.2842  2.0584 -2.7722
29443SOL     OW88906   2.887   5.721   0.772  0.4791  0.1469 -0.0422
29443SOL    HW188907   2.970   5.760   0.796  0.1590  0.8453 -0.0442
29443SOL    HW288908   2.860   5.671   0.850  1.5159 -1.1767 -0.5002
29444SOL     OW88909   0.041   8.898   4.441  0.1574  0.3219 -0.7040
29444SOL    HW188910  -0.001   8.951   4.374 -1.5413 -1.5337 -1.1931
29444SOL    HW288911   0.077   8.823   4.394 -3.3452 -2.4380  0.5311
29445SOL     OW88912   5.298   1.361   5.454  0.0589 -0.0493  0.0746
29445SOL    HW188913   5.297   1.454   5.476  1.1036  0.1266 -0.5656
29445SOL    HW288914   5.377   1.328   5.497 -2.0755 -1.4337  3.2897
29446SOL     OW88915   8.210   5.146   1.568  0.2465 -0.3319  0.8704
29446SOL    HW188916   8.180   5.211   1.504 -1.7567 -0.3194  1.7349
29446SOL    HW288917   8.284   5.103   1.526 -0.2397  0.5074 -0.9494
29447SOL     OW88918   6.357   4.863   8.107  0.2808 -0.2664 -0.2838
29447SOL    HW188919   6.401   4.879   8.023 -0.5161  0.5505 -0.5578
29447SOL    HW288920   6.395   4.781   8.139  1.4993  0.0591 -0.8442
29448SOL     OW88921   2.494   1.962   0.673  0.5478 -0.2273 -0.8246
29448SOL    HW188922   2.575   1.973   0.623 -0.1620  0.6611 -1.7910
29448SOL    HW288923   2.524   1.955   0.764  1.7416 -0.4016 -1.2063
29449SOL     OW88924   4.302   4.311   0.353 -0.2649 -0.5580  0.7038
29449SOL    HW188925   4.360   4.332   0.280  0.9579  0.4413  1.9039
29449SOL    HW288926   4.213   4.322   0.317  0.2995  0.8734 -0.3775
29450SOL     OW88927   3.062   3.851   0.141 -0.0029  0.4564  0.3748
29450SOL    HW188928   3.007   3.847   0.063  1.7202  2.0908 -1.0373
29450SOL    HW288929   3.131   3.786   0.127  1.0982  1.6826 -0.2027
29451SOL     OW88930   3.071   8.729   3.391  0.1546  0.0699  0.1591
29451SOL    HW188931   3.086   8.754   3.300 -0.7606  1.4213  0.3457
29451SOL    HW288932   3.132   8.657   3.407  2.8639  2.0632 -0.4881
29452SOL     OW88933   0.613   6.397   7.074  0.1772 -0.1556  1.0930
29452SOL    HW188934   0.677   6.362   7.012  0.5506  0.1407  1.3100
29452SOL    HW288935   0.644   6.485   7.094 -1.4708  0.8574 -0.4818
29453SOL     OW88936   6.104   1.012   5.909  0.5163  0.4548 -0.7062
29453SOL    HW188937   6.187   1.058   5.916  1.0933 -0.1177 -3.0041
29453SOL    HW288938   6.038   1.079   5.925  1.3909  1.2278 -0.2479
29454SOL     OW88939   6.209   5.748   3.108  0.2642  0.0147 -0.1257
29454SOL    HW188940   6.279   5.730   3.170 -0.2091  1.7014  0.9827
29454SOL    HW288941   6.219   5.841   3.087 -0.6350 -0.1168 -1.2520
29455SOL     OW88942   3.737   5.666   1.865 -0.5534 -0.9968 -0.2776
29455SOL    HW188943   3.776   5.628   1.943  1.6811 -0.2793 -0.9478
29455SOL    HW288944   3.758   5.604   1.795 -1.3763 -0.9926 -0.5399
29456SOL     OW88945   5.917   8.617   6.244  0.2746 -0.1429 -0.8929
29456SOL    HW188946   5.987   8.677   6.220  1.3197 -0.9268  0.0843
29456SOL    HW288947   5.962   8.535   6.266 -0.8663 -0.4631  0.4089
29457SOL     OW88948   8.827   0.775   2.471  0.2872  0.3947  0.2117
29457SOL    HW188949   8.779   0.840   2.419 -0.3820 -1.1406 -1.1531
29457SOL    HW288950   8.918   0.785   2.444  0.2237  0.8688  0.1551
29458SOL     OW88951   3.794   8.083   3.573  0.3937 -0.2699 -0.3493
29458SOL    HW188952   3.818   8.131   3.494 -3.2586 -0.0054 -1.5040
29458SOL    HW288953   3.707   8.116   3.596  1.0879 -0.6852  3.5825
29459SOL     OW88954   6.459   7.124   5.667 -0.3129 -0.2966  0.0547
29459SOL    HW188955   6.472   7.178   5.589 -0.4108 -1.4099 -0.7498
29459SOL    HW288956   6.432   7.186   5.734  0.7925  0.8396 -0.5043
29460SOL     OW88957   7.167   5.180   5.987  0.0730 -0.3844 -0.3728
29460SOL    HW188958   7.144   5.262   6.031  0.3105 -1.0692  1.0961
29460SOL    HW288959   7.091   5.160   5.933  0.2929  1.1483 -1.3243
29461SOL     OW88960   8.394   8.020   4.104  0.5163 -0.0140  0.4613
29461SOL    HW188961   8.399   8.100   4.052  3.4318 -0.2397  0.2499
29461SOL    HW288962   8.380   7.950   4.040  0.1300  0.0990  0.4196
29462SOL     OW88963   2.382   4.616   2.697  0.3032  0.7452  0.2549
29462SOL    HW188964   2.477   4.625   2.687  0.0988  1.6246 -1.1903
29462SOL    HW288965   2.361   4.534   2.654  0.5210 -0.0497  1.6015
29463SOL     OW88966   7.793   7.117   6.447 -0.1086 -0.0226 -0.5810
29463SOL    HW188967   7.798   7.211   6.430 -0.5098  0.5431  1.9527
29463SOL    HW288968   7.872   7.098   6.500 -0.8561 -0.7357  0.3231
29464SOL     OW88969   1.924   8.974   1.728  0.2782 -0.1204  0.4129
29464SOL    HW188970   1.968   8.889   1.738 -0.4563 -0.3787  1.6034
29464SOL    HW288971   1.854   8.973   1.793 -1.0805  0.5517 -0.9686
29465SOL     OW88972   8.034   8.761   4.313 -0.2753  0.5611 -0.2752
29465SOL    HW188973   8.013   8.819   4.240  0.2186  1.5305  0.3316
29465SOL    HW288974   7.958   8.767   4.371 -0.6535 -0.1833 -0.6841
29466SOL     OW88975   9.607   8.935   8.272 -0.1064  0.5802  0.4521
29466SOL    HW188976   9.602   9.022   8.312  0.5979  0.4031  0.9411
29466SOL    HW288977   9.536   8.934   8.208 -1.6347  0.6505  2.1050
29467SOL     OW88978   9.111   5.283   7.698  0.0976 -0.7480 -0.3536
29467SOL    HW188979   9.178   5.335   7.654 -0.8234  1.1514  0.3748
29467SOL    HW288980   9.054   5.253   7.627 -0.3312  0.7166 -0.6535
29468SOL     OW88981   8.289   1.851   6.216  0.0320  0.8180  0.2027
29468SOL    HW188982   8.376   1.876   6.246 -0.7795  1.4832  2.1974
29468SOL    HW288983   8.245   1.933   6.196  0.0280  0.4545 -1.3781
29469SOL     OW88984   4.794   5.532   0.938  0.1317 -0.5465  0.6887
29469SOL    HW188985   4.725   5.590   0.968  0.1825  0.5971 -1.2374
29469SOL    HW288986   4.749   5.468   0.883  0.1732 -1.9926  2.2524
29470SOL     OW88987   9.775   0.765   7.726 -0.6100  0.0773  0.8241
29470SOL    HW188988   9.820   0.807   7.799  1.0074 -0.4300  0.1682
29470SOL    HW288989   9.715   0.703   7.768  1.9143 -1.8872  1.7993
29471SOL     OW88990   4.542   6.696   7.027 -0.4902  0.1881  0.6265
29471SOL    HW188991   4.551   6.620   6.969 -1.7606  0.4456  0.0484
29471SOL    HW288992   4.466   6.675   7.082 -0.5567  0.8219  0.7811
29472SOL     OW88993   1.627   8.958   6.792  0.6898 -0.0876 -0.1609
29472SOL    HW188994   1.680   9.036   6.807  1.2580 -0.5707  0.3902
29472SOL    HW288995   1.539   8.983   6.821  0.5028  0.8354 -1.4092
29473SOL     OW88996   9.879   7.599   0.390 -0.5305  0.0463  0.3682
29473SOL    HW188997   9.871   7.694   0.398  0.2193  0.1869 -0.4584
29473SOL    HW288998   9.881   7.583   0.295 -0.4347 -0.7766  0.5049
29474SOL     OW88999   9.944   0.154   3.465  0.6689 -0.0695 -0.0958
29474SOL    HW189000  10.010   0.085   3.457  1.0153  0.3363 -0.8506
29474SOL    HW289001   9.899   0.155   3.381  0.1116  0.0683  0.2031
29475SOL     OW89002   2.088   4.867   6.696 -0.6476 -0.0928  0.5934
29475SOL    HW189003   2.167   4.883   6.746 -1.1212 -1.2228  1.7461
29475SOL    HW289004   2.088   4.936   6.628  0.4584  0.9133  1.5726
29476SOL     OW89005   4.687   1.665   4.011 -0.0235  0.2677 -0.3696
29476SOL    HW189006   4.746   1.718   4.065 -0.7481  0.0787  0.6381
29476SOL    HW289007   4.602   1.710   4.017 -0.3138 -0.2307 -0.6568
29477SOL     OW89008   3.943   7.837   7.965 -0.8256 -0.8785 -0.3163
29477SOL    HW189009   3.983   7.753   7.984  1.2526  0.1162 -0.0528
29477SOL    HW289010   3.951   7.887   8.046 -1.9838 -0.3739 -0.4799
29478SOL     OW89011   9.281   4.870   1.808 -0.1228 -0.2264 -0.5082
29478SOL    HW189012   9.354   4.921   1.842 -0.5903  0.0225  0.1511
29478SOL    HW289013   9.293   4.870   1.713  1.3198 -1.0968 -0.3515
29479SOL     OW89014   9.195   7.690   2.961 -0.2795  0.1420 -0.2382
29479SOL    HW189015   9.123   7.723   2.906  0.2027  1.6524 -0.0034
29479SOL    HW289016   9.158   7.613   3.004 -1.4320  0.2939 -0.9046
29480SOL     OW89017   6.083   6.088   0.823  0.3278  0.2423 -0.0013
29480SOL    HW189018   6.065   6.116   0.913 -0.4449 -0.0679 -0.0486
29480SOL    HW289019   6.091   6.170   0.774 -1.9986  0.4547 -0.1504
29481SOL     OW89020   3.285   2.302   8.929  0.0565 -0.3025 -0.0437
29481SOL    HW189021   3.315   2.283   8.840 -0.6095  0.0911 -0.3660
29481SOL    HW289022   3.365   2.324   8.977  0.4964 -1.1555 -0.3733
29482SOL     OW89023   5.261   4.736   0.551 -0.1298 -0.5962  0.0507
29482SOL    HW189024   5.212   4.735   0.634 -1.3968  0.1834 -0.6549
29482SOL    HW289025   5.218   4.670   0.497 -1.1273  0.8063 -0.9394
29483SOL     OW89026   4.026   8.033   6.571  0.4783 -0.2040 -0.1114
29483SOL    HW189027   4.058   7.958   6.520  3.1105  2.2096 -2.3522
29483SOL    HW289028   4.094   8.046   6.638  0.5277  0.6839 -0.3240
29484SOL     OW89029   3.723   2.352   6.160  0.1236  0.2835  0.0518
29484SOL    HW189030   3.682   2.268   6.140 -1.5925  0.4932  2.2573
29484SOL    HW289031   3.663   2.393   6.223  2.2275  2.0121  1.0416
29485SOL     OW89032   8.564   2.044   6.958  0.5938 -0.2130 -0.2300
29485SOL    HW189033   8.493   2.097   6.921  0.8626 -1.1349 -2.2156
29485SOL    HW289034   8.579   2.081   7.045 -2.1993  0.1117  0.2174
29486SOL     OW89035   4.575   6.386   6.263  0.2985  0.9226  0.1769
29486SOL    HW189036   4.554   6.293   6.251  1.6887  0.7194 -0.8703
29486SOL    HW289037   4.501   6.420   6.315 -0.0841 -0.8165  0.8605
29487SOL     OW89038   0.245   2.016   8.083  0.3360 -0.0698 -0.2651
29487SOL    HW189039   0.227   1.938   8.031 -0.9816  0.7742 -1.1472
29487SOL    HW289040   0.162   2.035   8.126  0.9091  0.3105  0.6965
29488SOL     OW89041   0.279   6.980   7.276  0.0617 -0.2819 -0.5247
29488SOL    HW189042   0.367   6.945   7.289  0.2726 -0.8499 -2.9733
29488SOL    HW289043   0.292   7.056   7.220 -0.8588  0.7859  0.6787
29489SOL     OW89044   7.727   5.319   8.399 -0.0129 -0.7791  0.0702
29489SOL    HW189045   7.643   5.274   8.390  0.1678 -1.0498 -0.3200
29489SOL    HW289046   7.736   5.335   8.492 -1.5463  1.2990 -0.0710
29490SOL     OW89047   0.861   2.645   6.429 -0.3686 -0.1388  0.1129
29490SOL    HW189048   0.931   2.608   6.376 -0.6344 -1.0503  0.3870
29490SOL    HW289049   0.847   2.581   6.499 -2.1864 -0.4939 -0.5260
29491SOL     OW89050   4.964   8.895   6.279  0.3053 -0.1756 -0.1666
29491SOL    HW189051   4.895   8.922   6.339  2.4593  0.3629  2.2217
29491SOL    HW289052   4.950   8.950   6.201 -2.3523 -0.6399 -0.1320
29492SOL     OW89053   0.690   8.678   1.545  0.3243 -0.2476 -0.7720
29492SOL    HW189054   0.638   8.759   1.545  1.9454  0.9654 -4.0333
29492SOL    HW289055   0.778   8.706   1.569  0.4228 -1.5152  0.4197
29493SOL     OW89056   3.043   5.055   7.359  0.1126 -0.3838 -0.5503
29493SOL    HW189057   3.107   5.052   7.430  0.8120 -1.3073 -1.1908
29493SOL    HW289058   3.043   5.147   7.331  0.2708 -0.1363  0.2447
29494SOL     OW89059   9.657   4.938   2.372  0.2563  0.7621 -0.1587
29494SOL    HW189060   9.606   5.019   2.372 -1.4458 -0.2816 -0.1312
29494SOL    HW289061   9.593   4.868   2.365  1.5297 -0.7001  1.6860
29495SOL     OW89062   0.671   6.960   0.998 -0.0261  0.6941  0.4895
29495SOL    HW189063   0.761   6.941   0.973 -0.1355 -1.9167  1.7297
29495SOL    HW289064   0.623   6.965   0.916  0.9247  0.1523 -0.1150
29496SOL     OW89065   3.204   1.430   0.578 -0.0527  0.5437 -0.2904
29496SOL    HW189066   3.109   1.424   0.584  0.0834 -0.8533  1.1116
29496SOL    HW289067   3.232   1.462   0.664  0.7909  0.0100 -0.3528
29497SOL     OW89068   3.284   1.859   4.041  0.3487  0.3403 -0.1618
29497SOL    HW189069   3.214   1.842   3.977  0.4727  2.9948 -1.1181
29497SOL    HW289070   3.365   1.853   3.990  0.7214 -0.8260  0.5292
29498SOL     OW89071   3.803   4.781   5.965  0.4321 -0.9514  0.1774
29498SOL    HW189072   3.874   4.845   5.970 -0.4237  0.1378 -0.8741
29498SOL    HW289073   3.773   4.770   6.055  0.6384  0.1108  0.3905
29499SOL     OW89074   9.772   5.906   4.195 -0.2643  0.2996 -0.5406
29499SOL    HW189075   9.805   5.954   4.118  2.0890 -1.3670 -0.6928
29499SOL    HW289076   9.841   5.917   4.260 -0.1380 -1.9469 -0.2278
29500SOL     OW89077   1.694   1.841   3.948  0.2396 -0.0223  0.0316
29500SOL    HW189078   1.683   1.756   3.991  1.1157 -0.2165 -0.1050
29500SOL    HW289079   1.660   1.904   4.012 -1.3957 -0.5407 -0.3000
29501SOL     OW89080   7.256   4.616   8.291  0.3932  0.3524  0.2162
29501SOL    HW189081   7.261   4.678   8.364  2.0267  0.3961  0.0993
29501SOL    HW289082   7.285   4.666   8.215  1.3050 -0.4131  0.0387
29502SOL     OW89083   5.535   4.901   6.887  0.4731 -0.0048  1.1120
29502SOL    HW189084   5.610   4.913   6.946  0.6872 -0.1044  0.8667
29502SOL    HW289085   5.485   4.830   6.925  1.1057 -0.6969  0.6922
29503SOL     OW89086   0.971   6.944   0.606 -0.3625  0.2945  0.8363
29503SOL    HW189087   0.911   6.946   0.680 -0.8970  0.0920  0.4091
29503SOL    HW289088   0.984   6.852   0.587 -0.4631  0.3490  0.4903
29504SOL     OW89089   0.712   2.930   2.129  0.5277  0.1321 -0.0681
29504SOL    HW189090   0.624   2.964   2.147 -0.0778 -0.9075 -1.0064
29504SOL    HW289091   0.771   2.996   2.166 -0.6422  0.6491  0.9193
29505SOL     OW89092   3.649   5.561   2.736 -0.2810  0.1885  0.0329
29505SOL    HW189093   3.732   5.578   2.782 -1.4286 -1.2870  2.9300
29505SOL    HW289094   3.589   5.627   2.772 -0.7358  0.3146 -0.9479
29506SOL     OW89095   4.798   7.028   8.468 -0.5370  0.2155  0.2098
29506SOL    HW189096   4.846   6.948   8.488 -0.4332 -0.1531 -1.3738
29506SOL    HW289097   4.752   7.009   8.386 -0.3719  1.8212 -0.3038
29507SOL     OW89098   7.654   4.821   5.002  0.2455 -0.1868  0.7488
29507SOL    HW189099   7.657   4.868   4.919  2.5638 -0.9589  0.3270
29507SOL    HW289100   7.735   4.770   5.004 -0.6193 -1.6212  2.6636
29508SOL     OW89101   4.295   4.713   5.703  0.2219 -0.0762  0.6133
29508SOL    HW189102   4.363   4.712   5.636 -0.9949 -0.7246 -0.6418
29508SOL    HW289103   4.296   4.624   5.739 -1.4720 -0.8372 -1.0384
29509SOL     OW89104   5.006   6.448   8.185 -0.8399 -0.5512  0.5384
29509SOL    HW189105   4.911   6.455   8.186 -1.0509 -2.7221  0.3115
29509SOL    HW289106   5.026   6.386   8.255  0.4277 -0.1092  0.6049
29510SOL     OW89107   2.758   3.307   3.046  0.1146 -0.1657 -0.0863
29510SOL    HW189108   2.808   3.276   2.970 -0.1536 -2.1451  0.4746
29510SOL    HW289109   2.670   3.271   3.034 -0.1466  0.1580  0.7533
29511SOL     OW89110   8.546   0.252   6.878 -0.1994 -0.1396  1.3212
29511SOL    HW189111   8.459   0.283   6.855 -0.5591 -1.3204  1.0427
29511SOL    HW289112   8.594   0.332   6.903 -0.8881  0.7168  0.0016
29512SOL     OW89113   9.954   4.661   1.337 -0.1065  0.1562  0.0148
29512SOL    HW189114   9.902   4.681   1.415 -1.0667  0.0872 -0.6044
29512SOL    HW289115   9.924   4.723   1.271  0.2752 -0.1865 -0.4878
29513SOL     OW89116   0.769   3.414   3.551 -0.0356 -0.0731 -0.1612
29513SOL    HW189117   0.789   3.395   3.643  0.7085  0.8668 -0.1139
29513SOL    HW289118   0.674   3.426   3.549  0.0726  1.1505  0.7417
29514SOL     OW89119   2.445   0.876   5.144  0.0588 -0.3729 -0.1898
29514SOL    HW189120   2.426   0.895   5.236 -1.9664 -3.2377  0.1048
29514SOL    HW289121   2.443   0.961   5.101 -0.1853  0.9147  2.1931
29515SOL     OW89122   9.173   8.679   2.148  0.2885  0.0333  0.3339
29515SOL    HW189123   9.140   8.602   2.195 -0.4078  0.7410  1.0214
29515SOL    HW289124   9.250   8.706   2.197  0.4820 -0.1714  0.1443
29516SOL     OW89125   2.984   6.760   7.207  0.1098  0.1726 -0.0366
29516SOL    HW189126   2.960   6.846   7.241 -0.3316  0.2222 -0.4668
29516SOL    HW289127   2.977   6.769   7.112  0.7278 -0.1454 -0.1187
29517SOL     OW89128   4.057   9.277   1.833 -0.2141 -0.2230 -0.3064
29517SOL    HW189129   4.044   9.306   1.923  1.5182  0.6446 -0.2975
29517SOL    HW289130   4.151   9.259   1.827 -0.4056 -0.8617 -1.7826
29518SOL     OW89131   4.380   5.929   4.670 -0.0398  0.0059  0.4996
29518SOL    HW189132   4.298   5.975   4.653  0.2446  0.1456 -0.5549
29518SOL    HW289133   4.412   5.966   4.753  0.3146  1.9214 -0.4321
29519SOL     OW89134   5.984   7.913   2.470  0.0055 -0.3415 -0.5308
29519SOL    HW189135   5.955   7.960   2.548 -0.6061  2.4045 -2.2545
29519SOL    HW289136   6.065   7.958   2.443 -1.4682  1.0020 -3.1564
29520SOL     OW89137   9.367   1.351   3.626  0.5544 -0.0749  0.1364
29520SOL    HW189138   9.424   1.374   3.553  1.2742  1.7066  1.2051
29520SOL    HW289139   9.421   1.294   3.681  0.8410  0.4929  0.4511
29521SOL     OW89140   5.330   9.905   2.039 -0.1607  0.2310 -0.4377
29521SOL    HW189141   5.315   9.999   2.035 -1.9411  0.0220  0.3722
29521SOL    HW289142   5.259   9.871   2.094  0.6396 -1.5423 -0.4105
29522SOL     OW89143   5.907   5.390   8.606 -0.2494  0.1399 -0.0632
29522SOL    HW189144   5.968   5.462   8.621 -0.6037  0.8042 -1.5568
29522SOL    HW289145   5.934   5.322   8.668  1.2923  0.8332  0.0797
29523SOL     OW89146   4.264   8.622   0.229 -0.0621 -0.0578  0.5876
29523SOL    HW189147   4.222   8.676   0.162  0.2549  0.5577  0.8743
29523SOL    HW289148   4.341   8.585   0.186 -0.4217 -0.4974  0.3138
29524SOL     OW89149   8.761   7.918   4.329  0.2601  0.1885 -0.0093
29524SOL    HW189150   8.734   7.885   4.414 -0.7572 -1.2757 -0.8611
29524SOL    HW289151   8.693   7.982   4.305  0.5323  0.5810  0.2499
29525SOL     OW89152   0.914   5.347   7.506  0.4133  0.0277 -0.4008
29525SOL    HW189153   0.944   5.340   7.415  0.9569 -0.4472 -0.1899
29525SOL    HW289154   0.847   5.416   7.503  1.7300  1.3592 -0.8519
29526SOL     OW89155   1.056   8.855   9.089 -0.0910 -0.1639 -0.1488
29526SOL    HW189156   1.112   8.860   9.166 -1.9276 -0.2887  1.2379
29526SOL    HW289157   1.050   8.762   9.069  0.0678 -0.1606 -0.2151
29527SOL     OW89158   5.319   9.795   1.413 -0.6224  0.2335  0.3064
29527SOL    HW189159   5.374   9.780   1.490  0.2479  2.2268  0.1419
29527SOL    HW289160   5.351   9.733   1.348 -0.4635 -0.5390  1.1038
29528SOL     OW89161   9.878   0.841   2.006 -0.1179 -0.0128  0.2052
29528SOL    HW189162   9.810   0.871   1.946 -0.9233 -0.5233  0.8390
29528SOL    HW289163   9.901   0.754   1.975  1.1814  0.6479 -0.7679
29529SOL     OW89164   2.009   3.960   9.032  0.5625 -0.3065 -0.1374
29529SOL    HW189165   2.059   4.022   8.980 -2.0714 -0.1887 -2.7941
29529SOL    HW289166   1.968   3.901   8.968  0.4704 -2.9038  2.0866
29530SOL     OW89167   3.573   3.431   9.234  0.1759 -0.0772 -0.7362
29530SOL    HW189168   3.562   3.521   9.266  0.0063  0.4208 -2.1241
29530SOL    HW289169   3.484   3.397   9.229  0.1863 -0.0886 -0.8434
29531SOL     OW89170   7.662   8.700   2.107  0.0621 -0.3156 -0.3264
29531SOL    HW189171   7.631   8.682   2.196 -0.8461 -0.5100 -0.6716
29531SOL    HW289172   7.628   8.788   2.088 -0.4908 -0.6275 -0.7971
29532SOL     OW89173   2.985   0.828   7.149 -0.4850  0.1854  0.4346
29532SOL    HW189174   2.990   0.734   7.133  0.0819  0.2420  0.2433
29532SOL    HW289175   3.076   0.855   7.159 -0.5679  0.8657 -0.4775
29533SOL     OW89176   5.412   3.261   1.491  0.1124  0.4278  0.6334
29533SOL    HW189177   5.501   3.253   1.456 -1.0191 -0.1602 -2.4164
29533SOL    HW289178   5.419   3.330   1.557  2.6033  1.2005 -0.2954
29534SOL     OW89179   1.656   9.974   5.845 -0.0316 -0.0133  0.5007
29534SOL    HW189180   1.662   9.936   5.933  2.5127 -1.1582 -0.0833
29534SOL    HW289181   1.742   9.957   5.806 -1.2245  0.0859 -2.3616
29535SOL     OW89182   0.989   8.300   4.862  0.1525 -0.4564  0.3683
29535SOL    HW189183   0.940   8.234   4.911 -1.2613  1.1575  1.1902
29535SOL    HW289184   0.957   8.384   4.894  0.3432  0.6757 -2.1733
29536SOL     OW89185   2.854   1.939   5.972  0.5843 -1.1435  0.0490
29536SOL    HW189186   2.897   1.957   5.889  2.1055 -0.8084  0.8616
29536SOL    HW289187   2.762   1.961   5.958  1.0875  0.3521 -1.1035
29537SOL     OW89188   8.299   0.793   5.676 -0.4073  0.4148 -0.1923
29537SOL    HW189189   8.372   0.738   5.704 -0.2008  1.0782  0.5836
29537SOL    HW289190   8.280   0.763   5.587  1.6747  1.1391 -0.9338
29538SOL     OW89191   6.843   6.439   6.069 -0.1557 -0.0413 -0.3983
29538SOL    HW189192   6.777   6.374   6.094  0.0278 -0.2783 -0.5296
29538SOL    HW289193   6.831   6.510   6.133 -0.7025  0.0294 -0.5737
29539SOL     OW89194   0.653   4.359   7.938 -0.2639 -0.3408 -0.4617
29539SOL    HW189195   0.618   4.320   7.858 -0.6446 -0.1708 -0.3812
29539SOL    HW289196   0.600   4.322   8.008  1.0723 -1.6819 -0.1252
29540SOL     OW89197   2.520   8.358   8.697 -0.7100  0.4684  0.2265
29540SOL    HW189198   2.498   8.266   8.681  0.0761  0.0186  1.5651
29540SOL    HW289199   2.444   8.406   8.663 -0.7116 -0.5813 -1.3968
29541SOL     OW89200   8.739   7.359   7.476  0.0313 -0.0444 -0.2016
29541SOL    HW189201   8.784   7.287   7.519 -0.8579 -1.2056 -1.1487
29541SOL    HW289202   8.771   7.437   7.520  0.1398 -1.0849  1.6736
29542SOL     OW89203   5.804   6.655   9.321  0.2843 -0.2667 -0.1577
29542SOL    HW189204   5.764   6.649   9.408  0.4912 -3.6448 -0.1516
29542SOL    HW289205   5.783   6.571   9.280  1.3690  0.6974 -2.8797
29543SOL     OW89206   2.484   6.709   4.949  0.5242  0.0231  0.0242
29543SOL    HW189207   2.541   6.662   4.889  0.3344 -0.2987  0.0931
29543SOL    HW289208   2.472   6.649   5.023  2.6982  1.2987  1.5477
29544SOL     OW89209   5.603   3.935   7.061  0.1708 -0.3856 -0.0527
29544SOL    HW189210   5.513   3.965   7.047 -0.2034 -1.4734 -0.1313
29544SOL    HW289211   5.655   3.988   7.001 -0.3302  0.6377  0.3836
29545SOL     OW89212   1.246   8.287   3.231  1.1597 -0.0399  0.4198
29545SOL    HW189213   1.202   8.328   3.305 -0.3337 -0.5752 -0.1323
29545SOL    HW289214   1.305   8.355   3.197 -0.6626  1.4193  0.0069
29546SOL     OW89215   0.844   9.576   4.012 -0.3245  0.1378  0.1349
29546SOL    HW189216   0.768   9.547   4.063 -0.6102 -0.9738 -0.8815
29546SOL    HW289217   0.912   9.511   4.032 -0.5076 -0.4306 -1.0553
29547SOL     OW89218   9.514   0.568   6.876  0.0050 -0.0357  0.1407
29547SOL    HW189219   9.530   0.614   6.957  0.4866  0.0601 -0.0085
29547SOL    HW289220   9.454   0.497   6.900 -0.9513  0.8176  0.3153
29548SOL     OW89221   0.362   8.976   4.257  0.2171 -0.1948  0.3285
29548SOL    HW189222   0.283   8.995   4.206  1.0421  1.5163 -0.3912
29548SOL    HW289223   0.411   8.915   4.202  0.8651  1.2537 -0.7806
29549SOL     OW89224   6.391   9.096   4.997 -0.0650 -0.1648 -0.2024
29549SOL    HW189225   6.484   9.077   4.992  0.1932  0.7102  1.0256
29549SOL    HW289226   6.349   9.010   4.985  0.9253 -0.7982  0.6796
29550SOL     OW89227   2.512   7.443   8.818 -0.2617 -0.1797  0.2879
29550SOL    HW189228   2.532   7.378   8.751  1.6468  1.5800 -0.9689
29550SOL    HW289229   2.416   7.441   8.825 -0.6262  0.0196 -2.9944
29551SOL     OW89230   6.529   9.344   6.299  0.1217  0.4100 -0.1179
29551SOL    HW189231   6.457   9.286   6.275  0.8406  0.0223 -1.4803
29551SOL    HW289232   6.488   9.418   6.343 -1.2626  0.7892 -1.9205
29552SOL     OW89233   5.429   5.390   4.857  0.0885 -0.8655 -0.0953
29552SOL    HW189234   5.365   5.362   4.922 -0.1793 -0.7934 -0.3240
29552SOL    HW289235   5.400   5.477   4.831  0.3302 -0.7971 -0.1381
29553SOL     OW89236   3.730   0.780   8.487 -0.1919  0.4553  0.6237
29553SOL    HW189237   3.757   0.749   8.573  0.7471  1.8086  0.8430
29553SOL    HW289238   3.689   0.865   8.503  0.5535  1.0137 -0.3152
29554SOL     OW89239   9.202   9.446   7.418 -0.1101 -0.1594  0.1458
29554SOL    HW189240   9.208   9.541   7.422  1.1070 -0.2197  0.0132
29554SOL    HW289241   9.173   9.428   7.328 -1.1570  0.1045  0.4181
29555SOL     OW89242   6.373   7.365   5.757  0.2516 -0.0268  0.0465
29555SOL    HW189243   6.341   7.415   5.832  1.5570  1.8192 -0.5422
29555SOL    HW289244   6.330   7.404   5.681  0.8589 -0.1517 -0.3781
29556SOL     OW89245   2.361   1.455   8.922 -0.5468 -0.4927 -0.0496
29556SOL    HW189246   2.299   1.493   8.984 -0.2016  0.0787 -0.0508
29556SOL    HW289247   2.428   1.415   8.976  2.0638  3.5463  0.1620
29557SOL     OW89248   3.325   2.199   3.232  0.1543 -0.2872 -0.0213
29557SOL    HW189249   3.327   2.282   3.279 -1.0898  0.3173 -0.9807
29557SOL    HW289250   3.252   2.151   3.270 -0.4068 -0.0904 -0.8295
29558SOL     OW89251   0.529   4.132   2.683  0.3402 -0.1446  0.1085
29558SOL    HW189252   0.602   4.071   2.690 -0.4550 -0.9444  1.8530
29558SOL    HW289253   0.526   4.177   2.767 -0.2146  1.0249 -0.5039
29559SOL     OW89254   3.077   7.780   9.570  0.4162  0.3852 -0.3974
29559SOL    HW189255   2.997   7.800   9.522 -0.2769  0.9069  0.9022
29559SOL    HW289256   3.101   7.692   9.543 -1.1637 -0.1676 -0.0979
29560SOL     OW89257   0.983   9.503   7.705 -0.0175 -0.1304 -0.3550
29560SOL    HW189258   0.922   9.434   7.676  1.9801 -2.2617  0.2224
29560SOL    HW289259   0.957   9.521   7.795 -1.2340  0.7055 -0.8505
29561SOL     OW89260   1.051   3.424   7.058 -0.0763  0.2880  0.3902
29561SOL    HW189261   0.957   3.434   7.042 -0.6877 -3.0610  1.1316
29561SOL    HW289262   1.079   3.357   6.995  0.8584 -1.6653  2.7182
29562SOL     OW89263   1.008   6.542   2.644 -0.4966  0.0013 -0.0135
29562SOL    HW189264   1.103   6.551   2.638 -0.4946 -0.7652 -3.2517
29562SOL    HW289265   0.978   6.627   2.677  1.2618  0.6320  0.0563
29563SOL     OW89266   1.633   6.054   6.169 -0.2495 -0.0561  0.0378
29563SOL    HW189267   1.702   6.024   6.110 -0.6335 -1.2766  0.1834
29563SOL    HW289268   1.553   6.048   6.118 -0.6523 -1.6063  0.8133
29564SOL     OW89269   3.772   0.842   2.812 -0.2486  0.1102  0.2413
29564SOL    HW189270   3.763   0.777   2.882 -1.8519 -0.5876 -0.5611
29564SOL    HW289271   3.685   0.881   2.805 -0.6429 -1.0354 -2.4549
29565SOL     OW89272   0.685   6.453   1.098  0.2714 -0.5618 -0.6620
29565SOL    HW189273   0.748   6.398   1.146  1.8714  1.6216 -0.1329
29565SOL    HW289274   0.601   6.431   1.138  0.8553 -2.4312 -0.3176
29566SOL     OW89275   0.300   1.323   3.476 -0.2072  0.3998 -0.1306
29566SOL    HW189276   0.372   1.376   3.441 -1.5167  1.0826 -1.9661
29566SOL    HW289277   0.310   1.238   3.434 -0.4475  0.4963 -0.3903
29567SOL     OW89278   8.828   9.318   9.500  0.4875 -0.4644 -0.6545
29567SOL    HW189279   8.757   9.272   9.544 -0.0966 -0.2583 -1.3562
29567SOL    HW289280   8.819   9.409   9.528  0.8712 -0.5527 -0.2435
29568SOL     OW89281   5.106   2.320   9.530 -0.4031  0.4660  0.7298
29568SOL    HW189282   5.080   2.375   9.456  1.3617  0.9938  0.4539
29568SOL    HW289283   5.092   2.231   9.499 -0.1518  0.6922 -0.0642
29569SOL     OW89284   8.065   8.865   4.702  0.4952  0.5525 -0.1709
29569SOL    HW189285   7.977   8.895   4.724 -0.2108 -0.6859 -1.1348
29569SOL    HW289286   8.107   8.939   4.659 -0.7340  0.6059 -1.3310
29570SOL     OW89287   9.806   4.638   8.893 -0.3414  0.5511  0.4198
29570SOL    HW189288   9.803   4.580   8.968  3.2314  0.3313  0.5768
29570SOL    HW289289   9.806   4.726   8.930 -0.3197  0.4834  0.5814
29571SOL     OW89290   2.525   7.317   5.721  0.2365  0.0894  0.1867
29571SOL    HW189291   2.583   7.381   5.680 -0.1775  0.6628  0.4802
29571SOL    HW289292   2.523   7.341   5.814  0.6564 -0.8029  0.4451
29572SOL     OW89293   4.957   8.591   3.544  0.1515 -0.6898 -0.1810
29572SOL    HW189294   4.973   8.498   3.525  3.1534 -0.2500 -0.1880
29572SOL    HW289295   4.935   8.629   3.460  0.0079 -1.1941 -0.3766
29573SOL     OW89296   2.222   1.141   7.739 -0.5708 -0.7203  0.1816
29573SOL    HW189297   2.296   1.107   7.788  0.1771  0.5058 -0.0471
29573SOL    HW289298   2.195   1.219   7.788 -1.1672 -0.6773 -0.2018
29574SOL     OW89299   9.358   3.893   3.014  0.6673  0.2864  0.0450
29574SOL    HW189300   9.281   3.838   3.025  1.2951 -0.6142  0.0713
29574SOL    HW289301   9.363   3.943   3.095 -1.2137  2.1195 -0.8832
29575SOL     OW89302   5.833   7.300   0.299 -0.3310  0.3848  0.1062
29575SOL    HW189303   5.865   7.210   0.293 -0.9185  0.2312 -1.1099
29575SOL    HW289304   5.795   7.306   0.387  0.5056 -0.2682  0.5297
29576SOL     OW89305   1.958   3.710   7.057  0.9918  0.4747 -0.4337
29576SOL    HW189306   1.912   3.789   7.084  0.0360 -0.4175  0.6306
29576SOL    HW289307   2.020   3.693   7.128  2.1293  0.9687 -1.2713
29577SOL     OW89308   9.421   6.000   2.241  0.5837 -0.1589 -0.1092
29577SOL    HW189309   9.515   5.996   2.258  0.5930  0.5757  0.0442
29577SOL    HW289310   9.399   5.913   2.207  1.2256 -0.4903  0.2965
29578SOL     OW89311   9.880   5.852   5.543  0.2655  0.2671  0.2807
29578SOL    HW189312   9.865   5.926   5.601 -3.1178  0.0588 -0.1524
29578SOL    HW289313   9.847   5.776   5.590  1.3970 -0.6243 -0.2824
29579SOL     OW89314   8.371   5.766   9.366  0.0462 -0.0331  0.4030
29579SOL    HW189315   8.455   5.786   9.408  0.3958  0.4247 -0.4856
29579SOL    HW289316   8.384   5.790   9.274 -0.7383 -0.8944  0.0526
29580SOL     OW89317   7.827   6.502   0.530  0.1995  0.0670 -0.1658
29580SOL    HW189318   7.785   6.417   0.544 -0.9761  0.0624 -3.0800
29580SOL    HW289319   7.824   6.515   0.435  1.1227  2.9951  0.1160
29581SOL     OW89320   3.022   0.273   1.078 -0.2683 -0.2413  0.2842
29581SOL    HW189321   3.082   0.273   1.152 -0.0835 -0.1077  0.1337
29581SOL    HW289322   2.985   0.184   1.078  0.1566 -0.4201  0.1924
29582SOL     OW89323   8.179   4.374   0.206 -0.4407  0.2061  0.1603
29582SOL    HW189324   8.225   4.354   0.124 -0.5960  1.4001 -0.2406
29582SOL    HW289325   8.168   4.289   0.249 -1.3193 -0.6067 -1.5694
29583SOL     OW89326   1.528   2.944   5.325  0.2518  0.2287 -0.1078
29583SOL    HW189327   1.578   3.023   5.346  1.1856 -0.3678 -0.0627
29583SOL    HW289328   1.570   2.908   5.247 -0.7775  0.2944 -0.7143
29584SOL     OW89329   2.238   8.088   5.572  0.0533  0.2821  0.3216
29584SOL    HW189330   2.302   8.136   5.624 -0.7770  0.7200  0.9721
29584SOL    HW289331   2.289   8.044   5.504  1.6351 -2.9200  3.3154
29585SOL     OW89332   9.482   6.269   1.080  0.0446  0.0389 -0.4336
29585SOL    HW189333   9.455   6.278   1.171  2.6287 -0.4631  0.4617
29585SOL    HW289334   9.473   6.175   1.062  2.8084 -0.5225  0.5460
29586SOL     OW89335   7.937   4.059   8.332  0.6562  0.2224 -0.2492
29586SOL    HW189336   7.942   4.019   8.245 -1.6080  0.5034 -0.5702
29586SOL    HW289337   7.930   3.985   8.392 -2.1666 -0.0132 -0.7296
29587SOL     OW89338   0.198   8.803   4.692  0.2981  0.2811 -0.6834
29587SOL    HW189339   0.154   8.849   4.620  0.9053 -0.4979 -1.5909
29587SOL    HW289340   0.287   8.788   4.659  1.3904  2.1068  1.2339
29588SOL     OW89341   2.138   5.437   7.059  0.5382 -0.2851  0.0867
29588SOL    HW189342   2.044   5.440   7.079  0.8547 -0.6830  1.8218
29588SOL    HW289343   2.162   5.529   7.043  0.3337  0.2324  2.3179
29589SOL     OW89344   3.687   5.025   3.879  0.2569 -0.0741 -0.0722
29589SOL    HW189345   3.649   5.082   3.946 -0.3965 -0.7419  0.1310
29589SOL    HW289346   3.782   5.038   3.887  0.1283  0.7433  0.1788
29590SOL     OW89347   9.435  -0.003   5.408  0.2949 -0.0043  0.1634
29590SOL    HW189348   9.473   0.006   5.320 -0.8318  2.0264 -0.1736
29590SOL    HW289349   9.425   0.087   5.439 -0.9772 -0.6250  1.6606
29591SOL     OW89350   3.353   0.601   6.202 -0.6144  1.0258 -0.1486
29591SOL    HW189351   3.400   0.650   6.135 -0.2135  0.7264 -0.0871
29591SOL    HW289352   3.278   0.657   6.224  0.3464  2.0658  0.6048
29592SOL     OW89353   2.152   1.573   8.524  1.0703  0.0628 -0.3750
29592SOL    HW189354   2.103   1.615   8.595 -0.3830 -1.3335 -0.4906
29592SOL    HW289355   2.231   1.539   8.566  0.8826  0.4313  0.2908
29593SOL     OW89356   1.693   8.786   8.105  0.2486 -0.1700  0.2004
29593SOL    HW189357   1.600   8.801   8.122  0.1910 -0.3489  0.0414
29593SOL    HW289358   1.697   8.698   8.068  0.7232 -1.2108  2.5402
29594SOL     OW89359   1.844   7.480   6.340 -0.1448  0.2649 -0.4527
29594SOL    HW189360   1.845   7.538   6.264 -1.4271 -0.4709 -1.0805
29594SOL    HW289361   1.832   7.538   6.415  0.6696  0.9642 -0.8585
29595SOL     OW89362   9.936   9.369   5.590 -0.3083  0.1700  0.6920
29595SOL    HW189363   9.888   9.447   5.620 -1.9299 -0.5378  0.0680
29595SOL    HW289364   9.912   9.360   5.498 -0.7836 -1.4826  0.9403
29596SOL     OW89365   4.919   8.310   4.952 -0.2241  0.1077  0.7732
29596SOL    HW189366   4.890   8.233   4.904 -2.2545  1.0723  0.3490
29596SOL    HW289367   5.002   8.284   4.992  0.6243 -1.3466 -1.7164
29597SOL     OW89368   3.158   4.892   3.876  0.1002 -0.1926 -0.1302
29597SOL    HW189369   3.240   4.843   3.885  1.2804  1.4243 -1.3635
29597SOL    HW289370   3.121   4.894   3.964  0.0510 -3.1128 -0.0034
29598SOL     OW89371   5.671   3.351   4.112  0.0588  1.2138 -0.4960
29598SOL    HW189372   5.655   3.350   4.207  3.0514  0.7917  0.0886
29598SOL    HW289373   5.598   3.300   4.076  0.5646 -1.5443  1.9640
29599SOL     OW89374   9.001   8.685   8.025 -0.1004  0.8176 -0.5971
29599SOL    HW189375   9.045   8.717   7.946  0.1127  3.7387  0.6002
29599SOL    HW289376   8.993   8.590   8.010 -1.2106  1.3531 -4.6415
29600SOL     OW89377   1.228   9.182   5.662 -0.0824 -0.0813 -0.6919
29600SOL    HW189378   1.210   9.235   5.740  0.9254 -1.8284  0.8237
29600SOL    HW289379   1.181   9.226   5.591  2.1312  3.8843  0.0078
29601SOL     OW89380   6.416   2.303   1.357  0.0395  0.1921  0.2486
29601SOL    HW189381   6.428   2.283   1.264  0.6762 -1.1458  0.5834
29601SOL    HW289382   6.481   2.370   1.376  0.2087  0.1550 -0.1838
29602SOL     OW89383   8.970   2.071   8.840 -0.1314  0.3348 -0.4338
29602SOL    HW189384   8.943   2.152   8.797  0.9559  0.7737 -0.3166
29602SOL    HW289385   9.023   2.099   8.915  0.0909 -0.4726 -0.2722
29603SOL     OW89386   9.084   1.428   4.703  0.4880 -0.1193 -0.5562
29603SOL    HW189387   9.037   1.402   4.782 -0.3538  1.2804 -0.5710
29603SOL    HW289388   9.032   1.499   4.666  1.7411  0.3555 -1.4768
29604SOL     OW89389   9.421   9.194   0.730  0.4742  0.1945 -0.3646
29604SOL    HW189390   9.388   9.145   0.806 -0.6718  0.8698 -0.4047
29604SOL    HW289391   9.473   9.130   0.682 -0.1125 -0.6982  0.1511
29605SOL     OW89392   2.256   2.125   7.243  0.4569 -0.2290 -0.1636
29605SOL    HW189393   2.268   2.052   7.305  1.0349  0.0606  0.0764
29605SOL    HW289394   2.242   2.082   7.159 -0.9193 -0.6384  0.2507
29606SOL     OW89395   7.827   5.136   2.851  0.3000 -0.0658 -0.0870
29606SOL    HW189396   7.739   5.153   2.885 -0.4778  3.6024 -3.2421
29606SOL    HW289397   7.885   5.156   2.925 -1.3956 -0.0420  1.3062
29607SOL     OW89398   9.704   7.113   8.143  0.0953  0.1612  0.4018
29607SOL    HW189399   9.777   7.051   8.134  1.1337  1.3660  0.2518
29607SOL    HW289400   9.626   7.061   8.122  0.8998 -1.1526  0.5204
29608SOL     OW89401   8.355   8.073   5.569 -0.1767  0.0598 -0.5332
29608SOL    HW189402   8.334   8.102   5.658  0.7103 -1.0815  0.0747
29608SOL    HW289403   8.282   8.105   5.516 -0.6823  0.8319  0.5837
29609SOL     OW89404   4.610   9.217   4.612  0.1665 -0.0576  0.4541
29609SOL    HW189405   4.691   9.167   4.600  1.0774  0.9902  1.8488
29609SOL    HW289406   4.627   9.301   4.569 -0.0783  0.2513  0.9485
29610SOL     OW89407   3.493   7.310   4.611  0.7420 -0.2126  0.0390
29610SOL    HW189408   3.416   7.258   4.587  1.1328 -0.7264 -0.0922
29610SOL    HW289409   3.502   7.298   4.705  1.9770 -1.9613 -0.2612
29611SOL     OW89410   8.405   5.280   3.503 -0.7194 -0.0153 -0.3098
29611SOL    HW189411   8.448   5.283   3.417 -0.2635 -0.6751 -0.1124
29611SOL    HW289412   8.437   5.200   3.543 -1.5665 -0.1301  0.1577
29612SOL     OW89413   1.840   3.558   2.381 -0.0241  0.4530 -0.0272
29612SOL    HW189414   1.887   3.475   2.392 -0.1623  0.0827 -1.9513
29612SOL    HW289415   1.752   3.540   2.413  0.6233  0.6948  2.1018
29613SOL     OW89416   6.982   9.019   7.821 -0.1307  0.1865 -0.0659
29613SOL    HW189417   7.011   9.033   7.911 -1.6918 -0.0559  0.5035
29613SOL    HW289418   6.942   8.932   7.821 -1.6304  0.8376 -0.5706
29614SOL     OW89419   4.564   1.142   7.663 -0.4449  0.1538 -0.4802
29614SOL    HW189420   4.546   1.057   7.703 -0.3313 -0.0290 -0.8130
29614SOL    HW289421   4.529   1.134   7.574 -0.5653  0.5077 -0.4669
29615SOL     OW89422   6.686   3.347   5.911  0.3343 -0.1500 -0.4611
29615SOL    HW189423   6.752   3.394   5.963 -0.5036  0.0121  0.5057
29615SOL    HW289424   6.621   3.413   5.890 -1.0218 -0.8790  1.1820
29616SOL     OW89425   1.143   5.713   8.864 -0.0979  0.2839  0.1303
29616SOL    HW189426   1.111   5.645   8.922  2.0720  1.0424  2.3808
29616SOL    HW289427   1.155   5.790   8.920  1.5298  1.2385 -1.3940
29617SOL     OW89428   9.143   5.990   0.634 -0.0662 -0.3370  0.1907
29617SOL    HW189429   9.190   6.050   0.692  0.2555  0.5770 -0.9686
29617SOL    HW289430   9.190   5.907   0.642  1.7110  0.5098 -0.8214
29618SOL     OW89431   2.830   7.799   0.899 -0.8719 -0.1957  0.1632
29618SOL    HW189432   2.869   7.841   0.823 -1.1933  0.9482  0.6043
29618SOL    HW289433   2.747   7.845   0.912 -1.2428 -0.9808  0.6727
29619SOL     OW89434   7.695   1.857   1.187 -0.6050 -0.1708  0.5153
29619SOL    HW189435   7.724   1.935   1.140 -1.2552 -1.1822 -1.7075
29619SOL    HW289436   7.608   1.838   1.150 -1.1124 -1.0931  2.0932
29620SOL     OW89437   2.785   3.441   7.030 -0.1561 -0.4893 -0.9455
29620SOL    HW189438   2.730   3.511   6.993  1.2941  1.8284  0.9414
29620SOL    HW289439   2.744   3.419   7.113  0.2575 -0.7217 -0.7970
29621SOL     OW89440   5.187   0.479   8.181  0.1224 -0.0819  0.5099
29621SOL    HW189441   5.250   0.407   8.188 -0.5487 -1.0669 -2.3444
29621SOL    HW289442   5.102   0.437   8.191 -0.2144  0.6386  0.7181
29622SOL     OW89443   4.616   2.597   2.645 -0.4606  0.2874  0.0065
29622SOL    HW189444   4.618   2.676   2.592  2.5874  0.6106  0.4005
29622SOL    HW289445   4.619   2.629   2.735 -0.1137 -0.2497  0.1924
29623SOL     OW89446   4.503   7.649   9.897  0.0711  0.0124 -0.2673
29623SOL    HW189447   4.444   7.710   9.941  0.3168  0.4033 -0.4701
29623SOL    HW289448   4.454   7.568   9.892 -0.0560  0.0284  0.5073
29624SOL     OW89449   2.417   7.399   6.437 -0.8538  0.0860  0.2075
29624SOL    HW189450   2.443   7.310   6.462 -1.0172 -0.1053 -0.3059
29624SOL    HW289451   2.484   7.427   6.375 -0.6665  0.4167  0.5522
29625SOL     OW89452   3.130   1.275   9.461  0.3607 -0.7284  0.3779
29625SOL    HW189453   3.055   1.297   9.515  0.1918 -0.9713  0.2419
29625SOL    HW289454   3.098   1.208   9.401  0.3038  0.1488 -0.6105
29626SOL     OW89455   4.330   9.535   5.186  0.3851  0.1184  0.5256
29626SOL    HW189456   4.370   9.603   5.131  0.8541  1.1356  2.0570
29626SOL    HW289457   4.402   9.478   5.211  0.0614 -0.7208 -0.4122
29627SOL     OW89458   5.174   0.721   1.097 -0.1784  0.1157  0.4022
29627SOL    HW189459   5.261   0.699   1.062  0.4674  1.8592  0.7966
29627SOL    HW289460   5.137   0.782   1.032 -2.2141 -2.4504 -1.0493
29628SOL     OW89461   8.734   6.476   3.855 -0.1375 -0.1284  0.3633
29628SOL    HW189462   8.716   6.425   3.777  0.7067 -0.6359  0.4767
29628SOL    HW289463   8.819   6.517   3.838  1.8205 -2.9615  2.2494
29629SOL     OW89464   9.940   9.160   1.032 -0.2893  0.0418  0.2358
29629SOL    HW189465   9.947   9.230   1.096 -0.2563  0.9813 -0.7631
29629SOL    HW289466   9.961   9.202   0.948 -1.6556 -0.8260 -0.5846
29630SOL     OW89467   1.393   3.551   9.326 -0.6211  0.4334 -0.5232
29630SOL    HW189468   1.390   3.594   9.411 -0.6187 -0.3566 -0.1130
29630SOL    HW289469   1.374   3.459   9.345  1.4776 -0.1742 -1.0694
29631SOL     OW89470   2.053   4.226   5.478  0.7065  0.0879 -0.0497
29631SOL    HW189471   2.023   4.137   5.496  0.4984  0.3049  0.6752
29631SOL    HW289472   2.133   4.214   5.426  0.5384 -0.5122 -0.1767
29632SOL     OW89473   8.810   2.109   8.401  0.4992  0.6801 -0.2163
29632SOL    HW189474   8.866   2.095   8.478 -0.6873 -0.6584  0.4618
29632SOL    HW289475   8.816   2.027   8.352  1.1797  1.4918 -1.5532
29633SOL     OW89476   8.979   4.967   2.773  0.4432  0.3171  0.0532
29633SOL    HW189477   9.046   4.917   2.820 -0.4558 -1.5756 -0.5560
29633SOL    HW289478   8.989   4.939   2.682 -0.7395  0.4904 -0.1436
29634SOL     OW89479   0.208   6.074   6.693 -0.2619  0.2573  0.2189
29634SOL    HW189480   0.252   6.130   6.629 -0.3847  0.0885 -0.0144
29634SOL    HW289481   0.122   6.057   6.655 -0.0227 -0.5494  0.0161
29635SOL     OW89482   3.938   1.101   5.174 -0.6284  0.5213 -0.2358
29635SOL    HW189483   3.965   1.029   5.117  1.0168  0.8865  0.0237
29635SOL    HW289484   3.912   1.170   5.113 -1.0728  0.1213 -0.5032
29636SOL     OW89485   5.695   3.020   5.182 -0.2005  0.1538 -0.3786
29636SOL    HW189486   5.725   2.937   5.220 -0.1090  0.5760  0.4864
29636SOL    HW289487   5.724   3.087   5.244  0.5348  0.9262 -1.5235
29637SOL     OW89488   5.173   4.795   6.169  0.3696  0.4184 -0.2208
29637SOL    HW189489   5.128   4.879   6.163 -0.8632  0.1268  2.8804
29637SOL    HW289490   5.103   4.730   6.158  1.0853 -0.2062 -1.2491
29638SOL     OW89491   4.806   4.714   3.670 -0.0215 -0.0088 -0.6753
29638SOL    HW189492   4.892   4.757   3.659  0.0361 -0.2860 -1.3491
29638SOL    HW289493   4.790   4.671   3.586 -1.3826  1.0493 -1.0048
29639SOL     OW89494   9.637   9.269   5.533 -0.3614 -0.8241 -0.1161
29639SOL    HW189495   9.689   9.267   5.614 -0.5774 -0.4820  0.0343
29639SOL    HW289496   9.554   9.309   5.559 -0.4968 -0.8716 -0.4717
29640SOL     OW89497   3.549   2.448   9.712  0.1127  0.6873  0.0099
29640SOL    HW189498   3.460   2.413   9.703  1.5566 -2.9219 -2.6536
29640SOL    HW289499   3.545   2.534   9.669 -2.2640  1.1912  1.0709
29641SOL     OW89500   1.193   1.564   2.443 -0.1637  0.6059 -0.1918
29641SOL    HW189501   1.165   1.527   2.359  0.2447 -1.4724  0.5327
29641SOL    HW289502   1.213   1.488   2.497  3.3757  1.8717  0.5343
29642SOL     OW89503   5.570   3.626   4.070  0.2457  0.3279  0.2532
29642SOL    HW189504   5.638   3.683   4.107 -0.0303 -0.1164  1.4810
29642SOL    HW289505   5.604   3.537   4.080  0.1632  0.1908 -0.5854
29643SOL     OW89506   6.193   7.304   3.804  0.3920 -0.3502 -0.2174
29643SOL    HW189507   6.167   7.216   3.777 -0.2200 -0.2353 -0.0121
29643SOL    HW289508   6.252   7.334   3.735  0.9305 -1.0729 -0.0891
29644SOL     OW89509   1.649   9.135   9.760 -0.0758  0.3565 -0.0588
29644SOL    HW189510   1.587   9.168   9.825 -0.0711  0.2286  0.0120
29644SOL    HW289511   1.727   9.112   9.812 -0.1299  0.1057 -0.0888
29645SOL     OW89512   2.763   7.068   8.580  0.6138 -0.1094 -0.0926
29645SOL    HW189513   2.737   6.997   8.522 -1.5333 -0.1378  0.8307
29645SOL    HW289514   2.805   7.132   8.522  0.1409 -0.9258 -1.3717
29646SOL     OW89515   6.645   5.019   3.069 -0.0172 -0.1858 -0.0975
29646SOL    HW189516   6.662   5.016   3.163 -1.0561  0.6711  0.1357
29646SOL    HW289517   6.563   4.970   3.058  0.3491 -0.6954 -0.6313
29647SOL     OW89518   6.136   0.341   8.558 -0.2473 -0.1220 -0.1295
29647SOL    HW189519   6.064   0.344   8.621  1.1999  1.2084  1.5747
29647SOL    HW289520   6.125   0.419   8.504 -0.5850 -0.4153 -0.4928
29648SOL     OW89521   0.942   7.338   3.199 -0.2134  0.0066 -0.4213
29648SOL    HW189522   0.863   7.334   3.145 -0.3052  0.1259 -0.2954
29648SOL    HW289523   0.984   7.253   3.186 -0.8728 -0.4449  0.2920
29649SOL     OW89524   9.046   3.586   6.700 -0.5007  0.5392 -0.5487
29649SOL    HW189525   9.034   3.677   6.727  1.1248  0.3458  1.0223
29649SOL    HW289526   8.958   3.551   6.693 -1.1082  1.4336  1.8005
29650SOL     OW89527   0.998   6.961   8.975 -0.1371  0.1926  0.5998
29650SOL    HW189528   0.972   6.870   8.969  0.5363  0.0140  0.2984
29650SOL    HW289529   0.986   6.984   9.067 -0.5430 -0.1230  0.6264
29651SOL     OW89530  10.004   6.242   2.467  0.1188 -0.2006  0.1396
29651SOL    HW189531   9.980   6.306   2.534  1.3741  2.5079 -1.8097
29651SOL    HW289532   9.940   6.254   2.398  1.5332  0.4692 -1.1145
29652SOL     OW89533   0.912   1.465   6.697 -0.4826 -0.0309  0.3909
29652SOL    HW189534   0.819   1.441   6.706 -0.3090 -0.7070  0.4080
29652SOL    HW289535   0.915   1.516   6.616 -0.5865 -1.5500 -0.6267
29653SOL     OW89536   1.061   7.130   1.894 -0.6242 -0.4221  0.2984
29653SOL    HW189537   1.099   7.183   1.964  0.0461 -0.6464  0.1200
29653SOL    HW289538   1.073   7.039   1.924 -0.0531 -0.5309 -0.2374
29654SOL     OW89539   0.763   8.527   9.319 -0.2648  0.4781  0.4136
29654SOL    HW189540   0.740   8.619   9.331  0.2276  0.6949 -0.2454
29654SOL    HW289541   0.751   8.512   9.225  2.2180  0.5919  0.0170
29655SOL     OW89542   0.140   3.020   9.841 -0.2038  0.1533 -0.2640
29655SOL    HW189543   0.049   3.022   9.810  0.1215  0.9738 -1.2600
29655SOL    HW289544   0.181   3.094   9.796  1.1941 -0.7803 -0.5860
29656SOL     OW89545   3.544   2.587   3.346 -0.1177 -0.3705 -0.3562
29656SOL    HW189546   3.606   2.549   3.284  1.1248 -0.1692  0.7121
29656SOL    HW289547   3.582   2.569   3.432 -1.4961 -0.1252  0.3291
29657SOL     OW89548   0.902   9.121   5.158 -0.3552 -0.1872 -0.3568
29657SOL    HW189549   0.899   9.217   5.153 -1.3076 -0.2221 -0.7754
29657SOL    HW289550   0.993   9.099   5.137 -0.4487  0.5633 -1.7369
29658SOL     OW89551   5.455   1.320   9.554 -0.4574  0.0806 -0.2234
29658SOL    HW189552   5.474   1.361   9.469  0.2521  0.3837  0.0832
29658SOL    HW289553   5.401   1.385   9.600 -2.5470 -0.8659 -1.1738
29659SOL     OW89554   1.635   5.420   0.810 -0.2822 -0.0740  0.4220
29659SOL    HW189555   1.544   5.393   0.796 -0.2108 -0.6618  1.0408
29659SOL    HW289556   1.655   5.389   0.898  0.3363  0.5669  0.5141
29660SOL     OW89557   7.811   4.527   5.446 -0.3366 -0.0443  0.2744
29660SOL    HW189558   7.844   4.543   5.358 -0.8229 -0.4614  0.0073
29660SOL    HW289559   7.719   4.556   5.442 -0.7606 -1.3379  0.2406
29661SOL     OW89560   7.983   6.759   7.832  0.2631  0.5007 -0.6638
29661SOL    HW189561   7.990   6.812   7.753  1.3022  2.1979  0.4996
29661SOL    HW289562   8.060   6.783   7.884  0.1613 -1.3431  0.4282
29662SOL     OW89563   4.012   4.591   8.528  0.2762  0.6949  0.1813
29662SOL    HW189564   3.922   4.558   8.526  0.7074 -0.5834 -2.3179
29662SOL    HW289565   4.058   4.532   8.588 -0.3012  0.6277  0.5626
29663SOL     OW89566   4.574   9.194   8.954 -0.1712 -0.1876 -0.8277
29663SOL    HW189567   4.642   9.215   9.017 -1.9903  1.2798  0.7503
29663SOL    HW289568   4.583   9.100   8.939  1.7246 -0.1520 -0.1521
29664SOL     OW89569   7.437   3.787   0.248  0.1699 -0.5246  0.5497
29664SOL    HW189570   7.389   3.866   0.274 -1.0643 -1.2546  0.5944
29664SOL    HW289571   7.399   3.762   0.164  1.3618 -0.4245 -0.0274
29665SOL     OW89572   1.637   1.100   5.479 -0.0698 -0.3578  0.4747
29665SOL    HW189573   1.552   1.143   5.470 -0.9827 -1.9614  1.1332
29665SOL    HW289574   1.645   1.046   5.400  0.7086  0.3558  0.0428
29666SOL     OW89575   3.932   9.543   1.450  0.6630  0.6533 -0.0511
29666SOL    HW189576   3.950   9.551   1.356  1.1848  2.0019  0.1355
29666SOL    HW289577   3.913   9.451   1.463  0.5442  0.4481 -1.4932
29667SOL     OW89578   2.962   2.230   9.793  0.1428  0.0133  0.1541
29667SOL    HW189579   2.940   2.151   9.842  0.3081  0.1537  0.4591
29667SOL    HW289580   2.881   2.256   9.751  0.1326 -0.4312 -0.1067
29668SOL     OW89581   8.744   1.440   9.215 -0.4223  0.4628 -0.2093
29668SOL    HW189582   8.832   1.460   9.247 -0.9763  1.1945  0.9432
29668SOL    HW289583   8.754   1.432   9.120  1.4591 -2.4779  0.0822
29669SOL     OW89584   6.520   5.456   4.755 -0.1124  0.1227  0.2302
29669SOL    HW189585   6.447   5.510   4.724  0.2827 -0.1489 -1.2499
29669SOL    HW289586   6.586   5.462   4.686  0.9354 -0.3257  1.1476
29670SOL     OW89587   8.935   5.719   3.365 -0.0246  0.4617 -0.4084
29670SOL    HW189588   8.861   5.765   3.326  0.0006  1.0763  0.2506
29670SOL    HW289589   9.003   5.786   3.375  0.4743 -0.0067 -0.6297
29671SOL     OW89590   1.951   1.501   7.481 -0.3610  0.2314  0.0893
29671SOL    HW189591   1.858   1.516   7.463 -0.3433  0.3975  0.1324
29671SOL    HW289592   1.958   1.507   7.576 -0.1709  1.0224  0.0314
29672SOL     OW89593   2.222   8.984   4.434 -0.4782  0.2380  0.2008
29672SOL    HW189594   2.282   9.055   4.412  0.1389  0.0866  1.3215
29672SOL    HW289595   2.144   9.029   4.468 -0.4632  0.3984  0.0283
29673SOL     OW89596   4.567   9.391   0.520 -0.5335  0.0750 -0.5736
29673SOL    HW189597   4.570   9.322   0.585  1.9948  0.4884 -0.1418
29673SOL    HW289598   4.491   9.444   0.544 -1.1935 -1.2668  0.4115
29674SOL     OW89599   4.878   0.526   3.292 -0.1641  0.3698 -0.2983
29674SOL    HW189600   4.916   0.576   3.364 -1.8202 -0.0770  0.9363
29674SOL    HW289601   4.949   0.519   3.228  1.1515  1.3321  0.9866
29675SOL     OW89602   7.230   8.221   1.139  0.1506  0.2600 -0.2697
29675SOL    HW189603   7.295   8.237   1.070  1.3378 -1.1919  0.4496
29675SOL    HW289604   7.238   8.128   1.158 -2.3004 -0.0149 -0.2486
29676SOL     OW89605   0.724   6.214   6.909  0.2972  0.0895 -0.3148
29676SOL    HW189606   0.769   6.149   6.855  0.0712 -0.8486  0.5878
29676SOL    HW289607   0.632   6.188   6.906  0.0826  0.8441 -0.5713
29677SOL     OW89608   1.284   2.550   9.782 -0.4540  0.1841 -0.4424
29677SOL    HW189609   1.296   2.523   9.691  2.6059 -0.2244 -0.0402
29677SOL    HW289610   1.230   2.480   9.820  0.2459 -0.9409 -1.4161
29678SOL     OW89611   5.509   6.276   4.966  0.5240 -0.5255 -0.1713
29678SOL    HW189612   5.438   6.324   4.924  0.1220  0.6709  1.7356
29678SOL    HW289613   5.585   6.333   4.957  0.9279 -1.1657 -0.9644
29679SOL     OW89614   1.717   3.632   2.809 -0.8321 -0.1682  0.8311
29679SOL    HW189615   1.672   3.572   2.750 -2.1231 -0.9026  2.4802
29679SOL    HW289616   1.676   3.717   2.792 -3.1449 -0.8640  2.4679
29680SOL     OW89617   0.218   9.866   3.719 -0.2054 -0.0648 -0.8350
29680SOL    HW189618   0.270   9.811   3.778  0.3288  1.2608 -0.0296
29680SOL    HW289619   0.137   9.883   3.768  1.2250  3.1057  0.7476
29681SOL     OW89620   5.141   1.157   6.219 -0.6928  0.4062  0.0813
29681SOL    HW189621   5.183   1.241   6.202 -3.3176  1.9203  0.6676
29681SOL    HW289622   5.109   1.128   6.134  0.1950 -0.0270 -0.1171
29682SOL     OW89623   5.219   8.753   0.553 -0.3223  0.2138  0.3350
29682SOL    HW189624   5.203   8.720   0.464  0.0044 -1.0686  0.7414
29682SOL    HW289625   5.258   8.679   0.600  0.5453  1.2143  1.2424
29683SOL     OW89626   9.106   8.327   4.479  0.1993  0.0249 -0.0818
29683SOL    HW189627   9.186   8.376   4.456  1.0556 -1.1894  0.2360
29683SOL    HW289628   9.125   8.290   4.565 -0.9012  0.1046  0.2052
29684SOL     OW89629   6.381   7.972   5.253 -0.3157 -0.2335 -0.2373
29684SOL    HW189630   6.364   7.966   5.347 -0.1989  1.7904 -0.0626
29684SOL    HW289631   6.420   8.058   5.240  3.1436 -1.8109 -1.6532
29685SOL     OW89632   1.509   9.700   2.184 -0.5052 -0.3695 -0.6320
29685SOL    HW189633   1.486   9.790   2.163  1.1072 -0.2944 -2.3319
29685SOL    HW289634   1.604   9.697   2.175 -0.6380 -2.5669 -1.9707
29686SOL     OW89635   2.185   3.793   4.815 -0.8238 -0.3803  0.0544
29686SOL    HW189636   2.170   3.887   4.827  0.1720 -0.1513 -0.4020
29686SOL    HW289637   2.104   3.752   4.846 -0.8880  0.5640  1.2170
29687SOL     OW89638   4.471   7.529   0.561 -0.4190 -0.1758 -0.1191
29687SOL    HW189639   4.387   7.507   0.599  0.4942  1.2762  3.1168
29687SOL    HW289640   4.528   7.455   0.583 -0.0526  0.3692  0.8328
29688SOL     OW89641   3.842   3.718   9.262 -0.1110  0.5391  0.4217
29688SOL    HW189642   3.785   3.719   9.339 -2.0834  0.0440 -0.9430
29688SOL    HW289643   3.809   3.790   9.207 -0.5536 -0.7885 -1.1360
29689SOL     OW89644   4.742   6.867   6.880  0.4079 -0.0226 -0.1167
29689SOL    HW189645   4.808   6.827   6.824  0.6155 -1.4892  1.0800
29689SOL    HW289646   4.711   6.795   6.936 -1.5933  0.7988 -0.0507
29690SOL     OW89647   1.157   8.608   5.100  0.3313 -0.4969  0.3481
29690SOL    HW189648   1.095   8.610   5.028  0.6122 -1.3925  0.0623
29690SOL    HW289649   1.243   8.611   5.058  0.4947  0.1098  0.7097
29691SOL     OW89650   0.569   0.695   5.983 -0.7887 -0.3730 -0.3707
29691SOL    HW189651   0.639   0.631   5.973  0.6014  0.9694  0.3174
29691SOL    HW289652   0.569   0.745   5.902  0.1118  0.6142  0.2192
29692SOL     OW89653   9.057   6.522   6.133 -0.2855 -0.5442  0.0294
29692SOL    HW189654   9.054   6.617   6.138 -0.7699 -0.5755  0.3351
29692SOL    HW289655   9.020   6.501   6.047  3.2640 -0.2807 -1.7479
29693SOL     OW89656   8.780   8.992   3.193  0.1977  0.5361  0.6273
29693SOL    HW189657   8.736   9.074   3.214 -2.9883 -0.7409 -0.5798
29693SOL    HW289658   8.804   9.001   3.101  0.4175  0.3429  0.6664
29694SOL     OW89659   8.742   3.482   2.127 -0.0755  0.0222  0.0649
29694SOL    HW189660   8.681   3.424   2.173  0.0790  1.1727  1.8301
29694SOL    HW289661   8.719   3.570   2.158  2.2620  0.5205  0.5685
29695SOL     OW89662   8.327   3.997   8.415 -0.2132  0.7423 -0.0920
29695SOL    HW189663   8.308   4.054   8.340  0.6668  1.3327  0.1202
29695SOL    HW289664   8.339   3.910   8.377  0.1101  1.0160 -0.6248
29696SOL     OW89665   6.221   4.716   6.626  0.2482  0.2185 -0.3996
29696SOL    HW189666   6.148   4.657   6.608 -1.2687  2.2601 -1.2913
29696SOL    HW289667   6.297   4.672   6.588 -0.7520 -1.2971 -0.7284
29697SOL     OW89668   4.175   5.851   0.784 -0.2105 -0.2138  0.8199
29697SOL    HW189669   4.258   5.872   0.826 -0.0426  0.7627  0.0405
29697SOL    HW289670   4.110   5.901   0.834  0.3799  3.9680 -2.0959
29698SOL     OW89671   3.089   6.950   2.771  0.5641 -0.2177 -0.1415
29698SOL    HW189672   3.074   6.903   2.689  0.5888  1.2908 -1.0327
29698SOL    HW289673   3.142   7.026   2.746  0.1136  0.5529  1.1826
29699SOL     OW89674   4.643   0.348   9.161 -0.2252 -0.5514 -0.3585
29699SOL    HW189675   4.628   0.259   9.128 -0.2366 -0.4993 -0.4927
29699SOL    HW289676   4.565   0.367   9.213  0.5748 -1.3166  1.1829
29700SOL     OW89677   6.591   1.705   9.002  0.9684 -0.4442  0.7450
29700SOL    HW189678   6.666   1.647   9.020  0.8272 -1.2436 -1.0310
29700SOL    HW289679   6.626   1.793   9.014  2.2751 -0.7923 -0.2456
29701SOL     OW89680   0.724   4.090   4.196  0.0198  0.3572  0.4479
29701SOL    HW189681   0.771   4.146   4.258  1.1853 -0.9696  0.8291
29701SOL    HW289682   0.692   4.017   4.250  0.5286 -0.5150 -0.3914
29702SOL     OW89683   6.555   8.040   2.530 -0.2856 -0.4101  0.5941
29702SOL    HW189684   6.623   7.990   2.575  0.0047  0.2253  0.8767
29702SOL    HW289685   6.513   7.977   2.473  1.6244 -0.4955 -0.8313
29703SOL     OW89686   7.459   3.717   5.784  0.3112  0.2105  0.1853
29703SOL    HW189687   7.430   3.629   5.759 -2.0266  0.9997 -0.0525
29703SOL    HW289688   7.508   3.704   5.865 -1.8363 -1.0996  1.3387
29704SOL     OW89689   7.578   7.194   9.868 -0.1246 -0.5524  0.4904
29704SOL    HW189690   7.614   7.116   9.908 -0.3206 -0.7205  0.3400
29704SOL    HW289691   7.538   7.164   9.787 -0.8705 -0.4217  0.7996
29705SOL     OW89692   1.923   7.733   9.835  0.2013 -0.1115 -0.5029
29705SOL    HW189693   1.837   7.693   9.841  0.1496 -0.0412 -0.7416
29705SOL    HW289694   1.931   7.758   9.743  1.5031 -2.4271 -1.0932
29706SOL     OW89695   5.020   5.094   8.229  0.3595 -0.2669 -0.4047
29706SOL    HW189696   4.950   5.157   8.213 -0.6624 -1.2103  0.1561
29706SOL    HW289697   5.072   5.132   8.300  0.3116  0.3530 -0.6978
29707SOL     OW89698   5.472   8.589   1.140  0.4213  0.0290 -0.1540
29707SOL    HW189699   5.483   8.586   1.235 -0.8249 -1.7472  0.0082
29707SOL    HW289700   5.399   8.529   1.123  1.7906 -1.1702 -2.3889
29708SOL     OW89701   0.250   3.548   3.599  0.1003 -0.7174  0.2144
29708SOL    HW189702   0.287   3.629   3.634 -2.2965 -0.6440  3.0194
29708SOL    HW289703   0.155   3.558   3.613 -0.3999 -3.4319 -0.6857
29709SOL     OW89704   6.170   0.358   9.218 -0.4571 -0.0237  0.3383
29709SOL    HW189705   6.152   0.328   9.129 -1.7384 -1.0399  0.9027
29709SOL    HW289706   6.254   0.403   9.212 -1.3899  1.6117 -1.7483
29710SOL     OW89707   2.414   8.090   8.577  0.6036  0.7770 -0.5117
29710SOL    HW189708   2.328   8.124   8.603  0.7141  1.1650 -0.6487
29710SOL    HW289709   2.408   7.996   8.593  0.5839  0.9697  0.6678
29711SOL     OW89710   7.890   0.085   7.236  0.0410 -0.8230 -0.2132
29711SOL    HW189711   7.912   0.158   7.178 -0.9629  1.5551  2.2026
29711SOL    HW289712   7.974   0.047   7.261  0.7151  0.7101 -0.0773
29712SOL     OW89713   0.529   0.803   5.117 -0.0422  0.2125 -0.4693
29712SOL    HW189714   0.567   0.858   5.185 -0.9256  0.1980  0.0497
29712SOL    HW289715   0.596   0.736   5.100  1.3997  1.8843 -1.7131
29713SOL     OW89716   1.845   3.718   6.019  0.0413 -0.4410  0.4835
29713SOL    HW189717   1.911   3.784   5.995  1.0547 -0.9051  1.8519
29713SOL    HW289718   1.897   3.645   6.054 -1.1977 -0.9963  1.1999
29714SOL     OW89719   5.007   6.173   9.388 -0.1693  0.3963 -0.7562
29714SOL    HW189720   5.080   6.177   9.449 -1.0044 -1.7231  0.4689
29714SOL    HW289721   5.003   6.261   9.349  2.9410  0.5935 -0.8202
29715SOL     OW89722   3.121   4.867   4.687  0.3671 -0.2972 -0.2239
29715SOL    HW189723   3.027   4.860   4.701  0.6340 -1.0301  1.3585
29715SOL    HW289724   3.133   4.956   4.652 -0.8921 -0.1991 -0.4581
29716SOL     OW89725   0.314   0.705   6.630  0.0275 -0.5479  0.5052
29716SOL    HW189726   0.379   0.750   6.684 -0.4997  0.4273  0.3660
29716SOL    HW289727   0.309   0.758   6.550 -1.8793  0.1878  1.0461
29717SOL     OW89728   8.438   3.029   4.516 -0.5128  0.1110  0.1986
29717SOL    HW189729   8.475   3.073   4.440 -2.2271  1.6008  0.1496
29717SOL    HW289730   8.480   2.943   4.517  2.7348  1.5602  0.1140
29718SOL     OW89731   4.797   6.649   3.377  0.1872 -0.2170  0.2755
29718SOL    HW189732   4.830   6.702   3.305  0.5203 -1.7596 -0.7634
29718SOL    HW289733   4.743   6.582   3.335 -2.8349  1.0801  1.7668
29719SOL     OW89734   4.303   6.008   5.509 -0.9035 -0.3528  0.0498
29719SOL    HW189735   4.362   5.942   5.472 -1.0289  0.2064 -1.1902
29719SOL    HW289736   4.303   6.079   5.445  1.5548  2.2644  2.6757
29720SOL     OW89737   5.575   8.901   0.864  0.9258 -0.1883 -0.1133
29720SOL    HW189738   5.618   8.831   0.913  0.3325 -0.2031  0.4028
29720SOL    HW289739   5.485   8.872   0.854  0.8778  0.1228 -0.6371
29721SOL     OW89740   9.286   3.003   6.504 -0.1386  0.0062 -0.8031
29721SOL    HW189741   9.246   3.090   6.506  1.6326  0.9013 -1.6324
29721SOL    HW289742   9.373   3.017   6.543 -0.8366 -2.0160  1.7196
29722SOL     OW89743   5.747   0.943   0.255 -0.1516 -0.4115  0.0537
29722SOL    HW189744   5.726   0.981   0.340  0.3359 -0.7418  0.3276
29722SOL    HW289745   5.711   1.005   0.191 -0.9162 -0.3904  0.4968
29723SOL     OW89746   1.915   2.184   3.087  0.3025 -0.2777  0.1616
29723SOL    HW189747   1.820   2.178   3.097  0.0334 -0.1173 -1.8989
29723SOL    HW289748   1.949   2.107   3.132 -0.7137  0.1222  1.6935
29724SOL     OW89749   2.354   7.896   1.158  0.5351 -0.3928 -0.4014
29724SOL    HW189750   2.406   7.836   1.104  2.1132  0.5131  0.0473
29724SOL    HW289751   2.329   7.966   1.097 -0.0397 -0.7432 -0.5773
29725SOL     OW89752   4.089   2.671   9.617 -0.1305  0.3988 -0.0334
29725SOL    HW189753   4.152   2.687   9.547 -0.1948  0.4313 -0.0839
29725SOL    HW289754   4.140   2.631   9.687  0.1905  1.5349  0.4012
29726SOL     OW89755   6.020   7.556   8.843  0.1548  0.6075  0.1979
29726SOL    HW189756   5.950   7.491   8.839  1.6293 -0.9925 -3.3160
29726SOL    HW289757   5.993   7.624   8.782  1.0648  0.6113 -0.2157
29727SOL     OW89758   5.637   0.615   2.800  0.2123  0.1658  0.5010
29727SOL    HW189759   5.627   0.528   2.760 -0.7496  0.4074  0.1949
29727SOL    HW289760   5.550   0.636   2.834  0.1405  1.5177 -0.4687
29728SOL     OW89761   7.969  -0.021   1.231  0.0807  0.0010 -0.2795
29728SOL    HW189762   8.056  -0.033   1.270 -0.6707 -0.3675  1.3973
29728SOL    HW289763   7.940   0.064   1.264 -1.0552 -0.8421  1.0098
29729SOL     OW89764   1.262   6.647   7.095  0.9406 -0.7484 -0.8281
29729SOL    HW189765   1.229   6.579   7.036 -0.5086 -0.4218 -0.4551
29729SOL    HW289766   1.340   6.609   7.135  0.6385 -1.8578 -1.2547
29730SOL     OW89767   9.918   9.293   6.244  0.0285 -0.1834  0.8412
29730SOL    HW189768  10.013   9.288   6.243  0.0572  0.3069  0.7289
29730SOL    HW289769   9.899   9.386   6.256 -0.4372 -0.3519  1.4983
29731SOL     OW89770   2.759   8.524   7.478 -0.3824 -0.1372  0.5422
29731SOL    HW189771   2.805   8.451   7.436  0.1805 -0.2860  1.4005
29731SOL    HW289772   2.676   8.487   7.508  0.4860 -0.8102  2.2260
29732SOL     OW89773   0.005   7.665   8.417 -0.0113 -0.1928  0.1429
29732SOL    HW189774  -0.033   7.606   8.352  0.3819 -2.8198  2.1533
29732SOL    HW289775   0.093   7.683   8.385 -0.1956 -0.5452 -0.5795
29733SOL     OW89776   2.187   5.325   7.879  0.5544  0.0041 -0.2345
29733SOL    HW189777   2.219   5.312   7.790  0.1375  2.3975 -0.8269
29733SOL    HW289778   2.112   5.384   7.868  0.0580 -0.2204  1.6473
29734SOL     OW89779   9.806   7.265   8.379 -0.0118 -0.2613 -0.2663
29734SOL    HW189780   9.902   7.268   8.375 -0.0417  0.5725 -0.5729
29734SOL    HW289781   9.779   7.236   8.293 -0.0856  1.4681 -0.8679
29735SOL     OW89782   9.365   1.011   8.484  0.0661  0.1355 -0.5483
29735SOL    HW189783   9.384   1.065   8.560  1.9010  0.1997 -0.9863
29735SOL    HW289784   9.311   0.939   8.517  1.8210 -0.5017  1.0906
29736SOL     OW89785   2.400   3.592   1.988 -0.2139  0.4816  0.3211
29736SOL    HW189786   2.495   3.595   1.998 -0.1436  0.3362 -0.2629
29736SOL    HW289787   2.377   3.500   1.997 -0.2823  0.5003  0.3380
29737SOL     OW89788   1.361   9.850   7.740 -0.1293  0.1771  0.3643
29737SOL    HW189789   1.359   9.909   7.665  0.9185 -2.0147 -1.5196
29737SOL    HW289790   1.271   9.818   7.749  0.0095 -0.6642 -0.9742
29738SOL     OW89791   9.334   8.269   0.589  0.3052  0.5212  0.0116
29738SOL    HW189792   9.327   8.175   0.574  1.9080  0.5163 -0.9618
29738SOL    HW289793   9.375   8.276   0.675 -0.9764  0.3743  0.6526
29739SOL     OW89794   9.089   0.042   9.902 -0.2621 -0.2145  0.1130
29739SOL    HW189795   9.063   0.054   9.811  1.5424 -1.0310 -0.5592
29739SOL    HW289796   9.145   0.117   9.922 -1.9357  0.8295  1.1163
29740SOL     OW89797   4.508   3.160   4.941 -0.0366 -0.5919 -0.6603
29740SOL    HW189798   4.444   3.093   4.916 -0.0865 -1.0420  0.5845
29740SOL    HW289799   4.562   3.117   5.008 -0.7458  0.9259  0.9662
29741SOL     OW89800   5.944   5.184   2.799 -0.1915 -0.2122  0.0003
29741SOL    HW189801   5.973   5.166   2.888 -0.3352 -1.9341 -0.2631
29741SOL    HW289802   5.994   5.124   2.744 -1.9168 -1.0063 -0.7996
29742SOL     OW89803   7.699   3.026   7.734  0.0538 -0.0687 -0.0255
29742SOL    HW189804   7.739   2.941   7.755 -0.8455 -0.7862 -1.1218
29742SOL    HW289805   7.678   3.064   7.819 -0.7711 -1.5577  0.4744
29743SOL     OW89806   9.330   2.058   5.617 -0.5164 -0.1167  0.7285
29743SOL    HW189807   9.326   2.138   5.566 -0.3353  0.4292  1.5545
29743SOL    HW289808   9.255   2.006   5.587  0.0355 -0.1611 -0.6469
29744SOL     OW89809   4.566   4.562   5.250  0.2783 -0.0585 -0.0314
29744SOL    HW189810   4.484   4.583   5.206 -0.3193 -1.6115  0.2751
29744SOL    HW289811   4.541   4.499   5.318  1.4222  0.9587  1.4077
29745SOL     OW89812   3.882   3.526   5.214  0.0192 -0.9435  0.1746
29745SOL    HW189813   3.950   3.528   5.147  0.4872  1.1416  0.6460
29745SOL    HW289814   3.800   3.521   5.166  0.4051 -0.8454 -0.5042
29746SOL     OW89815   4.747   5.498   3.494  0.3370 -0.6602  0.5807
29746SOL    HW189816   4.794   5.509   3.412 -0.6114  0.2495  0.1417
29746SOL    HW289817   4.816   5.486   3.560  1.1921  0.7919 -0.0154
29747SOL     OW89818   4.693   6.939   1.582  0.1472 -0.5010 -0.0850
29747SOL    HW189819   4.678   6.845   1.570 -0.0644 -0.5438  0.4712
29747SOL    HW289820   4.708   6.949   1.676  2.1298 -0.2383 -0.3982
29748SOL     OW89821   3.307   6.696   1.683 -0.1432  0.3645 -0.4699
29748SOL    HW189822   3.400   6.717   1.672 -0.1348  0.8180  0.3771
29748SOL    HW289823   3.295   6.689   1.778 -0.6562 -1.2056 -0.6179
29749SOL     OW89824   8.070   8.289   6.286  0.0442  0.2586  0.3260
29749SOL    HW189825   8.001   8.332   6.337  0.2850  0.5015  0.4520
29749SOL    HW289826   8.082   8.345   6.210 -2.3411 -1.5638 -1.5744
29750SOL     OW89827   6.052   9.724   4.147  0.4053  0.2684 -0.0730
29750SOL    HW189828   6.043   9.764   4.233 -0.3066  1.3548 -0.6269
29750SOL    HW289829   5.979   9.760   4.096  0.3705 -0.9207 -0.9223
29751SOL     OW89830   1.304   7.712   0.808 -0.1833  0.5060 -0.0511
29751SOL    HW189831   1.260   7.789   0.773  1.8119  1.2397 -1.0625
29751SOL    HW289832   1.390   7.743   0.837  1.3167 -1.5505 -1.9223
29752SOL     OW89833   3.537   6.647   7.018  0.3326 -0.1413 -0.0992
29752SOL    HW189834   3.486   6.688   6.948  1.6710 -0.4717 -1.3275
29752SOL    HW289835   3.617   6.618   6.974  2.0598  1.2948  1.9252
29753SOL     OW89836   9.980   2.029   6.320  0.5094 -0.0010 -0.6414
29753SOL    HW189837   9.995   1.955   6.261  2.1748 -0.1094 -0.1546
29753SOL    HW289838   9.918   2.085   6.274 -1.0599 -1.8333 -0.8746
29754SOL     OW89839   6.083   0.620   2.180  0.1659 -0.5505 -0.1399
29754SOL    HW189840   6.023   0.553   2.148 -0.5023  0.1283 -0.3387
29754SOL    HW289841   6.030   0.675   2.237  0.7960 -0.4077  0.3204
29755SOL     OW89842   6.842   7.711   9.043 -0.4179  0.3705  0.5075
29755SOL    HW189843   6.758   7.709   8.996 -1.3744  3.0863  1.8628
29755SOL    HW289844   6.818   7.694   9.134  0.7473 -0.3461  0.6918
29756SOL     OW89845   5.472   7.576   8.398 -0.4589  0.2870 -0.0985
29756SOL    HW189846   5.470   7.520   8.320  1.3264  1.0172 -0.7214
29756SOL    HW289847   5.415   7.531   8.461  0.9336 -2.2985 -0.5403
29757SOL     OW89848   4.392   2.394   7.409 -0.3085 -0.3446 -0.6675
29757SOL    HW189849   4.387   2.370   7.501 -0.3843 -1.0058 -0.8392
29757SOL    HW289850   4.339   2.328   7.364 -0.2095 -0.0732 -1.1904
29758SOL     OW89851   7.178   7.883   1.697 -0.0116 -0.4903  0.2161
29758SOL    HW189852   7.244   7.867   1.630  0.1284  0.2630  0.1573
29758SOL    HW289853   7.201   7.969   1.732 -1.5049  0.2376 -0.4782
29759SOL     OW89854   1.035   2.982   7.330  0.2777 -0.2053 -0.5251
29759SOL    HW189855   1.079   2.919   7.272 -0.7858 -2.1645  0.7104
29759SOL    HW289856   1.091   2.987   7.407  0.0400 -0.0683 -0.3618
29760SOL     OW89857   9.601   0.265   7.398  0.1478  0.1503  0.5051
29760SOL    HW189858   9.619   0.344   7.449 -0.3856  1.3537 -1.0838
29760SOL    HW289859   9.506   0.258   7.398  0.0970  0.6034 -0.9057
29761SOL     OW89860   8.597   9.901   5.190 -0.3484 -0.4107 -0.0739
29761SOL    HW189861   8.604   9.862   5.278 -0.7956  0.9685  0.6049
29761SOL    HW289862   8.643   9.984   5.198  0.9179 -0.9140 -1.5958
29762SOL     OW89863   0.845   0.523   1.197  0.7628  0.7113 -0.1425
29762SOL    HW189864   0.755   0.549   1.177  1.0757  1.0141 -1.2034
29762SOL    HW289865   0.876   0.588   1.260  0.8930  1.8246 -1.3076
29763SOL     OW89866   2.348   0.245   9.574  0.3768  0.5179  0.1490
29763SOL    HW189867   2.273   0.242   9.515  1.5555  1.4167 -1.4743
29763SOL    HW289868   2.394   0.163   9.560  1.4001  1.2896 -1.2782
29764SOL     OW89869   1.146   8.709   2.814 -0.1243 -0.3409  0.2487
29764SOL    HW189870   1.196   8.629   2.829 -0.9243 -0.5598  1.9849
29764SOL    HW289871   1.080   8.684   2.749 -0.6405 -1.2524  1.0874
29765SOL     OW89872   7.931   4.648   9.521  0.3501  0.1416 -0.0157
29765SOL    HW189873   7.897   4.716   9.579  1.7249  0.5372  0.3485
29765SOL    HW289874   8.021   4.675   9.502  0.8902 -1.5214  0.0388
29766SOL     OW89875   3.006   9.659   0.026  0.6063 -0.0596 -0.0498
29766SOL    HW189876   2.948   9.583   0.018  1.1444 -0.5952  0.8985
29766SOL    HW289877   3.085   9.634  -0.022 -0.1656  0.9402 -1.9309
29767SOL     OW89878   0.183   5.324   7.472 -0.2782  0.2915 -0.5396
29767SOL    HW189879   0.150   5.310   7.383 -0.3947 -1.9304 -0.1920
29767SOL    HW289880   0.119   5.281   7.528  1.6808 -1.6057  0.3476
29768SOL     OW89881   0.664   7.530   1.352  0.0396  0.8543  0.2832
29768SOL    HW189882   0.742   7.576   1.383  2.3701 -1.3787 -1.8918
29768SOL    HW289883   0.649   7.463   1.418  1.4222 -0.1778 -0.4161
29769SOL     OW89884   4.996   0.752   5.287  0.4058  0.8252 -0.6015
29769SOL    HW189885   5.073   0.808   5.300  1.3443 -1.0152  3.2545
29769SOL    HW289886   5.033   0.665   5.268 -0.7981  0.2804 -0.5129
29770SOL     OW89887   8.950   9.206   2.773  0.4568 -0.1280 -0.1158
29770SOL    HW189888   9.042   9.180   2.771  0.1767 -1.1223 -2.3935
29770SOL    HW289889   8.920   9.199   2.683 -2.0558 -0.4683  0.6553
29771SOL     OW89890   2.746   4.750   3.060  0.4065  0.0272 -0.2094
29771SOL    HW189891   2.804   4.738   3.136 -0.4840  0.0200  0.4854
29771SOL    HW289892   2.742   4.845   3.048 -0.3772  0.0956  0.5011
29772SOL     OW89893   3.643   1.461   4.830 -0.2486  0.2204 -0.0907
29772SOL    HW189894   3.664   1.527   4.764  1.7143 -0.8922 -0.6845
29772SOL    HW289895   3.550   1.442   4.818 -0.3190  1.2807 -1.3802
29773SOL     OW89896   9.437   9.725   7.268 -0.7860  0.3634 -0.0652
29773SOL    HW189897   9.507   9.767   7.218 -0.5234 -0.6763 -0.6021
29773SOL    HW289898   9.475   9.711   7.355 -0.2969 -0.2622 -0.3761
29774SOL     OW89899   7.806   8.573   7.497  0.4089 -0.0310 -0.2574
29774SOL    HW189900   7.765   8.555   7.581 -0.4619 -1.1385 -0.8966
29774SOL    HW289901   7.877   8.634   7.518 -1.1902  1.5114  0.9609
29775SOL     OW89902   5.550   7.424   0.740 -0.1169  0.4339  0.2232
29775SOL    HW189903   5.562   7.352   0.803  1.8134 -0.6986 -1.3068
29775SOL    HW289904   5.475   7.397   0.687  0.7382 -0.6343 -0.4926
29776SOL     OW89905   7.141   2.188   4.105 -0.0158 -0.3806  0.5411
29776SOL    HW189906   7.057   2.144   4.115 -0.1871 -0.5751 -1.4825
29776SOL    HW289907   7.121   2.265   4.051  1.1303 -0.4837 -0.0396
29777SOL     OW89908   8.336   0.220   0.578  0.3261 -0.0510 -0.4857
29777SOL    HW189909   8.263   0.158   0.578 -0.3214  0.7001 -0.4461
29777SOL    HW289910   8.337   0.255   0.488 -0.0607  0.7352 -0.1947
29778SOL     OW89911   0.026   0.439   0.061 -0.2480  0.3162  0.1048
29778SOL    HW189912   0.088   0.373   0.095 -0.7632  0.3845  1.2081
29778SOL    HW289913  -0.057   0.393   0.056 -0.0908  0.1507 -1.6303
29779SOL     OW89914   8.971   0.923   9.539 -0.3108  0.4325  0.8223
29779SOL    HW189915   8.961   0.845   9.485 -2.0549 -1.0477  3.1317
29779SOL    HW289916   9.064   0.927   9.559 -0.1930 -1.0297  0.6447
29780SOL     OW89917   1.967   8.582   7.050 -0.3443 -0.1840  0.1271
29780SOL    HW189918   1.915   8.516   7.004 -1.8146  0.4887  0.7380
29780SOL    HW289919   1.985   8.649   6.984  0.7926 -0.9639 -0.3858
29781SOL     OW89920   3.261   2.221   2.266 -0.0229  0.2685  0.2359
29781SOL    HW189921   3.219   2.291   2.316 -2.1619 -0.8890  0.1480
29781SOL    HW289922   3.248   2.246   2.174 -1.4406 -0.5650  0.1890
29782SOL     OW89923   4.335   9.886   4.345  0.3091  0.5580  0.8214
29782SOL    HW189924   4.402   9.843   4.291 -0.0917 -0.9826  1.5308
29782SOL    HW289925   4.380   9.962   4.382  1.1658  0.4989 -0.0465
29783SOL     OW89926   5.051   3.634   3.393 -0.6212  0.1343 -0.3211
29783SOL    HW189927   4.995   3.679   3.456  0.8821  0.5372  0.7716
29783SOL    HW289928   5.074   3.701   3.329 -0.2750  0.3301  0.0046
29784SOL     OW89929   4.160   2.178   0.886  0.5403  0.8010 -0.0450
29784SOL    HW189930   4.194   2.233   0.958 -0.3564  1.0263  0.2210
29784SOL    HW289931   4.068   2.164   0.908  0.2487  0.8735 -1.1584
29785SOL     OW89932   7.351   3.158   9.852  0.0335 -0.1183  0.3144
29785SOL    HW189933   7.436   3.185   9.886  0.3020 -0.6291  0.0500
29785SOL    HW289934   7.370   3.085   9.794 -0.5793 -0.1909  0.1980
29786SOL     OW89935   9.341   7.888   5.081  0.2290 -0.0578  0.1120
29786SOL    HW189936   9.411   7.870   5.144 -1.1531  0.5368  1.9314
29786SOL    HW289937   9.263   7.848   5.121 -0.2618 -2.0399 -2.5690
29787SOL     OW89938   9.059   2.729   8.980  0.1834  0.1526  0.3298
29787SOL    HW189939   8.969   2.727   9.012  0.1601 -0.8179  0.2324
29787SOL    HW289940   9.106   2.783   9.044 -0.3386  0.1340  0.7367
29788SOL     OW89941   1.348   0.005   8.006 -0.2228  0.1395  0.7086
29788SOL    HW189942   1.379   0.093   7.984 -0.5489  0.5960  1.9889
29788SOL    HW289943   1.349  -0.042   7.923 -3.0029  2.2315 -0.6941
29789SOL     OW89944   1.176   5.090   7.030  0.1792  0.3095 -0.4798
29789SOL    HW189945   1.261   5.072   7.071  0.5808  1.7610 -0.6295
29789SOL    HW289946   1.163   5.017   6.970  0.7609 -0.5461  0.3956
29790SOL     OW89947   3.823   1.282   2.745  0.0525  0.0690 -0.6512
29790SOL    HW189948   3.917   1.279   2.727  0.5348 -0.8849  1.6382
29790SOL    HW289949   3.783   1.310   2.662  2.2562 -0.4530 -1.9734
29791SOL     OW89950   8.907   8.521   0.292 -0.3854 -0.4400 -0.1568
29791SOL    HW189951   8.960   8.487   0.365  0.3276 -1.5388 -1.1513
29791SOL    HW289952   8.848   8.584   0.333  2.3654  1.6889  0.8837
29792SOL     OW89953   8.895   7.454   3.028  0.4737 -0.1449 -0.4773
29792SOL    HW189954   8.803   7.437   3.009  0.0493  1.5216 -0.0670
29792SOL    HW289955   8.896   7.483   3.119  1.3406  0.4040 -0.6477
29793SOL     OW89956   6.230   0.976   0.573 -0.4715  0.1073  0.4260
29793SOL    HW189957   6.225   1.070   0.589  0.6941  0.2908 -0.1801
29793SOL    HW289958   6.262   0.968   0.483  0.8401 -0.8528  0.9436
29794SOL     OW89959   0.918   4.926   4.532 -0.7019  0.1583 -0.3270
29794SOL    HW189960   0.911   4.831   4.523 -0.5284  0.2148 -1.0491
29794SOL    HW289961   1.010   4.942   4.553 -0.3410  0.2861 -1.8827
29795SOL     OW89962   4.419   2.587   3.869 -0.4146  0.4288 -0.2238
29795SOL    HW189963   4.447   2.543   3.949 -2.7711 -0.0932  0.3951
29795SOL    HW289964   4.435   2.680   3.886  0.6970  0.1870  0.1363
29796SOL     OW89965   9.392   7.585   0.486 -0.7542  0.0271 -0.5650
29796SOL    HW189966   9.464   7.549   0.538 -1.4485  0.3492  0.6613
29796SOL    HW289967   9.435   7.629   0.412  0.5564  2.5354  1.5075
29797SOL     OW89968   5.952   5.094   3.774  0.1558  0.1854  0.1359
29797SOL    HW189969   5.887   5.118   3.708 -0.0670  1.4491  0.7783
29797SOL    HW289970   5.917   5.128   3.856  1.7966  1.2453  0.4435
29798SOL     OW89971   7.080   6.153   3.350 -0.2026  0.4631 -0.0958
29798SOL    HW189972   7.134   6.111   3.282 -1.1944  0.0215 -0.6385
29798SOL    HW289973   7.062   6.083   3.413 -1.5329  0.1401 -0.7985
29799SOL     OW89974   7.792   5.510   0.294  0.5686 -0.0612 -0.5321
29799SOL    HW189975   7.701   5.538   0.301  0.1691 -1.6326  0.9311
29799SOL    HW289976   7.788   5.415   0.288  2.0785 -0.0990 -1.7267
29800SOL     OW89977   6.017   6.232   2.353  0.0267 -0.4671  0.2942
29800SOL    HW189978   6.028   6.137   2.357 -1.7839 -0.6969  0.4651
29800SOL    HW289979   5.994   6.249   2.262  0.5179 -0.1669  0.2253
29801SOL     OW89980   3.169   0.865   2.663  0.5761  0.4320 -0.1728
29801SOL    HW189981   3.184   0.944   2.715 -0.7220 -0.1721  1.1838
29801SOL    HW289982   3.151   0.898   2.574  2.4463  1.4966 -0.2052
29802SOL     OW89983   9.638   9.562   4.114  0.3209 -0.1423 -0.3891
29802SOL    HW189984   9.718   9.603   4.081  0.9774 -1.0505  0.0351
29802SOL    HW289985   9.581   9.557   4.037  0.1303  1.7194 -0.4154
29803SOL     OW89986   0.417   3.799   0.438 -0.4336  0.3121 -0.1163
29803SOL    HW189987   0.398   3.788   0.531 -1.4787 -0.2218 -0.3823
29803SOL    HW289988   0.346   3.753   0.393  0.7411 -0.5371 -1.1715
29804SOL     OW89989   3.255   4.618   1.251  1.1666 -0.0113 -0.5254
29804SOL    HW189990   3.165   4.649   1.254  1.3664  0.5565 -0.2929
29804SOL    HW289991   3.278   4.599   1.342  0.4360 -2.7006 -0.8070
29805SOL     OW89992   3.720   1.400   2.515 -0.3256 -0.2191  0.0908
29805SOL    HW189993   3.779   1.474   2.509  0.6675 -1.0008 -0.0114
29805SOL    HW289994   3.635   1.439   2.538  0.7094  0.7524  2.7353
29806SOL     OW89995   9.891   5.487   8.461 -0.5986 -0.5355  0.0138
29806SOL    HW189996   9.948   5.411   8.450  0.4720  0.2724 -0.0720
29806SOL    HW289997   9.922   5.550   8.396  0.3951  1.0908  1.9645
29807SOL     OW89998   6.650   9.311   2.811 -0.3052 -0.4767  0.1219
29807SOL    HW189999   6.596   9.266   2.876 -0.9890  1.2950  0.8422
29807SOL    HW290000   6.611   9.287   2.727 -1.4278 -0.2431  0.5586
29808SOL     OW90001   0.418   5.642   7.397 -0.0239 -0.1416  0.2136
29808SOL    HW190002   0.360   5.567   7.383  2.1489 -1.7781 -0.6041
29808SOL    HW290003   0.360   5.718   7.397 -2.1995 -1.7098  0.0217
29809SOL     OW90004   2.314   1.929   3.662 -0.3584  0.1765 -0.5878
29809SOL    HW190005   2.290   1.967   3.577 -4.1518  0.1292  0.2696
29809SOL    HW290006   2.403   1.960   3.678 -0.7598  3.0583 -2.9893
29810SOL     OW90007   5.113   3.037   8.156  0.5853  0.3719  0.1222
29810SOL    HW190008   5.106   3.108   8.093  0.6605  1.4916  1.3321
29810SOL    HW290009   5.054   3.063   8.227  0.3835 -0.9343  0.4588
29811SOL     OW90010   4.952   9.826   4.736 -0.3455 -0.0265  0.2969
29811SOL    HW190011   4.889   9.757   4.712  0.4869  0.1670 -2.8079
29811SOL    HW290012   4.969   9.811   4.829 -3.3340 -1.3969  0.7432
29812SOL     OW90013   4.581   1.532   4.641  0.0968  0.3350  0.8386
29812SOL    HW190014   4.571   1.627   4.641  1.1760  0.4644  0.5046
29812SOL    HW290015   4.676   1.518   4.649  0.5276 -0.6166 -3.2937
29813SOL     OW90016   8.212   7.738   5.907 -0.3460 -0.3394  0.2591
29813SOL    HW190017   8.252   7.755   5.822  1.0200 -1.0016  0.7407
29813SOL    HW290018   8.208   7.823   5.950  0.6805 -0.2649  0.2330
29814SOL     OW90019   4.656   8.522   2.043  0.6611 -0.0585  0.5498
29814SOL    HW190020   4.615   8.587   2.101 -0.4572  1.0104 -1.3520
29814SOL    HW290021   4.748   8.549   2.039  0.5057  0.5553  0.9029
29815SOL     OW90022   0.687   0.598   5.067  0.1997 -0.3248 -0.3049
29815SOL    HW190023   0.625   0.553   5.010 -0.1554  1.3194 -1.2967
29815SOL    HW290024   0.691   0.545   5.146 -0.7496 -1.6566 -1.1181
29816SOL     OW90025   1.974   9.839   6.369 -0.0841  0.2573 -0.2943
29816SOL    HW190026   2.042   9.777   6.393 -1.0382 -0.8066 -0.2679
29816SOL    HW290027   2.011   9.925   6.391  0.6551 -0.3963  1.1381
29817SOL     OW90028   3.198   3.874   3.441 -0.3729  0.0923 -0.5562
29817SOL    HW190029   3.292   3.890   3.453 -0.3865 -0.0376 -0.2512
29817SOL    HW290030   3.172   3.825   3.520 -0.0301 -2.7359 -2.0589
29818SOL     OW90031   8.117   8.560   3.102  0.4222  0.6673 -0.0313
29818SOL    HW190032   8.132   8.631   3.039  3.5847  0.6933  0.6299
29818SOL    HW290033   8.033   8.583   3.143 -1.3768  1.0632 -3.5549
29819SOL     OW90034   7.563   1.312   9.493 -0.3530 -0.4973  0.1660
29819SOL    HW190035   7.597   1.368   9.423  0.1033  2.7140  2.6832
29819SOL    HW290036   7.634   1.250   9.509  0.6292  0.3814 -0.5528
29820SOL     OW90037   7.175   3.266   0.399  0.1968 -0.0360 -0.2848
29820SOL    HW190038   7.223   3.243   0.479  0.3378  1.1843  0.0077
29820SOL    HW290039   7.235   3.242   0.328  0.3257 -0.5609 -0.0026
29821SOL     OW90040   5.793   2.348   5.211  0.4879  0.0974 -0.3946
29821SOL    HW190041   5.743   2.330   5.131  1.6375 -1.0567 -0.8988
29821SOL    HW290042   5.883   2.363   5.180  0.3737  2.9330  0.3997
29822SOL     OW90043   4.195   5.313   3.665  0.5185  0.5518 -0.1883
29822SOL    HW190044   4.150   5.344   3.743  0.8573  1.3871 -0.3122
29822SOL    HW290045   4.252   5.386   3.639  1.0361 -0.0258 -0.7276
29823SOL     OW90046   8.393   0.441   0.397  0.4556  0.0932 -0.2307
29823SOL    HW190047   8.471   0.456   0.344  0.3165 -2.1733 -1.2153
29823SOL    HW290048   8.320   0.455   0.337  0.1974 -0.0508  0.0457
29824SOL     OW90049   8.314   2.770   2.059  0.4221  0.0451  0.5751
29824SOL    HW190050   8.363   2.851   2.043 -0.0283 -0.2734 -3.8561
29824SOL    HW290051   8.225   2.798   2.079  0.5027  0.6825  0.0725
29825SOL     OW90052   7.771   9.387   3.145  0.6289  0.5906 -0.2768
29825SOL    HW190053   7.839   9.343   3.093  0.6971 -0.0722  0.3677
29825SOL    HW290054   7.694   9.387   3.089  0.7148 -0.0775 -0.3971
29826SOL     OW90055   1.089   7.445   8.071 -0.1577  0.2429  0.4436
29826SOL    HW190056   1.032   7.509   8.113  0.8639 -0.1172  2.4980
29826SOL    HW290057   1.177   7.478   8.084  0.2797 -0.6527 -0.1180
29827SOL     OW90058   5.179   8.420   2.381  0.4303  0.5354  0.1328
29827SOL    HW190059   5.144   8.339   2.418  1.8945 -0.0447  0.3174
29827SOL    HW290060   5.176   8.406   2.286  0.5922  0.2934  0.1623
29828SOL     OW90061   4.476   8.804   6.755 -0.5155 -0.6825 -0.0549
29828SOL    HW190062   4.550   8.782   6.697 -0.7751 -0.3393 -0.5287
29828SOL    HW290063   4.477   8.900   6.759  0.0982 -0.7318  1.3121
29829SOL     OW90064   4.012   6.247   3.021 -0.7176  0.0300  0.2305
29829SOL    HW190065   4.028   6.169   2.968  0.3851 -0.1967  0.8539
29829SOL    HW290066   4.065   6.233   3.100  0.4189  1.9134 -0.1222
29830SOL     OW90067   8.933   3.882   9.621 -0.0744  0.0841 -0.3331
29830SOL    HW190068   9.002   3.841   9.673  0.5529 -0.2568 -1.4028
29830SOL    HW290069   8.887   3.808   9.580 -2.5842  0.1241  2.0975
29831SOL     OW90070   2.405   8.951   3.588  0.1353  0.0269  0.4808
29831SOL    HW190071   2.457   9.020   3.546  0.6783 -1.5131 -1.5768
29831SOL    HW290072   2.382   8.892   3.516  0.2054 -2.2526  2.2032
29832SOL     OW90073   9.713   7.037   3.516  0.5728 -0.4405  0.2189
29832SOL    HW190074   9.643   6.989   3.472 -0.1710  1.0068 -0.2493
29832SOL    HW290075   9.669   7.082   3.588  1.3108 -0.7263  0.8584
29833SOL     OW90076   8.411   1.974   9.787 -0.2850 -0.0177  0.0942
29833SOL    HW190077   8.501   1.943   9.787 -0.5030 -0.6572  0.0279
29833SOL    HW290078   8.413   2.054   9.735  0.2828  0.0934  0.2773
29834SOL     OW90079   6.978   5.208   5.135 -0.4046 -0.4392  0.0936
29834SOL    HW190080   6.989   5.155   5.214 -1.4379 -1.5210 -0.4565
29834SOL    HW290081   7.049   5.179   5.078 -0.2678 -0.3904  0.2368
29835SOL     OW90082   5.541   0.243   5.264 -0.2252 -0.4215 -0.2060
29835SOL    HW190083   5.481   0.285   5.326 -0.1111 -1.1932  0.4313
29835SOL    HW290084   5.559   0.312   5.199 -0.0355  0.5197  0.8179
29836SOL     OW90085   2.534   9.630   0.587  0.5129  0.2351  0.1570
29836SOL    HW190086   2.492   9.676   0.660  1.3459  0.0394  0.7754
29836SOL    HW290087   2.461   9.598   0.534 -0.1354 -0.1981  1.2658
29837SOL     OW90088   6.784   4.164   1.109 -0.6223 -0.3628 -0.7930
29837SOL    HW190089   6.700   4.210   1.105  0.7663  2.5933  0.9218
29837SOL    HW290090   6.834   4.201   1.036  0.1945  0.1290  0.0104
29838SOL     OW90091   5.818   6.008   3.943  0.2396 -0.2136 -0.2112
29838SOL    HW190092   5.863   5.932   3.905  0.2993 -0.5012  0.4279
29838SOL    HW290093   5.861   6.084   3.904  0.8925 -0.4927 -0.0344
29839SOL     OW90094   8.132   1.594   3.333 -0.0533 -0.3361 -0.1321
29839SOL    HW190095   8.208   1.627   3.287 -0.0123 -1.6841 -1.0872
29839SOL    HW290096   8.094   1.671   3.376  1.5060  0.4490 -0.0889
29840SOL     OW90097   6.828   6.779   3.367  0.0771 -0.7399 -0.2052
29840SOL    HW190098   6.917   6.769   3.402  0.4836 -1.1407 -1.3098
29840SOL    HW290099   6.785   6.697   3.388 -0.2013 -0.3612  0.7609
29841SOL     OW90100   5.520   3.098   0.638  0.2621  0.0012 -0.2768
29841SOL    HW190101   5.475   3.021   0.672 -0.6571  0.1718 -1.0504
29841SOL    HW290102   5.578   3.064   0.569  0.6002 -0.1039  0.0553
29842SOL     OW90103   6.856   3.637   9.319 -0.3376  0.3156  0.3813
29842SOL    HW190104   6.917   3.680   9.379 -1.6193  1.8044  0.6645
29842SOL    HW290105   6.860   3.544   9.344 -0.4744  0.8212  2.4400
29843SOL     OW90106   1.015   6.135   3.969 -0.3735 -0.3125 -0.5899
29843SOL    HW190107   0.973   6.216   3.938 -1.4942 -0.2130  1.0807
29843SOL    HW290108   1.093   6.164   4.016 -0.2287 -0.2892 -0.8384
29844SOL     OW90109   3.127   0.458   4.800  0.1223  0.3165 -0.4955
29844SOL    HW190110   3.077   0.390   4.846 -1.7358  1.3599 -0.9266
29844SOL    HW290111   3.198   0.479   4.861 -0.3160 -0.7257  0.4229
29845SOL     OW90112   6.698   3.700   3.948 -0.9121  0.3288 -0.4545
29845SOL    HW190113   6.721   3.785   3.910 -1.0231  0.2493 -0.7025
29845SOL    HW290114   6.782   3.661   3.973 -0.9291  1.0039  0.7362
29846SOL     OW90115   6.214   5.921   3.831  0.3055  0.2311 -0.5142
29846SOL    HW190116   6.192   5.975   3.755  0.9684 -0.4475 -1.2131
29846SOL    HW290117   6.130   5.901   3.872 -0.2044 -0.4957 -1.8534
29847SOL     OW90118   3.846   2.160   4.156  0.6250  0.2072  0.3994
29847SOL    HW190119   3.825   2.067   4.164 -0.0005  0.4205  1.3769
29847SOL    HW290120   3.774   2.196   4.103 -1.6942  0.9308  3.7217
29848SOL     OW90121   1.020   1.632   0.613 -0.1198 -0.7325 -0.2189
29848SOL    HW190122   1.105   1.672   0.600  0.4252 -0.7517  2.6795
29848SOL    HW290123   0.959   1.705   0.618  0.2373 -0.4986  0.9001
29849SOL     OW90124   4.081   3.178   0.895  0.6313  0.4006  0.1304
29849SOL    HW190125   4.022   3.103   0.892  0.3203  0.5814  1.2300
29849SOL    HW290126   4.095   3.201   0.804 -1.3290  0.5845 -0.1778
29850SOL     OW90127   6.152   3.559   3.499 -0.0262 -0.0404 -0.0737
29850SOL    HW190128   6.219   3.614   3.540 -0.2876  0.5793 -0.4701
29850SOL    HW290129   6.070   3.589   3.538 -0.2228  0.1971 -0.6580
29851SOL     OW90130   5.602   4.402   8.633  0.0867  0.2439 -0.3290
29851SOL    HW190131   5.583   4.463   8.705  1.2365  1.4997 -1.0530
29851SOL    HW290132   5.531   4.416   8.570  0.3733  0.8664 -0.5127
29852SOL     OW90133   4.343   4.221   1.176  0.2120 -0.4815 -0.4718
29852SOL    HW190134   4.428   4.261   1.192  0.5807 -1.3853 -0.1028
29852SOL    HW290135   4.296   4.284   1.122  1.3151 -0.2190 -1.1384
29853SOL     OW90136   4.705   2.868   2.567 -0.5458 -0.5425 -0.1074
29853SOL    HW190137   4.722   2.842   2.658  1.8793 -0.7133 -0.5477
29853SOL    HW290138   4.658   2.951   2.574 -0.0314 -0.3413  1.2936
29854SOL     OW90139   7.943   1.842   5.555 -0.2224  0.1626 -0.3405
29854SOL    HW190140   7.859   1.882   5.532 -0.6808 -0.6631 -0.1121
29854SOL    HW290141   8.008   1.906   5.526 -0.8674  0.1686 -1.8527
29855SOL     OW90142   0.929   9.869   3.977 -0.0892 -0.2759  0.4245
29855SOL    HW190143   0.905   9.779   4.000 -1.3224 -0.0672  0.0278
29855SOL    HW290144   1.006   9.860   3.921 -0.8048 -1.1668 -0.4549
29856SOL     OW90145   8.768   0.788   2.765  0.0948  0.5509 -0.0836
29856SOL    HW190146   8.782   0.762   2.673 -0.9085  1.6856 -0.5849
29856SOL    HW290147   8.822   0.866   2.777  1.7240 -0.6647  0.8978
29857SOL     OW90148   0.245   1.285   2.781 -0.2026  0.1162 -0.7498
29857SOL    HW190149   0.300   1.320   2.850  0.9784  1.2868 -2.2071
29857SOL    HW290150   0.156   1.296   2.814  0.3473 -0.8258  1.2063
29858SOL     OW90151   2.027   9.173   4.450  0.2568 -0.2825 -0.0329
29858SOL    HW190152   1.952   9.229   4.433 -0.0563 -0.5405  0.4759
29858SOL    HW290153   2.073   9.216   4.522 -0.0995 -0.7721  0.5011
29859SOL     OW90154   1.729   1.608   1.431  0.6562 -0.5760  0.0712
29859SOL    HW190155   1.806   1.608   1.487  0.5478 -0.1771  0.2276
29859SOL    HW290156   1.745   1.677   1.368  0.3307 -0.3345  0.2464
29860SOL     OW90157   0.149   8.947   1.833 -0.0996 -0.2689 -0.1795
29860SOL    HW190158   0.207   9.022   1.848  0.4827 -0.7348 -0.1030
29860SOL    HW290159   0.191   8.874   1.878 -0.1710 -0.8624 -1.0569
29861SOL     OW90160   8.636   8.059   5.905 -0.2596 -0.2046  0.1565
29861SOL    HW190161   8.691   8.092   5.834  1.2159 -1.1892  0.7917
29861SOL    HW290162   8.634   7.964   5.892 -2.4585 -0.1608 -0.2586
29862SOL     OW90163   4.390   6.812   1.768 -0.1845 -0.7529 -0.2975
29862SOL    HW190164   4.363   6.872   1.698 -0.6479  0.4624  0.9020
29862SOL    HW290165   4.330   6.738   1.759 -2.5426  0.8769  0.8741
29863SOL     OW90166   6.361   7.341   7.304 -0.3380  0.1992  0.6931
29863SOL    HW190167   6.299   7.410   7.327 -0.2673  0.5369 -0.0788
29863SOL    HW290168   6.385   7.360   7.213 -0.6003 -1.0568  0.3408
29864SOL     OW90169   3.773   7.455   2.091 -0.8270 -0.0380  0.2592
29864SOL    HW190170   3.818   7.400   2.155 -0.3079 -1.2977 -1.1429
29864SOL    HW290171   3.680   7.443   2.110 -0.7439 -1.7870 -0.2947
29865SOL     OW90172   9.141   7.218   0.395 -0.6297 -0.2245  0.1635
29865SOL    HW190173   9.228   7.234   0.360 -0.7414 -0.1113 -0.0670
29865SOL    HW290174   9.141   7.262   0.480 -1.0543  1.3713 -0.6188
29866SOL     OW90175   6.211   9.492   8.999  0.0297 -0.1887 -0.0778
29866SOL    HW190176   6.187   9.570   9.048  0.4930  1.0612 -1.7515
29866SOL    HW290177   6.303   9.506   8.974  0.6365 -2.0260  0.9407
29867SOL     OW90178   2.841   0.746   7.844 -0.3215 -0.3272 -0.3296
29867SOL    HW190179   2.927   0.744   7.886  0.0630 -0.2727 -1.0933
29867SOL    HW290180   2.819   0.839   7.837  0.8129 -0.1745 -2.5893
29868SOL     OW90181   5.650   8.273   5.555  0.0572  0.0338 -0.0091
29868SOL    HW190182   5.588   8.275   5.628  1.4366  1.4611  1.1908
29868SOL    HW290183   5.602   8.310   5.481 -1.7206 -2.4328 -0.2131
29869SOL     OW90184   9.217   6.019   2.610  0.9915  0.0310  0.0017
29869SOL    HW190185   9.272   6.091   2.641  1.2385 -0.3380  0.4101
29869SOL    HW290186   9.153   6.006   2.679 -0.0501  0.8985 -0.7461
29870SOL     OW90187   3.189   3.484   7.772  0.9093 -0.3382 -0.3513
29870SOL    HW190188   3.102   3.448   7.790  0.7662 -0.4357 -1.1846
29870SOL    HW290189   3.246   3.407   7.769  1.2081 -0.2026  1.0971
29871SOL     OW90190   5.565   7.879   2.379 -0.5923 -0.2862  0.3934
29871SOL    HW190191   5.648   7.831   2.381  0.3816  1.3084  3.2156
29871SOL    HW290192   5.590   7.970   2.397 -2.8653  0.4200  0.2065
29872SOL     OW90193   3.506   6.062   6.466 -0.8116  0.2774 -0.4366
29872SOL    HW190194   3.516   5.998   6.536  0.1899 -1.2723 -1.9287
29872SOL    HW290195   3.413   6.058   6.443 -1.1298  0.7434  0.7274
29873SOL     OW90196   1.915   1.644   9.961 -0.5247 -0.5924  0.2860
29873SOL    HW190197   1.956   1.599   9.887 -1.2893 -1.2929  0.2714
29873SOL    HW290198   1.942   1.735   9.952 -1.2483 -0.5076 -1.3218
29874SOL     OW90199   2.393   6.590   8.931 -0.2888 -0.0936 -0.4017
29874SOL    HW190200   2.487   6.594   8.913 -0.4856  2.2614 -1.2874
29874SOL    HW290201   2.352   6.592   8.844 -1.1658  0.1253  0.0063
29875SOL     OW90202   1.721   6.999   1.886  0.5856  0.3310  0.6120
29875SOL    HW190203   1.661   6.928   1.864  1.1805  0.5517 -1.9710
29875SOL    HW290204   1.799   6.955   1.920  0.3122 -0.1279  0.6520
29876SOL     OW90205   2.979   3.197   7.570  0.3463  0.1435 -0.2823
29876SOL    HW190206   2.968   3.292   7.563  0.0010  0.1708  0.5157
29876SOL    HW290207   3.065   3.180   7.533  0.6326  0.8322  0.0545
29877SOL     OW90208   5.532   9.812   1.139 -0.0647  0.0890 -0.8166
29877SOL    HW190209   5.584   9.795   1.217  1.0866 -1.6207 -1.8872
29877SOL    HW290210   5.559   9.899   1.111  1.6221 -0.4258 -0.8700
29878SOL     OW90211   2.680   9.001   2.101  0.1065  0.1148 -0.0301
29878SOL    HW190212   2.622   9.006   2.024 -1.3965  1.5824  1.1170
29878SOL    HW290213   2.643   8.931   2.154 -0.3665  0.7468  0.4882
29879SOL     OW90214   6.117   1.994   5.647  0.8241 -0.2633 -0.3907
29879SOL    HW190215   6.079   1.983   5.560 -0.8323 -0.8671  0.3610
29879SOL    HW290216   6.042   2.011   5.704  1.8236 -0.3014  0.9908
29880SOL     OW90217   6.524   7.842   9.286  0.3580 -0.7151  0.2869
29880SOL    HW190218   6.480   7.770   9.332 -1.7097  0.4188  0.2121
29880SOL    HW290219   6.605   7.856   9.335  0.8075 -3.0364  0.3132
29881SOL     OW90220   9.270   0.972   8.185  0.3512 -0.0908  0.1723
29881SOL    HW190221   9.334   1.022   8.134  1.0493 -1.1724 -0.0566
29881SOL    HW290222   9.322   0.903   8.228 -0.5662 -0.5976  0.4996
29882SOL     OW90223   9.363   2.985   1.370 -0.4499 -0.1098 -0.4284
29882SOL    HW190224   9.270   2.975   1.392 -0.7559  1.5513 -0.8238
29882SOL    HW290225   9.367   2.968   1.276 -0.6223  1.1763 -0.6906
29883SOL     OW90226   7.401   4.150   3.064 -0.2193 -0.3633  0.3782
29883SOL    HW190227   7.322   4.204   3.054 -0.8692 -0.9723  1.9400
29883SOL    HW290228   7.460   4.204   3.117  0.4276  0.0719 -0.7488
29884SOL     OW90229   6.772   2.207   7.199 -0.7305  0.3375  0.7364
29884SOL    HW190230   6.774   2.111   7.200  0.6761  0.3368  1.4028
29884SOL    HW290231   6.813   2.232   7.282 -0.5070  1.5160  0.2856
29885SOL     OW90232   2.157   4.161   8.191  0.7878  0.4104 -0.1256
29885SOL    HW190233   2.237   4.148   8.241 -0.6022 -1.4218  1.7730
29885SOL    HW290234   2.149   4.083   8.137 -0.5851 -0.2767  1.0224
29886SOL     OW90235   4.183   2.054   7.165 -0.5289  0.1841 -0.0487
29886SOL    HW190236   4.181   1.983   7.100  1.8282 -2.5705  2.6003
29886SOL    HW290237   4.276   2.078   7.171 -1.0639  2.3603  0.3906
29887SOL     OW90238   5.874   0.699   1.035  0.2988  0.5151 -0.4175
29887SOL    HW190239   5.795   0.686   1.088  0.9315  0.3972  0.5072
29887SOL    HW290240   5.916   0.613   1.034  0.1404  0.4389 -1.3780
29888SOL     OW90241   0.461   6.869   6.095 -0.4757 -0.1065  0.0096
29888SOL    HW190242   0.516   6.827   6.160 -0.4777 -1.0286 -0.5651
29888SOL    HW290243   0.522   6.918   6.040 -0.4027  0.1178  0.2870
29889SOL     OW90244   7.330   6.986   3.082 -0.0655  0.6296  0.0600
29889SOL    HW190245   7.275   6.941   3.019  0.7174 -0.7550  0.3286
29889SOL    HW290246   7.282   6.983   3.164  0.3703 -0.5606  0.2897
29890SOL     OW90247   0.999   1.877   1.011 -0.0842  0.3797  0.6411
29890SOL    HW190248   1.003   1.784   0.990  0.5009  0.2529  1.2720
29890SOL    HW290249   0.929   1.884   1.075  1.0643  0.0859  1.9604
29891SOL     OW90250   1.689   6.794   3.443  0.0040 -0.6832  0.2285
29891SOL    HW190251   1.717   6.863   3.384  0.1850  1.6282  2.7885
29891SOL    HW290252   1.765   6.777   3.498 -0.8556 -0.9329  1.3899
29892SOL     OW90253   8.634   6.847   8.816 -0.0602 -0.1603  0.2425
29892SOL    HW190254   8.552   6.896   8.816 -1.0290 -1.6791  1.4384
29892SOL    HW290255   8.629   6.793   8.737  0.2090  0.3855 -0.1533
29893SOL     OW90256   8.627   6.161   5.408  0.1152 -0.0706  0.4505
29893SOL    HW190257   8.714   6.126   5.388  1.2034  2.7845 -0.3009
29893SOL    HW290258   8.638   6.205   5.492 -0.5309  0.4299  0.2847
29894SOL     OW90259   5.340   9.578   2.134  0.2187  0.6307 -0.6624
29894SOL    HW190260   5.287   9.508   2.172 -0.8146  0.8166 -1.6862
29894SOL    HW290261   5.401   9.532   2.076  0.9050  0.4492  0.1836
29895SOL     OW90262   5.271   7.399   6.087 -0.1386  0.2979 -0.3456
29895SOL    HW190263   5.281   7.437   6.174 -2.5579  1.4796 -0.5008
29895SOL    HW290264   5.208   7.329   6.099 -0.3595  0.3590 -1.1249
29896SOL     OW90265   6.207   2.358   0.230  0.2714 -0.2954  1.1936
29896SOL    HW190266   6.132   2.326   0.180  0.1366 -0.2106  1.3410
29896SOL    HW290267   6.170   2.423   0.291  0.4348 -0.3835  1.3899
29897SOL     OW90268   1.464   6.880   5.162  0.1392 -0.0954  0.0482
29897SOL    HW190269   1.373   6.853   5.175  0.6657 -1.7484  0.4564
29897SOL    HW290270   1.515   6.820   5.215  1.4549  1.2333  0.3582
29898SOL     OW90271   1.434   8.323   9.562  0.1660  0.8356 -0.3657
29898SOL    HW190272   1.525   8.337   9.535  0.5448 -2.1416 -0.9654
29898SOL    HW290273   1.441   8.285   9.650 -0.4361  0.1625 -0.5989
29899SOL     OW90274   3.567   7.147   0.026  0.4108 -0.0593 -0.0683
29899SOL    HW190275   3.558   7.162   0.120 -0.3692 -1.6565  0.1321
29899SOL    HW290276   3.581   7.053   0.017 -1.2478 -0.2211 -1.6320
29900SOL     OW90277   4.144   9.831   9.084 -0.3828 -0.6137  0.3085
29900SOL    HW190278   4.076   9.764   9.082  0.5004 -1.8169 -5.0174
29900SOL    HW290279   4.107   9.904   9.036  0.6946  0.4023  0.9798
29901SOL     OW90280   7.301   2.148   0.082 -0.3299  0.3689 -0.6130
29901SOL    HW190281   7.245   2.212   0.127 -1.7687 -0.3213 -1.3373
29901SOL    HW290282   7.353   2.108   0.151 -0.9336  0.8520  0.1330
29902SOL     OW90283   5.552   6.219   7.920  0.0154 -0.0018 -0.8405
29902SOL    HW190284   5.570   6.138   7.873  0.5912  0.4375 -1.3974
29902SOL    HW290285   5.511   6.191   8.002  0.1548 -0.8457 -1.0523
29903SOL     OW90286   5.665   9.051   5.844  0.9653  0.2959  0.2383
29903SOL    HW190287   5.639   8.972   5.795  0.8011  0.3205  0.2878
29903SOL    HW290288   5.715   9.102   5.780  0.8448  0.2759  0.1273
29904SOL     OW90289   7.650   8.363   5.539  0.3583 -0.4723 -0.1853
29904SOL    HW190290   7.584   8.388   5.475 -0.3331 -2.4819 -0.3408
29904SOL    HW290291   7.601   8.342   5.618  1.1580  1.3515  0.8572
29905SOL     OW90292   4.218   9.037   0.265  0.0762  0.0643  0.1876
29905SOL    HW190293   4.264   9.117   0.291 -0.5699  0.4883  0.0721
29905SOL    HW290294   4.281   8.967   0.280  1.2590  0.7553 -1.2491
29906SOL     OW90295   3.148   6.514   3.082 -0.4697 -1.1582 -0.2915
29906SOL    HW190296   3.190   6.586   3.034  0.2626  0.7242  2.8754
29906SOL    HW290297   3.072   6.556   3.124 -1.0192 -2.6773  0.2799
29907SOL     OW90298   3.454   4.225   8.446 -0.6998 -0.8164 -0.6981
29907SOL    HW190299   3.416   4.243   8.360 -1.5580 -0.8313 -0.3346
29907SOL    HW290300   3.544   4.256   8.439 -1.2079  0.6541 -1.1094
29908SOL     OW90301   0.715   6.259   6.545  0.2571 -0.4104 -0.0900
29908SOL    HW190302   0.646   6.312   6.585  1.1721  0.9769 -0.2712
29908SOL    HW290303   0.696   6.262   6.451  0.1574 -0.6473 -0.0786
29909SOL     OW90304   3.644   1.578   9.399  0.0118  0.2177 -0.3019
29909SOL    HW190305   3.660   1.626   9.480  0.0617 -0.5307  0.1477
29909SOL    HW290306   3.710   1.508   9.400  1.3393  1.3526 -1.9717
29910SOL     OW90307   3.018   0.105   2.643 -0.1262 -0.9402  0.1616
29910SOL    HW190308   3.022   0.200   2.655  0.3920 -1.2005  2.7461
29910SOL    HW290309   3.090   0.085   2.583  0.2539  0.2290  0.1990
29911SOL     OW90310   2.486   2.432   3.428 -1.0054 -0.7951  0.8927
29911SOL    HW190311   2.467   2.428   3.334 -1.4463  1.6627  0.8021
29911SOL    HW290312   2.417   2.488   3.463  0.5867  0.4160  2.2286
29912SOL     OW90313   1.279   2.396   5.239 -0.1195 -0.8366  0.0872
29912SOL    HW190314   1.365   2.376   5.275 -0.7155 -2.3104  0.7612
29912SOL    HW290315   1.290   2.481   5.196  1.1527 -0.0653  1.8598
29913SOL     OW90316   5.240   8.183   5.401  0.9122  0.0069  0.4499
29913SOL    HW190317   5.264   8.241   5.328  0.9855 -0.4019  0.1431
29913SOL    HW290318   5.280   8.098   5.378 -0.9538 -0.7579 -0.1897
29914SOL     OW90319   5.016   3.495   8.667 -0.0022  0.1732  0.1339
29914SOL    HW190320   4.985   3.488   8.577 -1.0496  0.8927  0.4180
29914SOL    HW290321   5.026   3.405   8.697 -0.7180 -0.0707 -0.3472
29915SOL     OW90322   3.611   6.089   7.585 -0.3611 -0.2852  0.2433
29915SOL    HW190323   3.703   6.112   7.570  0.2517 -2.0011  1.0931
29915SOL    HW290324   3.610   5.993   7.585 -1.3501 -0.4451  4.3952
29916SOL     OW90325   4.401   4.757   4.300 -0.4482 -0.2614 -0.2057
29916SOL    HW190326   4.389   4.851   4.284 -0.1222 -0.1648  0.1089
29916SOL    HW290327   4.349   4.715   4.232 -1.4960  0.1425  0.3228
29917SOL     OW90328   7.977   2.625   6.055  0.0445  0.4295  0.4517
29917SOL    HW190329   7.984   2.532   6.033 -0.9935  0.5864 -0.6404
29917SOL    HW290330   7.883   2.644   6.046 -0.0380  1.1837  2.3841
29918SOL     OW90331   9.218   3.348   5.773  0.2280 -0.1717 -0.4704
29918SOL    HW190332   9.301   3.387   5.800  0.0758 -0.5353  0.5687
29918SOL    HW290333   9.169   3.421   5.734  1.0222  0.0416 -1.0790
29919SOL     OW90334   0.892   2.360   6.045 -0.3841  0.3026  0.0137
29919SOL    HW190335   0.829   2.298   6.008  0.9320 -0.6607 -0.7229
29919SOL    HW290336   0.840   2.437   6.066 -1.6924 -0.2020 -1.1678
29920SOL     OW90337   3.657   2.020   9.044  0.0469  0.1734 -0.2852
29920SOL    HW190338   3.685   2.036   9.134 -2.6534 -0.9387  0.8713
29920SOL    HW290339   3.718   1.954   9.011 -1.1737 -2.3686  2.1710
29921SOL     OW90340   4.241   7.867   4.993  0.1587 -0.0643 -0.5620
29921SOL    HW190341   4.236   7.962   5.004 -0.2409  0.2478 -2.9567
29921SOL    HW290342   4.331   7.850   4.967 -0.0934 -0.1495 -1.4188
29922SOL     OW90343   6.821   2.335   2.005  0.4698  0.3137  0.1210
29922SOL    HW190344   6.745   2.284   1.978  0.6028  0.5438 -0.6961
29922SOL    HW290345   6.890   2.270   2.017  0.5586  0.2645 -0.6299
29923SOL     OW90346   2.154   8.715   3.334  0.2869  0.2005 -0.1587
29923SOL    HW190347   2.212   8.789   3.316 -0.0347  1.2069  2.4736
29923SOL    HW290348   2.077   8.754   3.376 -0.0678 -1.5863  0.9644
29924SOL     OW90349   6.547   6.859   6.858 -0.6145 -0.0071 -0.5871
29924SOL    HW190350   6.642   6.867   6.865 -0.6126  0.1184 -0.7413
29924SOL    HW290351   6.512   6.931   6.910 -0.5839  1.8391 -2.9364
29925SOL     OW90352   4.341   8.087   7.038 -0.1166  0.0206 -0.3989
29925SOL    HW190353   4.257   8.082   7.084  0.1980 -1.8858  0.0708
29925SOL    HW290354   4.405   8.104   7.107  0.1714 -1.2487 -0.3283
29926SOL     OW90355   5.256   9.875   9.615  0.3745 -0.1767  0.3871
29926SOL    HW190356   5.297   9.926   9.685 -0.7831  0.4412  0.6494
29926SOL    HW290357   5.212   9.941   9.560 -0.6989 -0.8374  0.4233
29927SOL     OW90358   0.411   3.106   9.319 -0.2613 -0.4210  0.5042
29927SOL    HW190359   0.351   3.117   9.393  2.0295  0.4362  2.3801
29927SOL    HW290360   0.441   3.194   9.299  0.4019 -0.8270 -0.3585
29928SOL     OW90361   8.333   8.077   5.153 -0.5564 -0.1082  0.2359
29928SOL    HW190362   8.305   8.046   5.067  2.3681 -3.3016  0.1844
29928SOL    HW290363   8.407   8.135   5.135  0.0215 -0.7329  0.5154
29929SOL     OW90364   1.145   6.477   1.397 -0.3474 -0.2060  0.3417
29929SOL    HW190365   1.168   6.408   1.335 -1.0802 -0.2016  0.0463
29929SOL    HW290366   1.124   6.431   1.478 -1.0622 -0.3558  0.0771
29930SOL     OW90367   2.829   4.365   5.243  0.7316 -0.5664  0.6640
29930SOL    HW190368   2.738   4.383   5.265  0.4931 -0.3455 -0.4673
29930SOL    HW290369   2.827   4.282   5.195  0.8041  0.6495 -1.5291
29931SOL     OW90370   2.264   6.362   9.098  0.0587 -0.3031 -0.2077
29931SOL    HW190371   2.316   6.427   9.050  1.1496 -0.4026  0.8007
29931SOL    HW290372   2.183   6.408   9.120  1.2513  1.1289  1.4424
29932SOL     OW90373   5.480   6.574   1.644 -0.3649  0.3945 -0.3304
29932SOL    HW190374   5.543   6.627   1.693 -0.3452 -0.5690  0.7203
29932SOL    HW290375   5.529   6.544   1.567  0.6201 -0.6931  0.6890
29933SOL     OW90376   6.596   9.710   3.874  0.2735  0.1673  0.3043
29933SOL    HW190377   6.688   9.691   3.895 -0.2390 -1.3581  1.3334
29933SOL    HW290378   6.562   9.750   3.953 -0.0219  0.4911  0.0135
29934SOL     OW90379   6.158   6.414   3.856  0.2085  0.4628  0.3748
29934SOL    HW190380   6.173   6.343   3.919 -0.0211 -1.0271 -1.1778
29934SOL    HW290381   6.069   6.444   3.876 -0.1103 -0.4338  0.3803
29935SOL     OW90382   5.792   3.837   4.234  0.3706  0.2426  0.1427
29935SOL    HW190383   5.854   3.873   4.170  0.7826 -1.5306 -0.5008
29935SOL    HW290384   5.834   3.757   4.266 -1.0668 -0.3718  0.5634
29936SOL     OW90385   8.103   9.983   5.875 -0.4505 -0.3449 -0.0816
29936SOL    HW190386   8.061   9.919   5.932  1.5334 -1.7836 -0.1226
29936SOL    HW290387   8.104   9.943   5.788 -0.1321  0.2088 -0.3435
29937SOL     OW90388   0.830   9.417   0.350 -0.6406 -0.2517  0.2546
29937SOL    HW190389   0.839   9.476   0.425 -1.2009  0.2606 -0.0762
29937SOL    HW290390   0.916   9.374   0.344 -0.5489 -0.2249  1.1173
29938SOL     OW90391   7.022   5.638   9.118  0.1336 -0.0500  0.1414
29938SOL    HW190392   6.928   5.657   9.107  0.1772  0.0911 -0.0005
29938SOL    HW290393   7.025   5.563   9.177 -0.0177  1.0513  1.6028
29939SOL     OW90394   6.586   7.624   0.440  0.1856  0.5994  0.0627
29939SOL    HW190395   6.660   7.597   0.386  1.6706  1.8468  1.3733
29939SOL    HW290396   6.530   7.546   0.444  0.8058 -0.0076 -1.9207
29940SOL     OW90397   2.134   0.810   5.193  0.5504  0.1417 -0.3137
29940SOL    HW190398   2.215   0.807   5.143  1.0650  1.2257  0.3941
29940SOL    HW290399   2.098   0.897   5.175  0.3797  0.2785  0.6049
29941SOL     OW90400   6.513   4.471   4.245  0.4249 -0.3681 -0.2097
29941SOL    HW190401   6.477   4.443   4.161  1.2107 -2.4388  0.0839
29941SOL    HW290402   6.608   4.459   4.235  0.5619 -0.1910  0.8198
29942SOL     OW90403   6.739   1.139   5.368  0.1652  0.5004 -0.6199
29942SOL    HW190404   6.718   1.065   5.311  0.6839  0.3237 -0.5789
29942SOL    HW290405   6.834   1.138   5.377  0.1808  1.1896 -0.6374
29943SOL     OW90406   2.909   4.677   1.490 -0.4820 -0.4773  0.4658
29943SOL    HW190407   2.972   4.611   1.461  0.2759  0.1585  0.6165
29943SOL    HW290408   2.846   4.683   1.419  0.4944 -0.0382 -0.3964
29944SOL     OW90409   2.915   0.681   3.479 -0.1288  0.0350 -0.2444
29944SOL    HW190410   2.904   0.775   3.466  2.7099  0.3188 -1.3747
29944SOL    HW290411   2.943   0.649   3.394 -0.4897 -1.7689  0.2767
29945SOL     OW90412   3.195   7.810   1.738  0.2152 -0.7759  0.0807
29945SOL    HW190413   3.124   7.841   1.794  0.6266 -0.8921  0.6646
29945SOL    HW290414   3.275   7.844   1.777  0.4876 -0.5655 -0.6328
29946SOL     OW90415   4.229   4.840   3.016  0.0027  0.4367 -0.5593
29946SOL    HW190416   4.281   4.829   3.096 -0.7469 -0.0617 -0.1249
29946SOL    HW290417   4.208   4.933   3.014 -1.2064  0.2264  0.6399
29947SOL     OW90418   6.690   8.199   2.324  0.6140 -0.1430 -0.0298
29947SOL    HW190419   6.655   8.186   2.412 -0.9950  0.7118 -0.5219
29947SOL    HW290420   6.734   8.284   2.328  0.4172 -0.0392 -0.0949
29948SOL     OW90421   8.126   0.409   8.349  0.0250  0.4215 -0.0110
29948SOL    HW190422   8.068   0.334   8.339  1.0497 -0.1504 -2.1855
29948SOL    HW290423   8.207   0.372   8.384 -0.2692  0.9401  1.2848
29949SOL     OW90424   0.431   3.045   1.389  0.4698  0.5362 -0.6127
29949SOL    HW190425   0.462   3.135   1.378  0.7943  0.6148  0.7853
29949SOL    HW290426   0.511   2.994   1.400  0.4912 -0.3879 -3.8627
29950SOL     OW90427   3.999   5.242   2.488  0.4864  0.2686 -0.2767
29950SOL    HW190428   4.029   5.222   2.399  0.7192  0.3474 -0.2169
29950SOL    HW290429   3.924   5.300   2.476  0.7949  0.6435 -0.4121
29951SOL     OW90430   4.336   8.437   4.054  0.0097  0.2337 -0.2636
29951SOL    HW190431   4.352   8.370   3.988  0.6995 -1.8603  1.8547
29951SOL    HW290432   4.403   8.420   4.121 -1.5734  1.2270  1.6745
29952SOL     OW90433   5.161   4.186   6.802 -0.7494  0.3257  0.6691
29952SOL    HW190434   5.112   4.242   6.862  1.7112  1.8698  1.3776
29952SOL    HW290435   5.252   4.202   6.823  0.1636 -1.0798 -1.7685
29953SOL     OW90436   5.222   1.168   4.293  0.4698  0.1576  0.0699
29953SOL    HW190437   5.276   1.115   4.352  1.8387  0.1283 -1.1557
29953SOL    HW290438   5.175   1.228   4.351  1.6478  0.0174  1.2155
29954SOL     OW90439   4.851   9.421   4.743 -0.2968  0.2247  0.4039
29954SOL    HW190440   4.923   9.477   4.772  0.1691 -0.7444  1.2029
29954SOL    HW290441   4.894   9.351   4.693 -0.6242 -0.5086  1.1114
29955SOL     OW90442   3.726   6.451   0.323 -0.3024  0.5128  1.0794
29955SOL    HW190443   3.799   6.416   0.272 -0.1471 -0.1694  1.7583
29955SOL    HW290444   3.769   6.502   0.393 -0.4994  3.9251 -1.0714
29956SOL     OW90445   7.050   0.924   1.125  0.0173  0.2997  0.4719
29956SOL    HW190446   7.060   0.920   1.220  2.6327 -1.0610  0.2385
29956SOL    HW290447   7.031   0.834   1.100  0.3639  0.4540 -0.3706
29957SOL     OW90448   5.133   8.679   0.296  0.5219 -0.3295  0.4784
29957SOL    HW190449   5.174   8.676   0.210  3.1742 -1.5311  1.6691
29957SOL    HW290450   5.062   8.615   0.292  1.0732 -0.8850 -0.5950
29958SOL     OW90451   9.565   2.733   7.400 -0.3090  0.0057  0.5489
29958SOL    HW190452   9.528   2.784   7.472  1.2492 -0.7664  1.9927
29958SOL    HW290453   9.502   2.664   7.384 -1.1402  0.7680  0.4807
29959SOL     OW90454   5.237   5.328   5.053 -0.2657  0.0454  0.4703
29959SOL    HW190455   5.254   5.276   5.131  0.4670  0.0829  0.3457
29959SOL    HW290456   5.218   5.416   5.086  2.3363  0.6613  0.5662
29960SOL     OW90457   0.255   0.299   5.494 -0.0360 -0.2509  0.1476
29960SOL    HW190458   0.224   0.388   5.474  2.5378  0.9680  1.0343
29960SOL    HW290459   0.178   0.254   5.529 -1.8576  1.0183 -1.9296
29961SOL     OW90460   1.848   2.366   2.499  0.2697  0.4670  0.1976
29961SOL    HW190461   1.828   2.285   2.452 -0.0962  0.9373 -0.4754
29961SOL    HW290462   1.897   2.337   2.576  0.5043 -0.3564 -0.2442
29962SOL     OW90463   7.730   1.241   1.653 -0.0652  0.2553  0.0898
29962SOL    HW190464   7.690   1.307   1.709 -0.4148  0.3179 -0.2298
29962SOL    HW290465   7.787   1.191   1.711 -0.7841  0.0192  0.5919
29963SOL     OW90466   3.689   3.201   2.417  0.1336  0.4647  0.2321
29963SOL    HW190467   3.599   3.171   2.427 -0.0720  1.0897  0.3004
29963SOL    HW290468   3.729   3.182   2.502 -0.5082  2.0470  0.9443
29964SOL     OW90469   4.181   2.656   1.943 -0.5397  0.5031 -0.2076
29964SOL    HW190470   4.164   2.750   1.945 -0.5263  0.5188  1.8141
29964SOL    HW290471   4.267   2.648   1.902 -0.5333  1.3724 -0.3857
29965SOL     OW90472   8.238   1.118   1.045 -0.0736 -0.0670  0.3672
29965SOL    HW190473   8.186   1.196   1.062 -0.6852 -0.4546  0.3515
29965SOL    HW290474   8.325   1.139   1.077  0.0390  0.9954 -0.6022
29966SOL     OW90475   9.204   0.807   3.702 -0.7692  0.2557  0.0857
29966SOL    HW190476   9.262   0.847   3.637  0.6687  1.1033  1.8308
29966SOL    HW290477   9.247   0.724   3.725 -1.1359  0.0807  0.1478
29967SOL     OW90478   1.970   5.020   1.728 -0.0306 -0.0136 -0.7751
29967SOL    HW190479   1.928   5.053   1.649  3.1833  1.9652 -1.8707
29967SOL    HW290480   2.003   5.099   1.772  2.1002 -1.3272  0.1370
29968SOL     OW90481   4.009   6.496   1.481  0.3404 -0.2830 -0.3652
29968SOL    HW190482   3.973   6.427   1.426  1.4440  0.4517 -2.0682
29968SOL    HW290483   3.950   6.570   1.468  1.3147  0.2986 -1.6131
29969SOL     OW90484   2.787   2.757   2.312 -0.6530  0.2841 -0.4922
29969SOL    HW190485   2.758   2.819   2.378 -0.7283  0.4891 -0.7146
29969SOL    HW290486   2.752   2.673   2.341 -0.4791  0.3290 -0.1458
29970SOL     OW90487   1.321   9.051   0.705  0.3976  0.0689  0.1816
29970SOL    HW190488   1.323   8.962   0.741  2.6181  0.6347  1.6730
29970SOL    HW290489   1.412   9.071   0.685 -0.1727  1.6917 -1.0575
29971SOL     OW90490   4.640   0.464   5.235  0.2589  0.0163 -0.3324
29971SOL    HW190491   4.725   0.482   5.195  1.1056  1.7123  1.9671
29971SOL    HW290492   4.585   0.539   5.210  0.1015 -0.0375 -0.1515
29972SOL     OW90493   0.141   0.643   5.573 -0.3926 -0.0777 -0.5036
29972SOL    HW190494   0.051   0.675   5.562  0.0989  0.8285 -2.4213
29972SOL    HW290495   0.195   0.722   5.568  0.5706 -0.6932 -0.1810
29973SOL     OW90496   1.472   1.057   6.565  0.2698 -0.0214 -0.0501
29973SOL    HW190497   1.410   1.085   6.633 -0.3813  1.2812 -1.1254
29973SOL    HW290498   1.435   0.975   6.532 -0.6959  0.5485 -0.4218
29974SOL     OW90499   3.917   2.638   6.616 -0.4059  0.6747  0.2193
29974SOL    HW190500   3.955   2.617   6.531  2.7237  1.1481  1.3787
29974SOL    HW290501   3.914   2.554   6.662 -1.4853  0.5353 -0.0539
29975SOL     OW90502   0.979   6.489   3.334 -0.1674  0.1134  0.2317
29975SOL    HW190503   1.061   6.539   3.329  0.1708 -0.4778 -0.2406
29975SOL    HW290504   1.007   6.400   3.354 -0.7680  0.1011  1.0480
29976SOL     OW90505   7.137   3.471   1.179  0.0635 -0.9044  0.5267
29976SOL    HW190506   7.061   3.447   1.233  0.1410 -0.5143  0.8109
29976SOL    HW290507   7.101   3.529   1.112  0.1066 -0.7508  0.6377
29977SOL     OW90508   0.450   7.123   1.491  0.4837  0.1690  0.1159
29977SOL    HW190509   0.362   7.091   1.475 -0.3098  2.7643 -1.2124
29977SOL    HW290510   0.498   7.107   1.410  0.5058  0.9003 -0.0278
29978SOL     OW90511   4.440   5.888   0.921 -0.1422 -0.7250 -0.6587
29978SOL    HW190512   4.460   5.950   0.991 -0.9855 -1.3175  0.1291
29978SOL    HW290513   4.492   5.810   0.943 -2.1505 -1.7649  0.6351
29979SOL     OW90514   3.148   8.233   1.395  0.0417 -0.0658 -0.2215
29979SOL    HW190515   3.130   8.170   1.465 -1.0543 -0.3339 -0.7232
29979SOL    HW290516   3.160   8.317   1.440 -1.3573 -0.0984  0.2624
29980SOL     OW90517   2.375   1.784   2.502 -0.2013 -0.6223 -0.1523
29980SOL    HW190518   2.380   1.695   2.469 -0.1002 -1.2812  1.5436
29980SOL    HW290519   2.438   1.787   2.575 -1.4670  0.2894  0.9631
29981SOL     OW90520   7.184   6.906   6.850  0.3618 -0.3338 -0.0067
29981SOL    HW190521   7.097   6.891   6.813  0.8995  0.4192 -1.6659
29981SOL    HW290522   7.212   6.819   6.879 -1.0010 -0.5567  0.7470
29982SOL     OW90523   0.923   6.421   8.719 -0.4545 -0.1128  0.3436
29982SOL    HW190524   0.956   6.346   8.768 -0.9752  0.1996  1.2027
29982SOL    HW290525   0.876   6.473   8.785  0.0214  1.0326 -0.1946
29983SOL     OW90526   9.835   2.986   8.508  0.1503  0.3151 -0.8450
29983SOL    HW190527   9.768   2.937   8.461  0.1527  0.4830 -1.0238
29983SOL    HW290528   9.795   3.007   8.593 -0.1335  0.6685 -1.0598
29984SOL     OW90529   2.707   0.577   6.586  0.1252 -0.0533  0.0866
29984SOL    HW190530   2.614   0.571   6.563 -0.0063  0.0741  0.5806
29984SOL    HW290531   2.752   0.533   6.514 -0.3846 -0.9554  0.3017
29985SOL     OW90532   4.269   0.242   0.335  0.2738  1.0687  0.0069
29985SOL    HW190533   4.261   0.332   0.304 -2.1594  1.5225  1.6840
29985SOL    HW290534   4.330   0.248   0.409  2.1929  0.7939 -1.4445
29986SOL     OW90535   4.108   6.276   5.294 -0.3294 -0.2453  0.2220
29986SOL    HW190536   4.094   6.311   5.206 -1.5201  0.6816  0.7521
29986SOL    HW290537   4.183   6.325   5.328 -0.2931 -0.1325 -0.0212
29987SOL     OW90538   3.817   4.139   9.339  0.2787 -0.3541  0.5621
29987SOL    HW190539   3.898   4.189   9.346  0.3466 -0.4515  0.4839
29987SOL    HW290540   3.835   4.074   9.270 -0.7119  1.2238 -1.2915
29988SOL     OW90541   6.285   2.224   1.604  0.1783  0.0663  0.4042
29988SOL    HW190542   6.339   2.239   1.527 -1.1191 -0.2371 -0.5936
29988SOL    HW290543   6.297   2.131   1.623  0.5199  0.1471  0.5980
29989SOL     OW90544   2.580   3.656   7.737  0.7486 -0.1006  0.3766
29989SOL    HW190545   2.640   3.663   7.811 -1.0399 -1.8141  2.1134
29989SOL    HW290546   2.547   3.746   7.724  0.2927  0.0668  2.4209
29990SOL     OW90547   4.183   9.770   0.602 -0.0800  0.0868  0.0170
29990SOL    HW190548   4.230   9.842   0.645  0.8648 -0.0117 -0.8138
29990SOL    HW290549   4.125   9.814   0.539  0.3714  0.1407 -0.3686
29991SOL     OW90550   5.993   2.810   3.031  0.3307 -0.1588  0.1925
29991SOL    HW190551   5.949   2.732   3.063 -1.3831  0.7473  0.1357
29991SOL    HW290552   6.069   2.776   2.984 -0.1348 -1.7616  0.5166
29992SOL     OW90553   9.570   6.013   7.878  0.4709  0.3493 -0.3168
29992SOL    HW190554   9.553   6.014   7.784 -0.7812 -0.6307 -0.1263
29992SOL    HW290555   9.622   5.935   7.892 -0.8942 -0.5375  0.0154
29993SOL     OW90556   3.159   8.398   6.398 -0.0630 -0.1085  0.2503
29993SOL    HW190557   3.073   8.428   6.371  0.2334 -0.5581 -1.2489
29993SOL    HW290558   3.220   8.445   6.342  0.7568  0.8064  1.8234
29994SOL     OW90559   1.188   0.698   7.155 -0.0078 -0.0639  0.5012
29994SOL    HW190560   1.129   0.771   7.138 -1.0544 -1.0772 -0.2973
29994SOL    HW290561   1.238   0.688   7.074 -2.7644 -2.8264 -1.0826
29995SOL     OW90562   1.042   0.973   8.236 -0.3676 -0.5072 -0.3951
29995SOL    HW190563   1.060   0.892   8.282  0.5057 -0.2851 -0.3230
29995SOL    HW290564   1.003   0.946   8.153 -4.0534 -0.8575  1.2765
29996SOL     OW90565   7.573   6.510   4.963  0.8892 -0.1658  0.2511
29996SOL    HW190566   7.557   6.421   4.931 -1.0231 -0.2825  1.3866
29996SOL    HW290567   7.654   6.536   4.920  0.7986 -1.9570 -1.1499
29997SOL     OW90568   0.354   1.110   4.382 -0.6665  0.0749  0.0366
29997SOL    HW190569   0.295   1.184   4.366 -0.6863 -0.1391 -1.0042
29997SOL    HW290570   0.296   1.039   4.410 -1.1248 -0.4816 -2.0938
29998SOL     OW90571   1.633   6.903   9.582 -0.1032 -0.7954 -0.0689
29998SOL    HW190572   1.571   6.928   9.513 -0.7026 -2.0071  0.0072
29998SOL    HW290573   1.719   6.914   9.541 -0.3401  1.0083 -0.1405
29999SOL     OW90574   2.784   6.795   4.167 -0.2911  0.0938  0.2922
29999SOL    HW190575   2.744   6.709   4.156 -0.0984 -0.0772  0.8906
29999SOL    HW290576   2.729   6.839   4.232 -0.9676  0.7981 -0.7355
30000SOL     OW90577   5.997   9.757   2.092  0.0437  0.6315  0.3882
30000SOL    HW190578   5.953   9.838   2.066 -1.2597 -0.9145 -2.7058
30000SOL    HW290579   6.084   9.763   2.053 -1.3857 -1.0071 -3.4470
30001SOL     OW90580   2.981   5.392   2.468  0.5943 -0.1068  0.1096
30001SOL    HW190581   2.973   5.451   2.393 -0.2700 -0.9306 -0.4629
30001SOL    HW290582   3.069   5.354   2.459 -0.1578 -1.5801 -1.5603
30002SOL     OW90583   3.287   0.351   6.124  0.0394 -0.5610 -0.6683
30002SOL    HW190584   3.307   0.438   6.159  2.3002 -0.4707 -1.9782
30002SOL    HW290585   3.371   0.305   6.125 -1.0878 -2.7540 -0.0500
30003SOL     OW90586   4.329   1.990   3.047  0.8335 -0.2935 -0.0253
30003SOL    HW190587   4.249   2.008   2.999 -0.8538 -1.3312  2.1963
30003SOL    HW290588   4.359   2.075   3.078 -0.7341 -0.0800  1.0115
30004SOL     OW90589   3.887   1.610   2.525 -0.0904 -0.6664 -0.8248
30004SOL    HW190590   3.933   1.684   2.485 -1.2061  0.4919 -0.0442
30004SOL    HW290591   3.953   1.569   2.581  0.1028  0.8378  0.1160
30005SOL     OW90592   7.223   2.735   9.206  0.0187  0.7003 -0.3598
30005SOL    HW190593   7.143   2.705   9.163  0.6215 -0.2285 -0.8553
30005SOL    HW290594   7.290   2.673   9.178  0.4683  0.1048  1.8835
30006SOL     OW90595   0.726   2.178   8.912 -0.2302 -0.5484 -0.4010
30006SOL    HW190596   0.677   2.237   8.854 -0.9253 -0.0491  0.6719
30006SOL    HW290597   0.679   2.182   8.995 -1.8873 -4.5591 -0.9120
30007SOL     OW90598   2.005   7.438   8.545  0.0626 -0.0981 -0.2632
30007SOL    HW190599   2.048   7.385   8.613 -1.7354  0.8661  1.7455
30007SOL    HW290600   1.954   7.374   8.494  0.5258 -0.7116  0.0265
30008SOL     OW90601   1.831   7.478   3.393  0.4570 -0.3906  0.4636
30008SOL    HW190602   1.842   7.445   3.482  1.1970  0.4876  0.7085
30008SOL    HW290603   1.918   7.509   3.367  0.2584 -0.6358 -0.5757
30009SOL     OW90604   2.394   4.800   5.292  0.4759 -0.0279  0.5678
30009SOL    HW190605   2.371   4.780   5.383 -0.5351  1.3524  0.6522
30009SOL    HW290606   2.324   4.761   5.241  0.8637 -0.5121  0.4081
30010SOL     OW90607   9.177   4.061   9.612  0.5081  0.3161  0.2958
30010SOL    HW190608   9.143   4.104   9.533 -1.3910  0.9896  1.4344
30010SOL    HW290609   9.135   3.976   9.613 -0.6376  0.8744  1.3335
30011SOL     OW90610   4.829   0.240   5.816  0.4491 -0.3522 -0.1519
30011SOL    HW190611   4.813   0.270   5.726 -0.5918  2.8225  0.9315
30011SOL    HW290612   4.741   0.230   5.853  0.8677 -1.7256  0.5148
30012SOL     OW90613   7.511   7.339   7.073  0.1322 -0.4499  0.4009
30012SOL    HW190614   7.500   7.399   6.999  0.3920  0.3035  0.9554
30012SOL    HW290615   7.422   7.314   7.097  0.0904 -1.9860 -1.1591
30013SOL     OW90616   8.090   8.584  -0.019 -1.0543  0.7022  0.2743
30013SOL    HW190617   8.060   8.497   0.006 -0.8854  0.8789  1.1322
30013SOL    HW290618   8.071   8.639   0.057 -0.4863  1.2575  0.0296
30014SOL     OW90619   2.696   2.521   7.328  0.0149  0.0874 -0.4690
30014SOL    HW190620   2.633   2.593   7.330 -0.2409 -0.1481  0.8640
30014SOL    HW290621   2.776   2.560   7.295 -0.7489  0.4534 -1.9593
30015SOL     OW90622   2.979   2.506   0.870  0.3315 -0.0548 -0.4940
30015SOL    HW190623   2.993   2.589   0.915 -1.7000 -1.6153  3.5043
30015SOL    HW290624   3.016   2.440   0.928 -1.4297 -2.1920 -1.6338
30016SOL     OW90625   3.502   6.924   1.747 -0.0685  0.4682 -0.4130
30016SOL    HW190626   3.563   6.886   1.811 -1.4258 -0.7211  0.2403
30016SOL    HW290627   3.526   7.016   1.742  0.8622  0.3195  0.8779
30017SOL     OW90628   1.551   2.857   1.449 -0.2002 -0.5597  0.2860
30017SOL    HW190629   1.637   2.827   1.480  0.9745  0.9432 -1.3413
30017SOL    HW290630   1.547   2.949   1.476 -0.2575  0.0325 -1.6204
30018SOL     OW90631   3.835   4.291   0.473 -0.3770  0.1729  0.0049
30018SOL    HW190632   3.848   4.376   0.515 -0.0466  0.3918 -0.5195
30018SOL    HW290633   3.745   4.267   0.494 -0.5294  0.7373  0.0234
30019SOL     OW90634   4.427   1.954   7.394 -0.1325 -0.1396 -0.1575
30019SOL    HW190635   4.378   2.027   7.431 -1.2127 -0.5004 -0.8237
30019SOL    HW290636   4.363   1.884   7.384  0.4977 -0.6177 -1.1041
30020SOL     OW90637   2.786   8.451   4.229 -0.2782 -0.4879 -0.3531
30020SOL    HW190638   2.837   8.387   4.178  3.3701  1.1512  0.8576
30020SOL    HW290639   2.812   8.434   4.319  0.7630  2.5483  0.0192
30021SOL     OW90640   1.692   8.199   6.793 -0.0133 -0.2021  0.1630
30021SOL    HW190641   1.759   8.217   6.727 -2.1715 -0.2341 -2.2126
30021SOL    HW290642   1.617   8.252   6.766 -0.6918  0.6368  3.3083
30022SOL     OW90643   6.658   7.346   5.524  0.4604  0.0400 -0.2701
30022SOL    HW190644   6.568   7.325   5.498 -0.0824  1.5961  0.2050
30022SOL    HW290645   6.701   7.373   5.443  1.3621 -3.1843 -1.0207
30023SOL     OW90646   3.686   5.826   4.281  0.6771 -0.3082 -0.0509
30023SOL    HW190647   3.765   5.846   4.331  1.7088 -2.4872 -0.7243
30023SOL    HW290648   3.665   5.735   4.303 -1.7954  0.2532  0.2666
30024SOL     OW90649   9.405   1.553   8.535 -0.2766  0.8332  0.1607
30024SOL    HW190650   9.369   1.605   8.607  1.0882  3.0032 -0.6349
30024SOL    HW290651   9.331   1.541   8.475 -1.0065  0.4462  1.1087
30025SOL     OW90652   8.786   5.630   9.708 -0.3069 -0.3673  0.9223
30025SOL    HW190653   8.795   5.624   9.613 -0.6773 -1.8953  0.9496
30025SOL    HW290654   8.875   5.620   9.742 -0.0117  1.4114  0.7137
30026SOL     OW90655   0.179   6.816   7.504  0.0411 -0.5954 -0.4008
30026SOL    HW190656   0.269   6.815   7.473 -0.2398 -0.4380 -1.2277
30026SOL    HW290657   0.180   6.875   7.579  0.7602 -1.1317  0.0309
30027SOL     OW90658   3.120   7.303   9.784  0.3445 -0.0702  0.4441
30027SOL    HW190659   3.036   7.324   9.825  1.2923  0.9901  1.8995
30027SOL    HW290660   3.162   7.243   9.845  0.5377 -0.8394 -0.4269
30028SOL     OW90661   4.539   3.806   3.391 -0.1808 -0.1450 -0.3907
30028SOL    HW190662   4.584   3.722   3.395 -0.3071 -0.2383 -0.9807
30028SOL    HW290663   4.447   3.786   3.407  0.0338  0.1180  1.4572
30029SOL     OW90664   4.701   5.126   3.709 -0.1367 -0.6022  0.1923
30029SOL    HW190665   4.611   5.111   3.737 -0.1952 -1.2022 -0.3009
30029SOL    HW290666   4.708   5.221   3.699 -0.4107 -0.4620  1.2178
30030SOL     OW90667   3.839   9.284   4.355 -0.1969 -0.1493 -0.5416
30030SOL    HW190668   3.865   9.316   4.268  0.4838  1.2984  0.1601
30030SOL    HW290669   3.910   9.313   4.413 -1.2175 -0.0644  0.6872
30031SOL     OW90670   4.143   5.376   1.831 -0.6187 -0.3766 -0.1129
30031SOL    HW190671   4.151   5.309   1.763  0.4574 -0.1188 -0.2612
30031SOL    HW290672   4.231   5.382   1.869 -1.5673 -1.9155  2.6723
30032SOL     OW90673   5.903   2.782   7.946  0.5828 -0.5016 -0.3002
30032SOL    HW190674   5.894   2.770   8.041  2.1219  1.3442  0.1274
30032SOL    HW290675   5.820   2.823   7.919  0.7968  0.5415  0.5649
30033SOL     OW90676   0.341   8.761   2.413  0.1054  0.0574  0.9613
30033SOL    HW190677   0.392   8.814   2.474 -0.8975 -1.2544  3.0623
30033SOL    HW290678   0.375   8.672   2.425 -0.5055 -0.3226  0.0091
30034SOL     OW90679   7.953   6.994   5.788  0.1367 -0.0511 -0.4999
30034SOL    HW190680   7.875   7.015   5.840  0.3873  0.4122 -0.3056
30034SOL    HW290681   8.007   6.941   5.845  0.8527  1.2559  0.0765
30035SOL     OW90682   1.212   2.034   8.395 -0.2562 -0.0702 -0.5348
30035SOL    HW190683   1.155   2.111   8.392 -0.7138 -0.3683  0.1659
30035SOL    HW290684   1.230   2.022   8.489 -0.8167 -1.2584 -0.5534
30036SOL     OW90685   0.650   7.498   4.500  0.1354  0.1687  0.2307
30036SOL    HW190686   0.735   7.493   4.457  0.3457  0.9186  0.5384
30036SOL    HW290687   0.593   7.442   4.448  1.1217 -1.4222  0.7616
30037SOL     OW90688   7.477   7.483   5.089 -0.2149 -0.1712 -0.2247
30037SOL    HW190689   7.521   7.559   5.051 -1.6558  0.3249 -0.9604
30037SOL    HW290690   7.388   7.513   5.108 -0.5301 -1.4021  0.3726
30038SOL     OW90691   3.413   1.868   9.816 -0.4274  0.2983 -0.1060
30038SOL    HW190692   3.385   1.789   9.770 -2.1009  1.0421 -0.4403
30038SOL    HW290693   3.392   1.851   9.908  0.6185 -0.2160  0.0508
30039SOL     OW90694   9.346   4.100   7.840 -0.0773  0.4895  0.6226
30039SOL    HW190695   9.267   4.096   7.786 -0.1704 -1.8104  0.8272
30039SOL    HW290696   9.317   4.138   7.923 -0.6725  0.8635  0.2458
30040SOL     OW90697   3.951   1.430   0.987 -0.4507  0.0078  0.3106
30040SOL    HW190698   4.002   1.485   0.927 -0.4376  0.7668  1.0113
30040SOL    HW290699   4.007   1.353   1.000 -0.5112 -0.2307 -0.7463
30041SOL     OW90700   8.917   3.730   5.442  0.2011 -0.1026 -0.4108
30041SOL    HW190701   8.850   3.675   5.401 -0.5089 -0.4725  1.1578
30041SOL    HW290702   8.949   3.785   5.371  1.3004 -2.8369 -2.1950
30042SOL     OW90703   4.205   5.255   4.206  0.4774 -0.4505  0.2821
30042SOL    HW190704   4.197   5.321   4.137  0.5322  0.7021  1.3485
30042SOL    HW290705   4.121   5.210   4.207  0.8521 -1.2798 -1.2837
30043SOL     OW90706   5.053   9.360   8.180  0.0547 -0.0851  0.0829
30043SOL    HW190707   5.029   9.451   8.199  0.7362 -0.0904  1.0531
30043SOL    HW290708   5.116   9.338   8.248  0.7020 -0.9472 -0.7774
30044SOL     OW90709   2.495   8.448   7.317 -0.1511  0.2266  0.5546
30044SOL    HW190710   2.564   8.476   7.257 -1.2498  0.4545 -0.6585
30044SOL    HW290711   2.432   8.403   7.261 -0.4930 -0.8971  1.7953
30045SOL     OW90712   9.734   3.708   7.300  0.0735  0.0789  0.6206
30045SOL    HW190713   9.778   3.624   7.308  0.4303  0.4071  2.6951
30045SOL    HW290714   9.646   3.687   7.270  0.8508 -0.7841 -1.2222
30046SOL     OW90715   2.885   4.125   1.174  0.2927  0.2792  0.2310
30046SOL    HW190716   2.872   4.161   1.261  2.6417  2.0917 -0.0565
30046SOL    HW290717   2.835   4.183   1.116  0.9546  0.7938  0.1522
30047SOL     OW90718   1.110   9.684   7.273  0.1867 -0.8413  0.2366
30047SOL    HW190719   1.052   9.636   7.332 -0.2342 -0.1251  0.4158
30047SOL    HW290720   1.184   9.710   7.329 -0.2706 -0.0567  0.4971
30048SOL     OW90721   8.413   2.257   7.847  0.2538  0.2531 -0.4139
30048SOL    HW190722   8.330   2.271   7.893  0.8747 -0.6486  1.0841
30048SOL    HW290723   8.389   2.246   7.755 -1.5758 -2.2807  0.2528
30049SOL     OW90724   4.591   4.661   3.040  0.2014 -0.0293  0.2422
30049SOL    HW190725   4.589   4.690   3.131  1.1135 -1.1098  0.6353
30049SOL    HW290726   4.500   4.638   3.020 -0.2056  1.2658  0.4968
30050SOL     OW90727   5.337   0.867   6.253  0.0342 -0.5966  0.6762
30050SOL    HW190728   5.407   0.930   6.238  0.2944 -1.3383 -1.7578
30050SOL    HW290729   5.257   0.919   6.252  0.4333  0.0705  1.9856
30051SOL     OW90730   0.808   2.410   4.859  0.7343  0.3098 -0.4259
30051SOL    HW190731   0.886   2.363   4.831  0.6384  0.3422 -0.7505
30051SOL    HW290732   0.816   2.497   4.819 -0.2904 -0.2225 -1.8903
30052SOL     OW90733   2.751   0.140   2.720 -0.0077  0.3709 -0.8391
30052SOL    HW190734   2.824   0.092   2.682  0.2854  0.2517 -0.1435
30052SOL    HW290735   2.694   0.072   2.756  0.3366  0.5270  0.0228
30053SOL     OW90736   3.362   8.724   5.862 -0.3520  0.0621 -0.2466
30053SOL    HW190737   3.309   8.650   5.890  1.2486 -1.0040  0.1200
30053SOL    HW290738   3.365   8.782   5.938 -0.4874 -0.1718 -0.0635
30054SOL     OW90739   3.564   6.524   8.040 -0.8066  0.3468 -0.4382
30054SOL    HW190740   3.630   6.481   8.094 -2.3478 -1.6422  0.0074
30054SOL    HW290741   3.559   6.613   8.075  1.2823  0.4174 -0.2183
30055SOL     OW90742   8.101   8.141   0.864  0.4112  0.2339 -0.3702
30055SOL    HW190743   8.066   8.073   0.805  0.3022 -0.2391  0.2285
30055SOL    HW290744   8.195   8.124   0.868  0.2436 -0.5563  0.6086
30056SOL     OW90745   8.543   6.021   9.911 -0.1916 -0.2376  0.2243
30056SOL    HW190746   8.516   5.933   9.886 -0.0755 -0.4588  0.8642
30056SOL    HW290747   8.594   6.052   9.836  0.7622 -1.1661  0.4619
30057SOL     OW90748   0.659   4.326   3.897 -0.0081  0.1448 -0.1861
30057SOL    HW190749   0.747   4.352   3.926 -0.4578  1.0527  0.4267
30057SOL    HW290750   0.616   4.409   3.877 -0.7258 -0.2990 -0.5036
30058SOL     OW90751   8.300   8.590   8.486 -0.2060  0.1129  0.9213
30058SOL    HW190752   8.248   8.570   8.564  0.8392  2.2506  2.2951
30058SOL    HW290753   8.378   8.635   8.521  0.4318  0.9130 -1.3406
30059SOL     OW90754   2.005   3.625   1.664  0.2963  0.2831  0.2242
30059SOL    HW190755   2.061   3.620   1.742  0.2269  0.7372  0.3069
30059SOL    HW290756   1.945   3.551   1.674 -0.1771  0.7580  0.9738
30060SOL     OW90757   9.958   3.086   1.472 -0.7474 -0.6251  0.8271
30060SOL    HW190758   9.922   3.077   1.561 -1.5258 -2.4632  0.3688
30060SOL    HW290759   9.882   3.081   1.415 -0.3509  1.3651  0.0188
30061SOL     OW90760   9.492   1.769   1.439 -0.1543  0.2099 -0.2436
30061SOL    HW190761   9.409   1.726   1.457  0.8859 -0.8873  2.3408
30061SOL    HW290762   9.480   1.858   1.472 -0.8479  0.6207 -1.5342
30062SOL     OW90763   7.159   8.293   0.769  0.2327  0.4779  0.1144
30062SOL    HW190764   7.088   8.233   0.748  1.7011 -0.9220 -1.0944
30062SOL    HW290765   7.125   8.346   0.841 -1.7228 -0.6601  0.0961
30063SOL     OW90766   5.376   9.831   0.162 -0.1968  0.2244 -0.0680
30063SOL    HW190767   5.324   9.776   0.221 -0.1577  0.4590  0.1878
30063SOL    HW290768   5.368   9.919   0.198  1.1124  0.1336  0.5056
30064SOL     OW90769   7.791   0.906   0.013 -0.1690 -0.0329  0.0026
30064SOL    HW190770   7.771   0.914   0.106  0.2735 -0.5378  0.1538
30064SOL    HW290771   7.706   0.898  -0.030 -0.3558 -0.3352  0.4235
30065SOL     OW90772   9.638   4.215   5.419  0.2362  0.1331  0.7168
30065SOL    HW190773   9.683   4.283   5.369  1.2585 -1.2579 -0.3278
30065SOL    HW290774   9.580   4.263   5.478 -0.4964  1.8740 -1.2841
30066SOL     OW90775   5.181   5.575   1.927 -0.1693  0.3947 -0.0485
30066SOL    HW190776   5.241   5.604   1.995 -0.1435  1.1185 -0.3616
30066SOL    HW290777   5.158   5.486   1.951  1.4014 -0.0793 -0.1746
30067SOL     OW90778   2.220   4.368   6.466  0.1842  0.1720 -0.3491
30067SOL    HW190779   2.136   4.414   6.465  0.5100  0.8126 -1.5546
30067SOL    HW290780   2.284   4.436   6.487  0.5829  0.1060 -1.2908
30068SOL     OW90781   5.625   4.466   1.211 -0.3681 -0.2797  0.7089
30068SOL    HW190782   5.617   4.436   1.120 -0.1746  1.8464 -0.0714
30068SOL    HW290783   5.541   4.444   1.251 -0.0026 -2.3636  0.4034
30069SOL     OW90784   2.807   5.214   7.914 -0.4890  0.8644 -0.0479
30069SOL    HW190785   2.843   5.173   7.992  1.4274 -0.0587 -1.3271
30069SOL    HW290786   2.720   5.245   7.940 -0.7908 -1.3202  1.8446
30070SOL     OW90787   0.263   4.687   9.458 -0.4357  0.4807 -0.1256
30070SOL    HW190788   0.268   4.680   9.553 -0.9851 -0.0087 -0.1302
30070SOL    HW290789   0.211   4.766   9.443 -0.3137  0.5812 -0.0165
30071SOL     OW90790   6.441   2.293   3.644  0.1069 -0.1909  0.5753
30071SOL    HW190791   6.533   2.275   3.666  0.6284  1.9522  0.3697
30071SOL    HW290792   6.408   2.341   3.720 -0.1984  0.9319 -0.2470
30072SOL     OW90793   6.177   3.275   0.190  0.3063 -0.3815  0.4689
30072SOL    HW190794   6.108   3.241   0.132  2.0763 -4.1056  0.2531
30072SOL    HW290795   6.241   3.313   0.130 -0.5049  1.1640  0.5253
30073SOL     OW90796   2.647   4.095   3.053  0.5682  0.2094 -0.4826
30073SOL    HW190797   2.662   4.128   3.141 -0.8805 -0.6395  0.1016
30073SOL    HW290798   2.713   4.026   3.041  2.1548  1.7180 -0.8954
30074SOL     OW90799   5.261   0.343   6.426 -0.1060  0.5514  0.1169
30074SOL    HW190800   5.303   0.387   6.353 -1.1848  1.3899 -0.0244
30074SOL    HW290801   5.291   0.252   6.420  1.5273  1.0780 -0.0497
30075SOL     OW90802   0.003   8.069   5.435  0.1475  0.1272  0.7052
30075SOL    HW190803   0.036   7.980   5.425  0.2545  0.1366  0.9830
30075SOL    HW290804   0.043   8.101   5.515  0.9981  0.8249  0.0316
30076SOL     OW90805   8.056   3.974   0.069 -0.3488 -0.0101  0.4510
30076SOL    HW190806   8.042   3.881   0.049  0.2076 -0.2167  1.0136
30076SOL    HW290807   7.998   3.991   0.144 -0.3496  0.0651  0.4327
30077SOL     OW90808   8.525   2.939   3.814  0.3256 -0.2187 -0.6813
30077SOL    HW190809   8.525   3.001   3.741 -0.3919  1.9120  1.0223
30077SOL    HW290810   8.449   2.883   3.797  0.3068  0.0965 -1.6928
30078SOL     OW90811   8.308   4.098   2.473  0.1826  0.3459 -0.5465
30078SOL    HW190812   8.256   4.021   2.494  2.6335 -1.2326  0.1918
30078SOL    HW290813   8.312   4.099   2.378 -1.2208  0.5839 -0.6298
30079SOL     OW90814   5.204   9.457   9.615 -0.3215  0.1420 -0.6501
30079SOL    HW190815   5.250   9.525   9.664  0.3849  0.2576 -1.4471
30079SOL    HW290816   5.156   9.407   9.681 -0.9181  1.4587 -0.0643
30080SOL     OW90817   8.489   6.713   8.108  0.0644  0.4139  0.7278
30080SOL    HW190818   8.465   6.792   8.156 -1.9829  0.5022 -0.3486
30080SOL    HW290819   8.521   6.653   8.176 -1.6303  0.9448  2.0717
30081SOL     OW90820   6.809   1.603   5.861  0.5100  0.0525 -0.5920
30081SOL    HW190821   6.728   1.556   5.882  0.6818  0.1207  0.2475
30081SOL    HW290822   6.784   1.695   5.858  0.3667 -0.0025 -1.2986
30082SOL     OW90823   8.098   3.896   1.680  0.3887 -0.0756  0.5868
30082SOL    HW190824   8.145   3.980   1.681  0.3013 -0.0055 -0.5267
30082SOL    HW290825   8.168   3.831   1.671  0.3049  0.0431 -1.3592
30083SOL     OW90826   3.586   5.716   6.947  0.2699  0.3339  0.3988
30083SOL    HW190827   3.549   5.671   7.022 -0.6824  1.2484  0.5087
30083SOL    HW290828   3.555   5.666   6.871  0.8673 -0.3347  0.5958
30084SOL     OW90829   8.165   1.600   5.642  1.4227 -0.0734 -0.9797
30084SOL    HW190830   8.223   1.608   5.717  0.6135 -1.1310 -0.2098
30084SOL    HW290831   8.086   1.558   5.677  0.1604  1.3695 -1.9743
30085SOL     OW90832   9.258   9.038   6.945  0.2474 -0.2545 -0.1735
30085SOL    HW190833   9.335   9.044   6.889  0.9513 -1.0566  0.6790
30085SOL    HW290834   9.232   9.129   6.959  0.8081  0.0086 -0.7758
30086SOL     OW90835   0.505   2.708   5.260 -0.5038 -0.2939  0.0934
30086SOL    HW190836   0.600   2.698   5.267 -0.3194 -1.9049 -2.9558
30086SOL    HW290837   0.475   2.723   5.350  2.6537  0.8900  1.0633
30087SOL     OW90838   9.812   7.032   9.078 -0.3517 -0.1329  0.1740
30087SOL    HW190839   9.795   6.954   9.024 -0.1230  0.6201 -1.0041
30087SOL    HW290840   9.905   7.028   9.097 -0.1915  0.2277 -0.5020
30088SOL     OW90841   2.304   5.099   6.461 -0.3416 -0.5463  0.1658
30088SOL    HW190842   2.343   5.177   6.422 -1.1733  0.0238  0.4284
30088SOL    HW290843   2.238   5.070   6.397 -0.4766 -0.6528  0.3501
30089SOL     OW90844   3.607   5.340   3.326 -0.5908 -0.0724  0.1975
30089SOL    HW190845   3.682   5.382   3.284 -0.6967  0.9306  0.9970
30089SOL    HW290846   3.601   5.254   3.284  2.2940 -1.0466  1.5466
30090SOL     OW90847   9.695   0.305   4.509 -0.1302  0.0027 -0.2263
30090SOL    HW190848   9.653   0.241   4.566  0.9110  0.1397  0.7331
30090SOL    HW290849   9.660   0.287   4.422 -2.0493  0.0370  0.5023
30091SOL     OW90850   9.484   9.108   6.784 -0.1812 -0.1691  0.0049
30091SOL    HW190851   9.531   9.098   6.701  0.8507  0.4651  0.4884
30091SOL    HW290852   9.525   9.184   6.825  1.8977 -2.6046  2.7889
30092SOL     OW90853   0.472   3.681   6.703  0.3099 -0.1520 -0.0462
30092SOL    HW190854   0.508   3.726   6.627  1.1006 -0.8038 -0.0754
30092SOL    HW290855   0.524   3.714   6.777  0.1712 -0.2087  0.0775
30093SOL     OW90856   7.367   1.544   3.196  0.0402 -0.1026  0.5355
30093SOL    HW190857   7.330   1.505   3.117 -0.9528  2.9497 -0.6791
30093SOL    HW290858   7.327   1.495   3.268 -2.0061 -0.6081 -0.8377
30094SOL     OW90859   9.650   7.165   7.734  0.0998 -0.1264  0.1617
30094SOL    HW190860   9.712   7.106   7.692  1.1526 -0.0119  1.4831
30094SOL    HW290861   9.702   7.210   7.801 -0.9204  1.5439 -0.1305
30095SOL     OW90862   7.816   6.880   9.185  0.1771  0.0062  0.0419
30095SOL    HW190863   7.808   6.854   9.093 -0.5902 -0.2220  0.1684
30095SOL    HW290864   7.854   6.967   9.182  0.4709 -0.1352 -0.4783
30096SOL     OW90865   6.863   4.161   8.716 -0.3725 -0.6308 -0.3764
30096SOL    HW190866   6.920   4.238   8.720 -0.1540 -0.8333  0.7927
30096SOL    HW290867   6.919   4.092   8.678  0.5820 -1.1307  1.7687
30097SOL     OW90868   8.993   8.574   0.833 -0.6001  0.1794  0.1760
30097SOL    HW190869   8.964   8.490   0.797  0.9218 -0.5869  0.6666
30097SOL    HW290870   9.047   8.550   0.908  0.4592  1.5710 -0.1043
30098SOL     OW90871   0.515   9.323   2.555 -0.6302  0.1779 -0.1080
30098SOL    HW190872   0.439   9.276   2.588  0.1761 -1.2899 -0.2469
30098SOL    HW290873   0.528   9.289   2.466  0.4486  0.0697  0.0784
30099SOL     OW90874   8.326   7.540   6.526 -0.5388  0.0279 -0.3829
30099SOL    HW190875   8.251   7.587   6.490 -1.0734  0.2929  1.0091
30099SOL    HW290876   8.395   7.606   6.534 -0.8109  0.2501  0.1897
30100SOL     OW90877   6.554   4.565   6.744 -0.2136 -0.2208  0.0046
30100SOL    HW190878   6.478   4.585   6.798  0.9195  0.9377  1.2569
30100SOL    HW290879   6.534   4.603   6.659 -0.8704  0.4373  0.4467
30101SOL     OW90880   1.723   1.441   0.205 -0.1403  0.2803 -0.3516
30101SOL    HW190881   1.804   1.490   0.218  1.1409 -0.5713 -3.8695
30101SOL    HW290882   1.730   1.366   0.263  0.5222  1.3209  0.9724
30102SOL     OW90883   5.390   8.241   5.693  0.0330 -0.0403  0.0312
30102SOL    HW190884   5.319   8.260   5.754 -0.5202  2.3294 -1.2227
30102SOL    HW290885   5.386   8.312   5.629  3.4049  0.0760 -0.2313
30103SOL     OW90886   7.945   6.714   4.443  0.0563 -0.0919  0.2387
30103SOL    HW190887   7.996   6.749   4.516  1.7451 -1.2836 -0.3023
30103SOL    HW290888   7.961   6.775   4.371  0.4251 -0.2382  0.1896
30104SOL     OW90889   3.347   7.204   3.508 -0.3984  0.4979 -0.2130
30104SOL    HW190890   3.423   7.261   3.497  0.0507 -0.1317 -0.4479
30104SOL    HW290891   3.331   7.170   3.420 -1.8910  1.7836 -0.4760
30105SOL     OW90892   7.604   0.067   3.108  0.3759 -0.0902  0.4890
30105SOL    HW190893   7.631   0.005   3.040  1.7738 -0.4499  1.3368
30105SOL    HW290894   7.639   0.151   3.079  1.2683 -0.3054  0.9094
30106SOL     OW90895   0.646   6.600   5.527  0.3030 -0.2100  0.7935
30106SOL    HW190896   0.557   6.583   5.496  1.5689  1.0809 -4.5696
30106SOL    HW290897   0.676   6.514   5.558 -2.0101 -1.2537  0.4079
30107SOL     OW90898   4.192   6.726   3.626  0.4872 -0.1748 -0.1028
30107SOL    HW190899   4.285   6.749   3.621  0.5718 -0.3500  0.6332
30107SOL    HW290900   4.180   6.693   3.714 -0.4364  0.5550  0.0619
30108SOL     OW90901   6.843   2.807   2.674  0.0841  0.4889  0.1700
30108SOL    HW190902   6.855   2.803   2.769 -1.5745 -0.5623  0.3646
30108SOL    HW290903   6.925   2.772   2.638  1.1169  1.7901  1.1454
30109SOL     OW90904   5.165   0.377   5.024  0.0515  0.3586  0.3092
30109SOL    HW190905   5.221   0.416   5.091  0.4681 -0.8210  0.6741
30109SOL    HW290906   5.087   0.350   5.071  0.0160  0.2224  0.1727
30110SOL     OW90907   4.430   1.685   3.441 -0.0976  0.4978  0.6297
30110SOL    HW190908   4.463   1.645   3.522 -0.4661 -0.5100  0.2985
30110SOL    HW290909   4.375   1.617   3.402 -0.6414  1.3037 -0.0201
30111SOL     OW90910   4.395   7.682   0.857  0.8269  0.1836  0.1890
30111SOL    HW190911   4.448   7.685   0.937  0.2772  0.0211  0.5730
30111SOL    HW290912   4.376   7.773   0.837 -1.2202  0.2033  1.7728
30112SOL     OW90913   9.657   8.030   3.665  0.1771 -0.1906  0.2096
30112SOL    HW190914   9.730   7.970   3.648 -1.0059 -1.5499 -0.1734
30112SOL    HW290915   9.661   8.044   3.760  1.0147 -0.1240  0.1790
30113SOL     OW90916   6.353   3.079   1.026  0.4081 -0.1596  0.1445
30113SOL    HW190917   6.341   3.116   1.113  1.1705  0.0284  0.1817
30113SOL    HW290918   6.378   2.988   1.042 -0.0910 -0.3074  0.0976
30114SOL     OW90919   4.208   1.960   7.793 -0.3225  0.1662  0.1529
30114SOL    HW190920   4.277   2.015   7.829 -0.7222 -0.5066  2.0649
30114SOL    HW290921   4.170   2.012   7.722  0.9861  1.2496  0.2102
30115SOL     OW90922   5.072   5.427   5.797 -0.0071 -0.4472 -0.1363
30115SOL    HW190923   5.114   5.341   5.792 -0.9047 -1.1870  2.9207
30115SOL    HW290924   5.117   5.471   5.870 -3.6376 -0.9075  2.6518
30116SOL     OW90925   1.761   4.214   4.329 -0.3117  0.1947 -0.8109
30116SOL    HW190926   1.673   4.199   4.294 -0.8812  0.1045  0.5603
30116SOL    HW290927   1.751   4.201   4.424  1.3276 -0.4328 -0.6963
30117SOL     OW90928   0.580   7.292   9.149  0.1553 -0.0863  0.3133
30117SOL    HW190929   0.672   7.309   9.167  0.4958 -0.8237 -0.6749
30117SOL    HW290930   0.578   7.260   9.059 -0.5941 -3.3979  1.3390
30118SOL     OW90931   1.000   3.554   0.290  0.4533  0.1031  0.2552
30118SOL    HW190932   0.983   3.469   0.250  0.3301  0.6505 -0.8939
30118SOL    HW290933   0.970   3.544   0.380 -2.0935 -0.2837 -0.5441
30119SOL     OW90934   4.916   7.473   5.027  0.0801  0.0170  0.3259
30119SOL    HW190935   4.973   7.531   5.076  0.2376  0.7416 -0.6881
30119SOL    HW290936   4.862   7.431   5.094  2.0602 -1.0333  1.3697
30120SOL     OW90937   9.299   0.085   3.770  0.3392 -0.1933 -0.1727
30120SOL    HW190938   9.364   0.047   3.710 -1.7279 -2.8836 -0.9183
30120SOL    HW290939   9.336   0.071   3.857  1.2923 -0.6258 -0.6293
30121SOL     OW90940   8.188   1.324   3.326  0.6865  0.0515  0.3592
30121SOL    HW190941   8.141   1.312   3.243 -0.9623 -0.7142  1.3528
30121SOL    HW290942   8.188   1.419   3.340 -2.1334  0.0310  1.1152
30122SOL     OW90943   3.310   0.045   9.376 -0.3129 -0.2212  0.0235
30122SOL    HW190944   3.305  -0.026   9.441  1.3398  0.4647  0.9524
30122SOL    HW290945   3.220   0.078   9.371 -0.5813 -0.6030  1.6260
30123SOL     OW90946   5.724   3.589   0.015 -0.0096  0.6023  0.0944
30123SOL    HW190947   5.698   3.678  -0.009 -0.0303  0.9742  1.3895
30123SOL    HW290948   5.818   3.597   0.034  0.3696 -0.0302 -1.4091
30124SOL     OW90949   6.944   4.299   0.654  0.1530  0.2001 -0.3739
30124SOL    HW190950   6.862   4.251   0.664  0.4929 -0.2930  0.0711
30124SOL    HW290951   6.917   4.389   0.635 -0.5016  0.2708  0.8071
30125SOL     OW90952   3.547   4.860   9.733 -0.5565  0.4370  0.6808
30125SOL    HW190953   3.512   4.811   9.659  1.8658 -0.9638  0.3468
30125SOL    HW290954   3.577   4.942   9.695 -1.9078  0.9522  0.6782
30126SOL     OW90955   9.968   1.557   5.042 -0.1679 -0.1103 -0.7759
30126SOL    HW190956   9.964   1.581   4.950  3.3022 -1.1589 -1.3624
30126SOL    HW290957   9.980   1.641   5.088  0.2289  0.2584 -1.5341
30127SOL     OW90958   8.589   7.993   3.451  0.3718  0.3821 -0.0216
30127SOL    HW190959   8.514   8.000   3.510 -0.2121 -1.2668 -0.5198
30127SOL    HW290960   8.550   7.991   3.363  0.8986 -1.2308 -0.2525
30128SOL     OW90961   7.576   8.765   2.809  0.3214  0.1025  0.8782
30128SOL    HW190962   7.527   8.715   2.743  0.0405 -1.4112  2.1676
30128SOL    HW290963   7.641   8.703   2.842  1.3659  1.2671  1.0766
30129SOL     OW90964   6.470   3.178   0.785  0.1128 -0.6730  0.2637
30129SOL    HW190965   6.422   3.147   0.861  1.6170 -2.0768  0.6989
30129SOL    HW290966   6.504   3.264   0.810 -1.0312 -0.2494  0.4192
30130SOL     OW90967   4.210   4.093   1.723  0.3055 -0.3231  0.3372
30130SOL    HW190968   4.294   4.058   1.752 -0.2437 -2.0113  0.0359
30130SOL    HW290969   4.202   4.063   1.632 -0.4434  0.1549  0.2370
30131SOL     OW90970   7.513   2.524   2.194  0.0448 -0.7414  0.1539
30131SOL    HW190971   7.558   2.605   2.170  3.6309 -1.7645  2.6016
30131SOL    HW290972   7.428   2.553   2.227  1.2176  2.0876  1.0458
30132SOL     OW90973   8.973   3.813   5.717 -0.3908  0.2250  0.0742
30132SOL    HW190974   9.014   3.750   5.658  3.1776  2.2204  0.1035
30132SOL    HW290975   8.955   3.764   5.797  2.0432 -0.9152  0.0230
30133SOL     OW90976   1.730   0.313   1.207 -0.3455 -0.3363  0.2521
30133SOL    HW190977   1.706   0.355   1.124 -2.2017 -1.7681  0.0130
30133SOL    HW290978   1.655   0.327   1.264 -0.6287 -2.4361  0.4775
30134SOL     OW90979   7.633   9.595   1.623  0.4404  0.5522  0.0659
30134SOL    HW190980   7.658   9.641   1.542 -0.0866  1.4135  0.3765
30134SOL    HW290981   7.557   9.543   1.598 -0.1010  1.2914  0.1365
30135SOL     OW90982   0.432   8.938   6.622 -0.2201  0.0205 -0.2750
30135SOL    HW190983   0.392   8.973   6.542 -0.2227 -0.2949 -0.4129
30135SOL    HW290984   0.449   9.015   6.676 -0.3139  0.2266 -0.5368
30136SOL     OW90985   3.703   7.386   8.174 -0.0148 -0.5838 -0.5618
30136SOL    HW190986   3.648   7.447   8.225  0.8674 -0.3810  0.1807
30136SOL    HW290987   3.716   7.430   8.090 -1.7675 -1.0701 -1.1309
30137SOL     OW90988   3.527   3.631   7.373  0.1866 -0.2554  0.6832
30137SOL    HW190989   3.442   3.624   7.416 -0.7133 -0.6361 -1.0954
30137SOL    HW290990   3.527   3.719   7.334  0.4527 -0.3981  0.3575
30138SOL     OW90991   9.976   0.685   6.355  0.1599 -0.5292  0.0901
30138SOL    HW190992   9.906   0.624   6.334  0.2812 -0.6507  0.0423
30138SOL    HW290993   9.977   0.688   6.451  0.3259 -0.7993  0.0966
30139SOL     OW90994   3.122   2.234   4.485 -0.0603 -0.3355 -0.0421
30139SOL    HW190995   3.031   2.258   4.465  0.7878  1.2504 -2.3243
30139SOL    HW290996   3.143   2.165   4.422  0.9716  0.8868 -1.0907
30140SOL     OW90997   4.782   0.646   3.063  0.4520 -1.4510 -0.3064
30140SOL    HW190998   4.730   0.714   3.106 -0.7283 -0.5958 -2.8829
30140SOL    HW290999   4.794   0.579   3.130 -1.4023 -0.3100  1.2765
30141SOL     OW91000   4.543   6.971   0.108  0.6295 -0.1719  0.4390
30141SOL    HW191001   4.544   6.875   0.108 -0.7375 -0.2135 -0.0387
30141SOL    HW291002   4.621   6.996   0.059 -0.7873 -1.1377 -2.5358
30142SOL     OW91003   9.435   2.162   3.883 -0.2822  0.0350 -0.3732
30142SOL    HW191004   9.462   2.239   3.833 -1.1885  0.0131 -0.9281
30142SOL    HW291005   9.515   2.113   3.898  0.1692  0.6282 -0.8124
30143SOL     OW91006   6.165   0.692   1.899  0.0431  0.2659  0.0304
30143SOL    HW191007   6.078   0.694   1.859  0.0567 -3.0434 -0.4651
30143SOL    HW291008   6.148   0.671   1.991  0.1998 -4.2554 -0.7431
30144SOL     OW91009   8.293   0.072   6.882 -0.2345 -0.1423  0.5848
30144SOL    HW191010   8.344   0.085   6.963  1.0704  2.7284 -0.5667
30144SOL    HW291011   8.359   0.053   6.815 -0.9735  0.4292 -0.3320
30145SOL     OW91012   1.175   1.631   5.602  0.4041  0.1403  0.4647
30145SOL    HW191013   1.117   1.637   5.678  0.2402 -0.7811  0.4243
30145SOL    HW291014   1.254   1.588   5.636  0.4618  0.0208  0.1781
30146SOL     OW91015   8.407   7.507   9.113 -0.7255 -0.2122 -0.1596
30146SOL    HW191016   8.493   7.489   9.076 -0.1921  0.8311  0.4957
30146SOL    HW291017   8.355   7.542   9.040 -1.0268 -2.0471 -0.8631
30147SOL     OW91018   1.017   2.942   4.807  0.1687 -0.0487 -0.2435
30147SOL    HW191019   0.947   2.949   4.742  0.6385  0.9930 -0.6642
30147SOL    HW291020   0.980   2.982   4.886  0.3439  0.6544 -0.5154
30148SOL     OW91021   8.099   2.231   7.296 -0.1905 -0.1769  0.3112
30148SOL    HW191022   8.044   2.162   7.261 -0.6964  0.8274 -0.9568
30148SOL    HW291023   8.188   2.197   7.287 -0.4788 -1.0173  0.5452
30149SOL     OW91024   5.845   9.392   3.027 -0.3777 -0.3542  0.8377
30149SOL    HW191025   5.897   9.466   2.994  0.7690 -0.8502  1.4572
30149SOL    HW291026   5.763   9.397   2.979  0.4288  0.1780 -0.5429
30150SOL     OW91027   0.434   6.448   3.974  0.1950 -0.2854  0.0054
30150SOL    HW191028   0.338   6.447   3.966  0.0774  0.9326  0.9034
30150SOL    HW291029   0.456   6.364   4.014 -0.6745  0.0035  1.1676
30151SOL     OW91030   0.736   8.897   5.851 -0.8648  0.2331  0.1630
30151SOL    HW191031   0.762   8.812   5.888  0.0993  0.3486 -0.2127
30151SOL    HW291032   0.676   8.934   5.916  0.5937  0.3303  1.5162
30152SOL     OW91033   9.354   6.534   4.003  0.3691  0.1787 -1.0064
30152SOL    HW191034   9.372   6.607   3.944  0.9532  0.4301 -0.5262
30152SOL    HW291035   9.402   6.555   4.083  0.9045 -0.9414 -1.0094
30153SOL     OW91036   6.106   9.345   4.792 -0.2167 -0.2016 -0.0484
30153SOL    HW191037   6.081   9.351   4.884 -1.9108  0.9943 -0.5372
30153SOL    HW291038   6.172   9.413   4.781  0.3365 -0.6650  0.3780
30154SOL     OW91039   1.166   4.336   1.949  0.0314  0.1663 -0.3132
30154SOL    HW191040   1.250   4.382   1.943  0.3019 -0.4540 -1.4790
30154SOL    HW291041   1.167   4.297   2.037  1.4858 -0.7837 -0.7075
30155SOL     OW91042   0.077   8.888   4.141  0.1423 -0.2429 -0.3231
30155SOL    HW191043   0.084   8.978   4.172 -1.5568 -0.0119 -0.5022
30155SOL    HW291044   0.061   8.896   4.047 -0.5984 -0.6872 -0.2450
30156SOL     OW91045   2.628   6.709   7.052  0.5222 -0.1702  0.3038
30156SOL    HW191046   2.722   6.708   7.033  0.8504  0.6994  1.7704
30156SOL    HW291047   2.617   6.776   7.119 -1.1800 -0.1650  0.0694
30157SOL     OW91048   5.995   9.086   0.921  0.4054  0.0709  0.3401
30157SOL    HW191049   5.900   9.098   0.929  0.1848 -1.6963  0.9128
30157SOL    HW291050   6.025   9.076   1.011  0.9241 -0.6757  0.0903
30158SOL     OW91051   3.096   1.048   3.708 -0.0312 -0.6391  0.4206
30158SOL    HW191052   3.143   1.101   3.773  2.1609 -0.8032 -0.9086
30158SOL    HW291053   3.053   1.112   3.652  2.0074 -0.1801 -0.7443
30159SOL     OW91054   2.146   6.749   3.418  0.5398  0.0733  0.0543
30159SOL    HW191055   2.131   6.753   3.324  0.7735  1.9184  0.0640
30159SOL    HW291056   2.230   6.703   3.427 -0.6535 -2.3975 -0.4442
30160SOL     OW91057   0.809   2.012   4.418  0.4561 -0.2025 -0.0103
30160SOL    HW191058   0.779   2.027   4.507 -0.2635  1.9694 -0.5685
30160SOL    HW291059   0.802   2.097   4.375  2.2686 -0.8333 -1.7186
30161SOL     OW91060   7.740   5.781   9.544  0.3261  0.5216 -0.4896
30161SOL    HW191061   7.710   5.741   9.462 -0.8886 -0.5687  0.4415
30161SOL    HW291062   7.836   5.781   9.538  0.2645 -0.1104 -1.6421
30162SOL     OW91063   7.028   1.865   1.714  0.1863  0.2852  0.2533
30162SOL    HW191064   6.948   1.827   1.677 -0.9537  2.9101 -0.2214
30162SOL    HW291065   7.003   1.954   1.738  2.8998  1.0804  0.4452
30163SOL     OW91066   7.608   4.784   3.007 -0.2700 -0.1081 -0.1519
30163SOL    HW191067   7.597   4.857   2.946  0.3892  0.5294  0.4791
30163SOL    HW291068   7.703   4.770   3.012 -0.3575 -0.6341  0.1664
30164SOL     OW91069   6.473   3.218   2.112  0.4850 -0.2665  0.5239
30164SOL    HW191070   6.387   3.199   2.075  0.4223  0.0473  0.5095
30164SOL    HW291071   6.455   3.254   2.199  0.5725  0.4328  0.2592
30165SOL     OW91072   3.797   1.614   4.162 -0.3113  0.0034  0.2570
30165SOL    HW191073   3.763   1.578   4.081 -1.7853  0.7692  0.5039
30165SOL    HW291074   3.760   1.558   4.231  1.6369 -1.1989  0.4166
30166SOL     OW91075   5.576   0.900   9.292  0.5469 -0.4387  0.0377
30166SOL    HW191076   5.503   0.959   9.313  1.2540  0.5736 -0.2731
30166SOL    HW291077   5.555   0.866   9.205  1.3605  1.3618 -0.9111
30167SOL     OW91078   0.038   8.652   7.077  0.3469  0.1796 -0.0997
30167SOL    HW191079   0.116   8.603   7.050 -0.7662 -0.9735 -1.4734
30167SOL    HW291080  -0.021   8.584   7.111 -0.0112  1.0536  1.0661
30168SOL     OW91081   9.379   8.571   3.839 -0.5334 -0.2223  0.0210
30168SOL    HW191082   9.336   8.656   3.851 -0.7770 -0.6196  2.4379
30168SOL    HW291083   9.472   8.592   3.829 -0.4077  0.3330  1.9153
30169SOL     OW91084   8.916   4.779   6.935  0.3140 -0.2505 -0.5562
30169SOL    HW191085   8.997   4.730   6.944  0.3676 -0.0820 -0.1021
30169SOL    HW291086   8.900   4.781   6.841  0.7286 -0.4591 -0.6338
30170SOL     OW91087   9.102   9.517   1.865  0.1759 -0.0417  0.3195
30170SOL    HW191088   9.090   9.434   1.819  1.5382 -0.3285  0.4401
30170SOL    HW291089   9.025   9.525   1.921 -1.7167  0.4796 -2.1906
30171SOL     OW91090   1.937   4.347   5.896  0.1369 -0.2091 -0.2078
30171SOL    HW191091   2.028   4.322   5.882  0.8159  1.2068  1.4012
30171SOL    HW291092   1.929   4.359   5.990 -1.5032  0.5195 -0.4041
30172SOL     OW91093   3.698   9.552   5.391  0.0047 -0.2824  0.1716
30172SOL    HW191094   3.604   9.544   5.374  0.0948 -0.7087 -0.1512
30172SOL    HW291095   3.735   9.585   5.309  0.1793 -0.4274  0.1905
30173SOL     OW91096   6.717   4.174   7.754  0.4572  0.8329 -0.1790
30173SOL    HW191097   6.675   4.259   7.768  0.3308  0.7733 -0.1959
30173SOL    HW291098   6.756   4.152   7.839 -1.2930 -0.0608  0.4382
30174SOL     OW91099   1.963   5.567   4.101  0.2922 -0.5425  0.3382
30174SOL    HW191100   1.998   5.600   4.183  1.3584 -0.2661 -0.2035
30174SOL    HW291101   2.039   5.531   4.055  0.0867  0.9085 -1.2799
30175SOL     OW91102   9.629   2.784   9.025 -0.1905  0.0203  0.0268
30175SOL    HW191103   9.604   2.869   8.989  0.2113  1.1176  2.1525
30175SOL    HW291104   9.548   2.732   9.024 -0.6330  0.7160 -0.5426
30176SOL     OW91105   0.544   5.757   0.433 -0.6111 -0.0650 -0.0538
30176SOL    HW191106   0.477   5.745   0.367 -0.2909 -0.1866 -0.3628
30176SOL    HW291107   0.583   5.670   0.443 -0.3500  0.0519 -0.0414
30177SOL     OW91108   0.395   4.060   3.174 -0.2571 -0.6124 -0.2479
30177SOL    HW191109   0.314   4.011   3.164 -0.7130  0.1852 -0.5438
30177SOL    HW291110   0.464   3.996   3.158 -0.8100 -1.4176  0.4965
30178SOL     OW91111   2.007   9.315   0.871  0.3119  0.0860  0.2566
30178SOL    HW191112   2.097   9.282   0.861  1.3249  2.3114  1.4770
30178SOL    HW291113   1.983   9.292   0.960  0.3315  0.9541  0.4952
30179SOL     OW91114   1.226   1.199   2.362  0.6543 -0.2624  0.0771
30179SOL    HW191115   1.302   1.232   2.410  0.2543  0.8223 -0.0173
30179SOL    HW291116   1.189   1.276   2.320 -1.8633 -0.3137  1.9633
30180SOL     OW91117   7.330   7.974   8.933  0.1938 -1.0792  0.1004
30180SOL    HW191118   7.383   7.937   9.004  1.5478 -2.5067 -1.5641
30180SOL    HW291119   7.254   7.917   8.927  0.4546 -1.4140 -0.0670
30181SOL     OW91120   8.084   9.444   9.644  0.3867  0.1077 -0.2925
30181SOL    HW191121   8.112   9.439   9.735  0.0887  2.1413 -0.0516
30181SOL    HW291122   8.026   9.520   9.640 -0.9775 -0.9245 -1.8456
30182SOL     OW91123   1.952   1.746   6.652  0.0926  0.0255  0.1828
30182SOL    HW191124   1.983   1.760   6.562  1.3118  2.0784  0.8682
30182SOL    HW291125   1.889   1.674   6.644 -0.1833  0.4484 -2.3833
30183SOL     OW91126   9.690   9.379   9.737  0.0147  0.2575 -0.5252
30183SOL    HW191127   9.607   9.410   9.771 -0.2718  0.7122 -1.5852
30183SOL    HW291128   9.697   9.289   9.768 -0.1751  0.6759  0.7782
30184SOL     OW91129   9.131   5.312   5.860  0.2925 -0.0819 -0.0738
30184SOL    HW191130   9.110   5.392   5.907 -0.6905 -0.3469 -0.0330
30184SOL    HW291131   9.148   5.247   5.929  2.4826  0.4025 -0.0938
30185SOL     OW91132   4.214   1.457   9.006  0.0704 -0.9923 -0.1607
30185SOL    HW191133   4.217   1.467   8.911 -0.2851  1.1660  0.0161
30185SOL    HW291134   4.245   1.540   9.041  0.0493 -1.6831  1.6317
30186SOL     OW91135   5.079   8.572   8.336 -0.2317  0.3577 -0.4569
30186SOL    HW191136   5.170   8.571   8.367  0.3056 -1.1318 -1.9505
30186SOL    HW291137   5.027   8.546   8.412  0.8518 -1.2818 -0.2327
30187SOL     OW91138   8.969   1.971   7.943  0.1256 -0.2069 -0.0427
30187SOL    HW191139   9.012   2.051   7.972 -0.4340  0.1811 -0.2772
30187SOL    HW291140   9.021   1.900   7.982  0.4814  0.2711  0.3557
30188SOL     OW91141   8.732   5.646   6.296  0.3105 -0.8723  0.4440
30188SOL    HW191142   8.764   5.723   6.345  2.0829 -0.9189 -0.5413
30188SOL    HW291143   8.808   5.587   6.293 -0.7365 -2.2576  0.3595
30189SOL     OW91144   8.315   4.374   4.804 -0.0600 -0.5421 -0.4085
30189SOL    HW191145   8.321   4.348   4.712 -1.1692 -2.3296 -0.0052
30189SOL    HW291146   8.404   4.367   4.837  0.3787  0.2735 -1.3645
30190SOL     OW91147   8.543   5.459   4.341 -0.1296 -0.2128 -0.0668
30190SOL    HW191148   8.527   5.404   4.418 -0.7353  0.2944  0.1789
30190SOL    HW291149   8.605   5.526   4.372  0.0618 -0.3411 -0.1731
30191SOL     OW91150   0.648   3.672   5.058  0.5869 -0.0594  0.1103
30191SOL    HW191151   0.715   3.605   5.040  0.3703  0.1619 -1.6564
30191SOL    HW291152   0.585   3.628   5.114  0.0076 -1.6610 -1.6918
30192SOL     OW91153   0.127   6.058   7.795 -0.2852 -0.1076 -0.4848
30192SOL    HW191154   0.116   5.963   7.792  1.1679 -0.3115 -0.1976
30192SOL    HW291155   0.082   6.090   7.717  0.0225 -1.1319 -1.0985
30193SOL     OW91156   1.079   6.022   6.322 -0.1719  0.2695 -0.1452
30193SOL    HW191157   1.139   6.081   6.366  0.2979 -0.2601 -0.0608
30193SOL    HW291158   1.104   6.026   6.230  1.9298 -2.0756  0.2103
30194SOL     OW91159   4.342   0.557   4.521  0.3075 -0.1732  0.2400
30194SOL    HW191160   4.348   0.648   4.491  1.0681  0.4758  2.2174
30194SOL    HW291161   4.386   0.507   4.453 -0.3973  0.8949 -1.0441
30195SOL     OW91162   1.915   3.291   8.126  0.3400  0.4116  0.2056
30195SOL    HW191163   1.932   3.213   8.178  2.1215  2.3207  2.7576
30195SOL    HW291164   1.832   3.325   8.161 -2.0990 -1.7231 -2.9501
30196SOL     OW91165   5.863   2.946   0.713 -0.2419  0.3051 -0.2680
30196SOL    HW191166   5.873   2.917   0.622 -0.8843  1.2098 -0.6501
30196SOL    HW291167   5.953   2.951   0.746 -0.0777 -1.6476 -0.2947
30197SOL     OW91168   0.316   9.659   7.830 -0.4134  0.0042  0.0482
30197SOL    HW191169   0.270   9.600   7.771 -1.3424  1.8487 -1.1499
30197SOL    HW291170   0.344   9.603   7.903 -1.4375 -1.8430 -0.9173
30198SOL     OW91171   3.545   6.921   4.685  0.3852  0.2419 -0.3481
30198SOL    HW191172   3.595   6.843   4.710  1.9065  0.6771 -1.9254
30198SOL    HW291173   3.455   6.900   4.713  1.0371 -1.4007  0.7003
30199SOL     OW91174   9.003   5.021   6.401 -0.1598  0.3785 -0.3756
30199SOL    HW191175   8.915   5.010   6.365 -0.0852 -1.1890 -0.1338
30199SOL    HW291176   9.054   4.950   6.363  0.8896  0.9707 -0.1191
30200SOL     OW91177   5.072   0.120   9.235  0.0947 -0.2506 -0.4317
30200SOL    HW191178   5.125   0.091   9.161 -1.3086 -1.2224 -1.1064
30200SOL    HW291179   4.984   0.131   9.198 -0.6530 -0.8351  1.0984
30201SOL     OW91180   4.163   2.054   4.449 -0.4612 -0.1033  0.0149
30201SOL    HW191181   4.131   2.132   4.404 -1.2593 -0.7707 -0.5951
30201SOL    HW291182   4.084   2.005   4.471  0.0787 -2.3041 -2.4337
30202SOL     OW91183   4.782   0.319   3.969  0.3245 -0.0416 -0.0344
30202SOL    HW191184   4.687   0.330   3.975  0.2998 -0.6143  0.8000
30202SOL    HW291185   4.816   0.374   4.039  0.5888 -0.0584 -0.1512
30203SOL     OW91186   0.443   9.229   6.111 -0.2202  0.2857 -0.0089
30203SOL    HW191187   0.508   9.279   6.061  1.6312  0.3158  2.2624
30203SOL    HW291188   0.389   9.295   6.153 -1.1909  0.2629 -1.1591
30204SOL     OW91189   1.146   4.279   9.820 -0.6157  0.1750 -0.0568
30204SOL    HW191190   1.119   4.370   9.805 -0.3337  0.1580 -0.7233
30204SOL    HW291191   1.102   4.229   9.751  0.3788  0.0215 -0.5994
30205SOL     OW91192   2.836   8.678   2.216  0.0345 -0.2809 -0.1054
30205SOL    HW191193   2.911   8.734   2.193  0.4049 -0.6880  0.1023
30205SOL    HW291194   2.788   8.668   2.133  0.8217 -0.9206 -0.4998
30206SOL     OW91195   9.051   7.555   7.083 -0.1178 -0.4653  0.1389
30206SOL    HW191196   9.064   7.521   6.994  0.9627  0.8073 -0.2268
30206SOL    HW291197   8.990   7.494   7.124  0.1278 -1.6216 -1.1614
30207SOL     OW91198   1.229   1.429   4.599  0.1949 -0.0160 -0.3290
30207SOL    HW191199   1.311   1.396   4.636 -0.5218 -1.4417  0.0465
30207SOL    HW291200   1.218   1.515   4.640  1.5945  0.3041 -0.5456
30208SOL     OW91201   4.387   0.241   3.394  0.0916 -0.2948  0.3154
30208SOL    HW191202   4.403   0.147   3.399 -0.2934 -0.3407  0.6957
30208SOL    HW291203   4.455   0.281   3.449 -0.2581 -0.4031  0.8271
30209SOL     OW91204   2.953   1.323   8.744 -0.2326  0.3172  0.0190
30209SOL    HW191205   2.924   1.398   8.693  0.2990  1.2889  1.0931
30209SOL    HW291206   2.991   1.361   8.824  1.9049 -0.9578 -0.2940
30210SOL     OW91207   1.276   8.154   2.999 -0.7730 -0.0794  0.3223
30210SOL    HW191208   1.300   8.211   3.072 -3.0715  0.1059  1.0236
30210SOL    HW291209   1.332   8.183   2.926  0.6497  0.6059  1.6330
30211SOL     OW91210   1.719   2.034   1.632  0.2044  0.3217 -0.0375
30211SOL    HW191211   1.676   1.950   1.647 -1.0224  1.0830  0.9290
30211SOL    HW291212   1.780   2.044   1.705  2.1975 -0.8011 -1.4584
30212SOL     OW91213   2.608   1.973   4.879  0.0094 -0.1835 -0.4220
30212SOL    HW191214   2.547   2.020   4.936  0.0608  0.9571 -1.2802
30212SOL    HW291215   2.647   1.906   4.935 -0.5469  0.3789  0.6579
30213SOL     OW91216   4.607   5.472   8.951  0.2644 -0.1630  0.4630
30213SOL    HW191217   4.650   5.413   8.889  1.1118  1.6019 -0.6937
30213SOL    HW291218   4.516   5.442   8.954  0.5387 -1.1456 -0.5458
30214SOL     OW91219   8.558   8.377   3.624  0.0682 -0.1625 -0.1118
30214SOL    HW191220   8.515   8.380   3.538 -1.5070 -0.5681  0.6220
30214SOL    HW291221   8.517   8.303   3.668  0.1346  0.6466  1.3605
30215SOL     OW91222   8.504   2.079   1.236 -0.5954  0.0770 -0.3999
30215SOL    HW191223   8.526   1.986   1.239 -2.3438 -0.3362  1.0889
30215SOL    HW291224   8.532   2.114   1.321  0.1213  0.9507 -0.9731
30216SOL     OW91225   6.896   3.791   7.664  0.2860 -0.5720 -0.1138
30216SOL    HW191226   6.874   3.701   7.640 -0.6620  0.3706 -3.1631
30216SOL    HW291227   6.812   3.837   7.663  0.9260  0.6385  0.0215
30217SOL     OW91228   8.469   3.961   6.463  0.5790  0.6165  0.2659
30217SOL    HW191229   8.442   3.907   6.537  1.6631  0.1471  0.3467
30217SOL    HW291230   8.456   4.051   6.493 -1.3277  0.4396  0.0957
30218SOL     OW91231   1.872   5.820   2.912 -0.2258 -0.2533  0.0624
30218SOL    HW191232   1.962   5.812   2.946  0.2872 -3.1951 -1.6411
30218SOL    HW291233   1.817   5.790   2.984  0.3256 -0.3427  0.4559
30219SOL     OW91234   2.367   8.722   0.201 -0.1003  0.4822  0.5634
30219SOL    HW191235   2.423   8.797   0.217 -0.9033  1.1065  0.4791
30219SOL    HW291236   2.317   8.745   0.123 -1.8766  0.7858  1.7318
30220SOL     OW91237   4.395   5.790   8.031 -0.0331  0.2919  0.3565
30220SOL    HW191238   4.367   5.714   8.083  0.0037  0.0204 -0.0194
30220SOL    HW291239   4.333   5.793   7.958  0.1486  0.4409  0.2067
30221SOL     OW91240   1.502   0.500   9.672  0.2528  0.5933 -0.0345
30221SOL    HW191241   1.465   0.467   9.754 -0.5689  1.5533 -0.0100
30221SOL    HW291242   1.596   0.501   9.687  0.3071 -1.4389  0.0662
30222SOL     OW91243   7.442   9.912   4.961  0.3554  0.7621  0.5413
30222SOL    HW191244   7.494   9.834   4.982  0.3387  0.6014  0.0154
30222SOL    HW291245   7.352   9.887   4.982  0.6801  1.8873  3.8888
30223SOL     OW91246   2.278   7.440   5.404 -0.1573  0.2882 -0.1440
30223SOL    HW191247   2.266   7.529   5.438 -1.5333  0.3172 -0.6425
30223SOL    HW291248   2.252   7.446   5.312 -0.1352 -0.6093 -0.2133
30224SOL     OW91249   7.523   4.581   3.818 -0.1072  0.1867 -0.6347
30224SOL    HW191250   7.550   4.649   3.755 -1.1991  0.0721 -1.2566
30224SOL    HW291251   7.469   4.627   3.882  3.0977  0.8553  1.8700
30225SOL     OW91252   2.364   0.682   9.168  0.1524 -0.0044 -0.1521
30225SOL    HW191253   2.286   0.635   9.195 -1.0408  1.5517 -0.7058
30225SOL    HW291254   2.432   0.653   9.228 -1.5607  0.7993  2.3458
30226SOL     OW91255   8.096   3.518   8.549 -0.0079 -0.2844  0.7075
30226SOL    HW191256   8.181   3.481   8.573 -0.3517 -1.7839 -0.2532
30226SOL    HW291257   8.110   3.560   8.464  0.4820  2.3417  1.9699
30227SOL     OW91258   4.007   3.287   0.282  0.5836 -0.4461  0.0514
30227SOL    HW191259   4.080   3.241   0.322  0.8951  1.0660  1.3085
30227SOL    HW291260   4.044   3.370   0.250 -0.9317  1.5594  3.0189
30228SOL     OW91261   9.100   1.023   2.495  0.1905 -0.3252  0.4370
30228SOL    HW191262   9.097   0.983   2.582 -0.1037  0.1840  0.6652
30228SOL    HW291263   9.072   0.953   2.435 -2.5852  0.1676  1.0605
30229SOL     OW91264   4.039   5.860   2.162 -0.3431 -0.2573  1.1473
30229SOL    HW191265   4.051   5.773   2.125  0.4488  0.3937 -0.2191
30229SOL    HW291266   3.954   5.890   2.128  0.3672  0.3259 -0.1944
30230SOL     OW91267   8.546   9.072   5.680  0.0887  0.6101 -0.2256
30230SOL    HW191268   8.601   9.141   5.716 -1.1055  0.7243  1.4617
30230SOL    HW291269   8.543   9.005   5.749  0.2543 -0.6175 -1.3502
30231SOL     OW91270   9.921   2.096   7.011 -0.0622 -0.4422  0.5623
30231SOL    HW191271   9.895   2.139   6.929 -0.5302  1.4662  1.6644
30231SOL    HW291272   9.844   2.045   7.036 -0.5742  0.3789  0.7013
30232SOL     OW91273   1.346   8.136   8.514  0.0702 -0.6086 -0.1173
30232SOL    HW191274   1.265   8.121   8.466  0.3857 -0.8464 -0.5741
30232SOL    HW291275   1.326   8.210   8.571  0.2530  0.9046 -1.9291
30233SOL     OW91276   8.100   3.877   1.970 -0.5652 -0.4646 -0.3394
30233SOL    HW191277   8.190   3.845   1.967  0.0128  0.9499  0.7060
30233SOL    HW291278   8.074   3.885   1.879  0.3810 -0.8620 -0.6551
30234SOL     OW91279   9.715   4.882   0.307 -0.4291  0.4354  0.3206
30234SOL    HW191280   9.692   4.974   0.293  0.1792  0.4629 -0.6263
30234SOL    HW291281   9.661   4.834   0.244  0.2946  0.2840 -0.1983
30235SOL     OW91282   5.803   1.111   7.772 -0.1399 -0.1758  0.0438
30235SOL    HW191283   5.765   1.049   7.710  0.2543 -0.8160  0.4256
30235SOL    HW291284   5.752   1.191   7.761 -0.9601 -0.7120 -0.1284
30236SOL     OW91285   1.805   2.231   1.088  0.2453 -0.6682 -0.3568
30236SOL    HW191286   1.882   2.282   1.112  1.2758 -2.2826 -0.0476
30236SOL    HW291287   1.790   2.173   1.163 -0.7893 -0.9370 -0.7489
30237SOL     OW91288   4.781   8.122   8.672 -0.1671 -0.2929  0.2649
30237SOL    HW191289   4.802   8.200   8.724 -1.0167 -1.6523  2.8322
30237SOL    HW291290   4.707   8.148   8.618 -0.2473  0.7866  0.8710
30238SOL     OW91291   0.070   3.369   4.733 -0.1789 -0.2747  0.7674
30238SOL    HW191292   0.047   3.332   4.648  1.3871 -0.1774  0.2866
30238SOL    HW291293   0.094   3.460   4.714 -0.2083 -0.1330  1.3817
30239SOL     OW91294   1.349   8.771   9.533 -0.3056  0.1359  0.1072
30239SOL    HW191295   1.306   8.686   9.525 -1.3992  0.3810  2.5664
30239SOL    HW291296   1.278   8.833   9.547  0.5701  1.2846 -0.3140
30240SOL     OW91297   3.000   6.606   2.337 -0.0518  0.6095  0.0198
30240SOL    HW191298   3.032   6.516   2.332 -0.4466  0.5014 -0.7505
30240SOL    HW291299   3.031   6.638   2.422 -0.4563 -0.4539  0.5880
30241SOL     OW91300   2.777   2.800   9.350  0.5904  0.5355 -0.1689
30241SOL    HW191301   2.801   2.807   9.443  2.5365 -0.0897 -0.5758
30241SOL    HW291302   2.752   2.708   9.339 -0.1343  0.7258 -0.1789
30242SOL     OW91303   0.555   3.175   2.961  0.0596 -0.0331  0.2699
30242SOL    HW191304   0.615   3.111   2.922 -0.2089 -0.4990  0.6151
30242SOL    HW291305   0.605   3.212   3.034 -0.5792 -1.5146  1.5184
30243SOL     OW91306   8.296   4.791   7.230  0.4560 -0.0272 -0.2405
30243SOL    HW191307   8.248   4.767   7.309 -0.1487 -0.6618 -0.7888
30243SOL    HW291308   8.307   4.709   7.183  1.7690  0.1628 -0.3121
30244SOL     OW91309   4.573   2.922   3.413  0.2566  0.2414  0.9074
30244SOL    HW191310   4.593   3.002   3.462  0.4105  0.4045  0.5893
30244SOL    HW291311   4.569   2.952   3.322  0.1067 -0.0786  0.8102
30245SOL     OW91312   1.268   9.482   4.736 -0.6538  0.6650  0.6901
30245SOL    HW191313   1.309   9.486   4.822  2.0265  1.6088 -0.5436
30245SOL    HW291314   1.182   9.523   4.748 -0.0075  1.5147  2.7333
30246SOL     OW91315   6.656   4.394   8.935  0.3726  0.3407  0.2437
30246SOL    HW191316   6.641   4.345   8.855 -1.2092 -0.8047  1.1748
30246SOL    HW291317   6.750   4.411   8.936  0.3455  1.0208 -2.1635
30247SOL     OW91318   9.343   6.749   8.965 -0.4612 -0.1353  0.2532
30247SOL    HW191319   9.367   6.770   8.875 -1.7063 -2.0342 -0.5728
30247SOL    HW291320   9.335   6.654   8.966 -0.3720 -0.1557  2.4080
30248SOL     OW91321   2.887   4.405   6.759 -0.5035 -0.2206  0.5343
30248SOL    HW191322   2.975   4.442   6.764  0.3099 -1.9778 -0.1021
30248SOL    HW291323   2.831   4.479   6.735  0.8745  0.8139  0.4190
30249SOL     OW91324   4.517   9.146   8.648  0.1384  0.7734 -0.7081
30249SOL    HW191325   4.478   9.193   8.722 -0.5182 -0.1544 -0.4420
30249SOL    HW291326   4.562   9.072   8.688  1.9384  1.6268 -1.0452
30250SOL     OW91327   3.962   8.440   2.378 -0.1005  0.4962  0.4707
30250SOL    HW191328   3.906   8.406   2.309  1.1824  0.8867 -0.8111
30250SOL    HW291329   3.902   8.488   2.436 -0.7634  4.4301 -2.9708
30251SOL     OW91330   0.655   9.302   4.413 -0.4607 -0.2968  0.8444
30251SOL    HW191331   0.589   9.363   4.379  0.5041 -0.3185 -1.2179
30251SOL    HW291332   0.604   9.228   4.446 -1.5150 -0.3151 -0.6964
30252SOL     OW91333   7.965   7.203   8.975 -0.4506 -0.0703 -0.1472
30252SOL    HW191334   7.995   7.279   8.926 -2.8244  0.6641 -0.5830
30252SOL    HW291335   8.011   7.129   8.935  1.0629  0.9830 -0.4359
30253SOL     OW91336   9.556   5.354   4.847 -0.1696  0.3525  0.6187
30253SOL    HW191337   9.532   5.266   4.818 -1.0149 -0.1155  2.5186
30253SOL    HW291338   9.599   5.340   4.931 -0.8373  1.7734  1.2329
30254SOL     OW91339   9.021   0.799   3.179 -0.2217  0.0424  0.2001
30254SOL    HW191340   9.022   0.709   3.210  0.4940 -0.3908 -1.0176
30254SOL    HW291341   9.082   0.800   3.105 -0.2820  1.5050  0.1391
30255SOL     OW91342   3.079   0.101   4.230 -0.8010 -0.8997  0.0395
30255SOL    HW191343   3.059   0.192   4.252 -0.2509 -0.8248  0.2461
30255SOL    HW291344   3.011   0.076   4.169 -1.3462 -0.5571  0.4958
30256SOL     OW91345   0.388   5.644   6.497  0.2586 -0.0741  0.2593
30256SOL    HW191346   0.437   5.592   6.433  0.7501  0.8208 -0.1199
30256SOL    HW291347   0.444   5.721   6.512 -0.0577 -0.0584  1.4346
30257SOL     OW91348   7.395   0.152   7.426 -0.7813  0.1662 -0.1116
30257SOL    HW191349   7.417   0.233   7.472  0.7532 -0.6124  0.6049
30257SOL    HW291350   7.477   0.126   7.385 -1.8075  0.1539 -2.2754
30258SOL     OW91351   8.943   8.121   9.257  0.2812 -0.4878 -0.5629
30258SOL    HW191352   9.022   8.118   9.310 -0.7336 -0.9071  0.9846
30258SOL    HW291353   8.965   8.069   9.179  1.6038 -0.3653 -0.2950
30259SOL     OW91354   5.723   4.302   3.857 -0.2296 -0.0033  0.2448
30259SOL    HW191355   5.630   4.292   3.835 -0.5308  0.5226  1.2325
30259SOL    HW291356   5.731   4.392   3.887  1.0185  0.5976 -1.6903
30260SOL     OW91357   3.886   6.137   9.085  0.1316 -0.6387 -0.0803
30260SOL    HW191358   3.818   6.070   9.093 -1.4811  0.5032 -2.9252
30260SOL    HW291359   3.960   6.091   9.045  0.3987 -1.4421  1.2462
30261SOL     OW91360   3.486   8.632   3.336 -0.4599  0.3155  0.1795
30261SOL    HW191361   3.523   8.660   3.420 -1.3408  0.1039  0.6629
30261SOL    HW291362   3.500   8.707   3.277 -1.1018  1.0458  0.9230
30262SOL     OW91363   9.439   4.381   5.545 -0.6070 -0.3507  0.6592
30262SOL    HW191364   9.393   4.443   5.488  0.4918 -0.7423 -0.7118
30262SOL    HW291365   9.372   4.347   5.604 -1.5668  0.8608  0.2993
30263SOL     OW91366   5.063   1.314   2.750 -0.2250  0.3403  0.0916
30263SOL    HW191367   5.042   1.229   2.789  1.7217  0.4399  1.5189
30263SOL    HW291368   5.103   1.292   2.666 -1.9015 -0.0117 -0.6508
30264SOL     OW91369   2.162   2.680   0.084 -0.0848  0.3606 -0.0462
30264SOL    HW191370   2.249   2.684   0.045 -1.0859  0.7246 -2.4819
30264SOL    HW291371   2.121   2.602   0.044 -0.5210 -0.5244  1.9725
30265SOL     OW91372   7.865   0.788   9.331 -0.0131  0.2741 -0.2818
30265SOL    HW191373   7.843   0.831   9.413 -0.3268  2.5578 -1.4824
30265SOL    HW291374   7.795   0.814   9.271  2.3041  2.1276 -2.3686
30266SOL     OW91375   6.190   5.805   9.405  0.9097 -0.2981 -0.4165
30266SOL    HW191376   6.162   5.895   9.386  1.2367  0.1655  1.1394
30266SOL    HW291377   6.272   5.794   9.356  1.4156  0.6238  0.2041
30267SOL     OW91378   9.683   0.511   7.491  0.2923 -0.6655 -0.2232
30267SOL    HW191379   9.742   0.542   7.423  1.1957  0.0780  0.8492
30267SOL    HW291380   9.723   0.542   7.573 -1.8126  0.2654  0.5217
30268SOL     OW91381   3.692   9.543   4.419 -0.2038 -0.4520 -0.2496
30268SOL    HW191382   3.758   9.611   4.402 -0.1085 -0.4933 -0.0476
30268SOL    HW291383   3.742   9.462   4.422  0.1161 -0.2327  2.3361
30269SOL     OW91384   1.300   1.733   8.301 -0.1037  1.0646  0.2931
30269SOL    HW191385   1.314   1.673   8.375 -1.2384  0.3329 -0.0515
30269SOL    HW291386   1.298   1.820   8.341  1.1652  0.8556  0.8606
30270SOL     OW91387   7.513   9.925   1.116 -0.0656 -0.4363  0.3838
30270SOL    HW191388   7.609   9.921   1.121 -0.0709  0.1685  0.9289
30270SOL    HW291389   7.487   9.833   1.103  0.6018 -0.5627 -0.1727
30271SOL     OW91390   2.166   3.651   7.666 -0.7731  1.0381  0.1737
30271SOL    HW191391   2.186   3.713   7.736 -0.6296  1.1243  0.0552
30271SOL    HW291392   2.238   3.588   7.668 -2.1587 -0.6357  1.9901
30272SOL     OW91393   1.974   2.339   6.296 -0.3442 -0.3229  0.0228
30272SOL    HW191394   2.043   2.401   6.274 -0.7208  0.2086  0.3105
30272SOL    HW291395   1.963   2.286   6.217 -0.3621  0.3104 -0.4052
30273SOL     OW91396   4.607   7.339   2.001 -0.5231 -0.8403 -0.1049
30273SOL    HW191397   4.620   7.345   1.907  1.0379  0.1872  0.1454
30273SOL    HW291398   4.516   7.310   2.011 -0.5029 -1.6623 -1.9117
30274SOL     OW91399   7.979   2.136   0.569 -0.0668 -0.1176 -0.0631
30274SOL    HW191400   7.989   2.217   0.519 -2.6357 -0.4215 -1.2478
30274SOL    HW291401   7.887   2.137   0.597  0.3681 -1.7047  1.5935
30275SOL     OW91402   1.637   1.614   6.188  0.1790  0.3620 -0.1035
30275SOL    HW191403   1.672   1.577   6.107 -1.4958  0.3008 -0.8488
30275SOL    HW291404   1.695   1.582   6.256  1.8068  0.6440 -1.2957
30276SOL     OW91405   6.748   6.966   3.669 -0.2667  0.1077  0.0386
30276SOL    HW191406   6.674   6.954   3.728 -0.2766 -1.1739 -0.2051
30276SOL    HW291407   6.801   7.034   3.711 -2.1397  1.8783 -0.3698
30277SOL     OW91408   3.752   1.031   5.332  0.3430  1.0483 -0.2520
30277SOL    HW191409   3.693   1.105   5.320  0.8983  1.5113 -0.1699
30277SOL    HW291410   3.827   1.051   5.276 -0.4304 -0.4931 -1.9242
30278SOL     OW91411   4.910   0.302   0.382 -0.3318  0.6024  0.2548
30278SOL    HW191412   4.816   0.284   0.391 -0.1995  0.6231  2.0079
30278SOL    HW291413   4.915   0.397   0.379 -0.2896  0.6919  1.9139
30279SOL     OW91414   4.137   8.396   0.598 -0.3216  0.9062 -0.7474
30279SOL    HW191415   4.221   8.374   0.639 -1.1045 -3.1221 -0.9180
30279SOL    HW291416   4.072   8.366   0.662 -1.5811  0.6209 -2.1296
30280SOL     OW91417   7.551   6.718   8.860 -0.5725  0.2198 -0.9714
30280SOL    HW191418   7.618   6.786   8.855  2.1203 -2.2506 -0.8889
30280SOL    HW291419   7.559   6.683   8.949 -0.0825 -1.8097 -1.7459
30281SOL     OW91420   1.421   3.527   0.731  0.0067 -0.0888  0.0524
30281SOL    HW191421   1.391   3.453   0.785 -0.4108 -1.9249 -2.5313
30281SOL    HW291422   1.516   3.519   0.730 -0.0742 -2.8678 -2.9245
30282SOL     OW91423   9.575   2.133   6.050  0.4273 -0.3375 -0.2667
30282SOL    HW191424   9.623   2.109   6.129  2.5337 -2.0293 -1.9189
30282SOL    HW291425   9.484   2.142   6.078  1.0319 -1.3440  2.2385
30283SOL     OW91426   1.025   4.667   7.253 -0.2668  0.2376  0.1665
30283SOL    HW191427   1.010   4.760   7.236 -0.7663  0.2727  0.7657
30283SOL    HW291428   1.114   4.651   7.223  0.1594  1.1237  0.9037
30284SOL     OW91429   2.061   4.488   5.543  0.2581 -0.8376  0.0023
30284SOL    HW191430   1.975   4.500   5.585  0.1982 -0.2292 -0.2827
30284SOL    HW291431   2.058   4.399   5.508 -0.2810 -0.8011 -0.0537
30285SOL     OW91432   7.390   6.905   1.271 -0.1822 -0.4767  0.4162
30285SOL    HW191433   7.419   6.945   1.189  0.8617 -2.9016 -0.5151
30285SOL    HW291434   7.303   6.871   1.252  0.0908 -1.1083  0.2466
30286SOL     OW91435   4.032   3.814   1.113  0.3507 -0.3231  0.1492
30286SOL    HW191436   3.999   3.724   1.124 -2.5833  0.7491  0.8724
30286SOL    HW291437   4.015   3.834   1.021 -0.4558 -0.0168  0.3534
30287SOL     OW91438   9.455   3.144   7.811 -0.2432  0.2303  0.7420
30287SOL    HW191439   9.410   3.225   7.836 -0.0795  1.1993 -1.7781
30287SOL    HW291440   9.383   3.083   7.792 -0.5663  1.1935 -1.4720
30288SOL     OW91441   9.433   2.493   4.969  0.7878 -0.1448 -0.5742
30288SOL    HW191442   9.466   2.468   4.882  0.1692 -1.8216 -0.3720
30288SOL    HW291443   9.400   2.582   4.958  1.0326 -0.2074 -1.9804
30289SOL     OW91444   3.680   2.443   2.620 -0.1490 -0.8038  0.3198
30289SOL    HW191445   3.732   2.479   2.549  1.3164 -0.4989  1.4929
30289SOL    HW291446   3.626   2.376   2.579  1.5023 -1.4584 -0.8932
30290SOL     OW91447   2.943   6.685   1.300 -0.0876  0.3224  0.6291
30290SOL    HW191448   2.989   6.676   1.383  0.4285 -1.4808  0.1935
30290SOL    HW291449   2.856   6.649   1.316 -0.6622  1.7344  0.8653
30291SOL     OW91450   3.899   9.557   8.205 -0.0739 -0.1260 -0.0027
30291SOL    HW191451   3.847   9.626   8.245 -1.4301 -0.9519 -0.2671
30291SOL    HW291452   3.953   9.523   8.277 -1.3592 -0.5697  0.7977
30292SOL     OW91453   3.518   8.202   6.938  0.0919 -0.0115  0.6240
30292SOL    HW191454   3.513   8.124   6.993  1.7844 -0.3146  0.4033
30292SOL    HW291455   3.611   8.224   6.936 -0.2283  1.3806 -0.2076
30293SOL     OW91456   0.764   5.207   1.763  0.0883  0.0588  0.2441
30293SOL    HW191457   0.733   5.273   1.702  1.2712  0.1643 -0.2713
30293SOL    HW291458   0.713   5.222   1.843 -0.8753  0.4613 -0.4331
30294SOL     OW91459   4.897   2.543   3.376  0.3299  1.1912  0.2968
30294SOL    HW191460   4.948   2.462   3.376 -0.0216  0.9402 -1.0852
30294SOL    HW291461   4.933   2.595   3.448 -0.2301 -0.6811  2.0087
30295SOL     OW91462   4.288   2.234   4.025  0.8439 -0.2829  1.0352
30295SOL    HW191463   4.381   2.235   4.048  0.7479 -1.1836  1.5232
30295SOL    HW291464   4.269   2.141   4.008  0.1285 -0.0536  0.5382
30296SOL     OW91465   3.792   8.529   4.298  0.2711  0.3826  0.6151
30296SOL    HW191466   3.722   8.469   4.324  0.6472 -0.2549  0.1822
30296SOL    HW291467   3.852   8.530   4.373  0.1023  0.4601  0.7479
30297SOL     OW91468   5.092   9.594   5.736 -0.0323  0.2851 -0.9262
30297SOL    HW191469   5.093   9.629   5.647  0.7147  0.9025 -0.6830
30297SOL    HW291470   5.146   9.655   5.787 -0.1159 -0.2830 -0.1358
30298SOL     OW91471   3.838   5.579   7.513 -0.3958  0.3390 -0.0291
30298SOL    HW191472   3.752   5.554   7.548  0.9537  0.6085  3.9401
30298SOL    HW291473   3.863   5.655   7.564  1.7157  1.0904 -2.0229
30299SOL     OW91474   0.304   7.319   2.429 -0.1327 -0.0628 -1.0878
30299SOL    HW191475   0.369   7.351   2.367  0.3153 -0.8503 -1.0451
30299SOL    HW291476   0.330   7.228   2.446  0.5869  0.5039  1.2989
30300SOL     OW91477   8.348   7.612   8.586  0.0208 -0.1159 -0.0241
30300SOL    HW191478   8.323   7.520   8.594 -0.7149  0.0667 -0.1663
30300SOL    HW291479   8.314   7.653   8.665  0.3901  0.0252  0.0605
30301SOL     OW91480   6.254   1.420   7.484  0.1273  0.7836  0.5369
30301SOL    HW191481   6.158   1.423   7.493  0.2080  2.1107  1.2398
30301SOL    HW291482   6.272   1.478   7.410  0.3776  0.1894  0.1206
30302SOL     OW91483   7.682   8.849   5.254  0.0268  0.7038 -0.4007
30302SOL    HW191484   7.636   8.871   5.173  1.1410 -1.2061 -1.6138
30302SOL    HW291485   7.769   8.821   5.226  0.2247 -0.6341  1.3956
30303SOL     OW91486   9.593   0.181   2.492 -0.0920  0.5569  0.0523
30303SOL    HW191487   9.535   0.183   2.568  0.1153  2.5810  0.2175
30303SOL    HW291488   9.538   0.209   2.419  0.4079  1.4403  0.0080
30304SOL     OW91489   3.865   2.641   2.177 -0.2777 -0.7051  0.0177
30304SOL    HW191490   3.847   2.729   2.211  1.4583 -0.4230  0.3025
30304SOL    HW291491   3.834   2.644   2.087 -0.1049  0.2444 -0.0234
30305SOL     OW91492   9.501   8.485   7.537 -0.3401  0.2276 -0.4875
30305SOL    HW191493   9.563   8.494   7.610 -1.0412  0.1632  0.1332
30305SOL    HW291494   9.429   8.433   7.574 -1.7806  2.1167 -0.5184
30306SOL     OW91495   9.253   6.188   7.212  0.3320 -0.0784  0.5330
30306SOL    HW191496   9.312   6.113   7.212  1.2924  0.6401 -0.7150
30306SOL    HW291497   9.237   6.207   7.304  1.3082 -0.8697  0.8679
30307SOL     OW91498   3.544   1.030   7.209 -0.0339 -0.0088 -0.0584
30307SOL    HW191499   3.473   1.015   7.146 -0.3301  0.5266  0.1412
30307SOL    HW291500   3.614   0.971   7.182 -0.5695 -0.5651 -0.2470
30308SOL     OW91501   8.134   5.594   7.342  0.1845 -0.1869  0.0670
30308SOL    HW191502   8.164   5.507   7.366 -1.1385 -0.7419 -0.1583
30308SOL    HW291503   8.041   5.582   7.322  0.2130  1.0801 -0.9822
30309SOL     OW91504   3.588   6.261   3.924 -0.5579 -0.5838 -0.0537
30309SOL    HW191505   3.533   6.331   3.889  1.1721  0.6402 -0.4643
30309SOL    HW291506   3.663   6.258   3.865 -0.1100 -2.1303  0.5431
30310SOL     OW91507   1.089   1.888   0.129 -0.3732  0.2250  0.3259
30310SOL    HW191508   1.165   1.919   0.079 -0.1088 -1.3710 -0.3189
30310SOL    HW291509   1.127   1.840   0.203 -0.7362 -0.7709 -0.1196
30311SOL     OW91510   8.733   5.334   4.157  0.0939  0.2878 -0.4245
30311SOL    HW191511   8.653   5.362   4.201  0.8915  1.0504  0.5563
30311SOL    HW291512   8.752   5.248   4.194 -0.2402  0.1152 -0.6432
30312SOL     OW91513   4.826   1.038   4.583  0.1560 -0.4450 -0.5597
30312SOL    HW191514   4.831   1.133   4.587 -0.0502 -0.4356 -0.5187
30312SOL    HW291515   4.749   1.020   4.529 -1.3603 -0.5771  1.5037
30313SOL     OW91516   8.235   0.815   5.394  0.2862 -0.5554 -0.3266
30313SOL    HW191517   8.188   0.732   5.393  0.6606 -0.8384 -3.1488
30313SOL    HW291518   8.167   0.881   5.376  0.5797 -0.7697 -2.4812
30314SOL     OW91519   7.086   7.522   5.155  0.4134 -0.1404  0.2366
30314SOL    HW191520   7.099   7.433   5.186  1.9808 -0.2835 -0.6975
30314SOL    HW291521   7.012   7.516   5.094  0.4904 -0.8084  0.2049
30315SOL     OW91522   0.035   0.190   5.971 -0.4136  0.0588 -0.4356
30315SOL    HW191523   0.083   0.148   6.042  0.1091  0.6735 -0.4165
30315SOL    HW291524   0.000   0.117   5.919  0.9812 -0.4159 -0.7462
30316SOL     OW91525   2.158   9.873   7.183 -0.3506 -0.1280 -0.2375
30316SOL    HW191526   2.185   9.816   7.111  0.4248 -1.5617  1.1335
30316SOL    HW291527   2.063   9.858   7.191 -0.1802 -1.1513  0.0201
30317SOL     OW91528   3.723   6.103   3.603  0.2002 -0.1104 -0.1387
30317SOL    HW191529   3.764   6.174   3.652  1.5133 -1.9248  1.5026
30317SOL    HW291530   3.779   6.092   3.526  0.9329 -0.4458  0.4396
30318SOL     OW91531   7.103   3.878   8.264  0.3957  0.5313 -0.6178
30318SOL    HW191532   7.136   3.789   8.254  1.9664  1.2495 -2.6032
30318SOL    HW291533   7.160   3.918   8.330 -1.5214 -0.3973  1.7386
30319SOL     OW91534   8.859   2.142   2.757 -0.3720 -0.2344  0.0578
30319SOL    HW191535   8.830   2.154   2.847 -0.3272  0.1540  0.0205
30319SOL    HW291536   8.781   2.116   2.709 -0.4806 -0.0422  0.1292
30320SOL     OW91537   6.810   4.473   1.635 -1.1997  0.0751 -0.4158
30320SOL    HW191538   6.792   4.379   1.625  0.9996 -0.3423 -0.9836
30320SOL    HW291539   6.854   4.480   1.720 -0.0071  0.3268 -1.0304
30321SOL     OW91540   3.280   7.112   0.462  0.6388  0.6935  0.6584
30321SOL    HW191541   3.301   7.090   0.552  2.2128  0.8958  0.3713
30321SOL    HW291542   3.218   7.184   0.469 -0.1682 -0.0607  1.5635
30322SOL     OW91543   4.432   7.814   7.965 -0.4070  0.1480 -0.3002
30322SOL    HW191544   4.408   7.725   7.939  0.1293  0.0609 -0.5033
30322SOL    HW291545   4.353   7.866   7.949 -0.5934 -0.2154 -0.5559
30323SOL     OW91546   3.665   2.794   2.948 -0.1513  0.3153  0.0501
30323SOL    HW191547   3.689   2.823   3.036 -0.6995 -0.3797  0.4501
30323SOL    HW291548   3.748   2.785   2.902  0.2446 -0.3410  0.8463
30324SOL     OW91549   5.240   2.569   3.335  0.3963  0.1637 -0.2654
30324SOL    HW191550   5.216   2.562   3.243 -0.3172  1.1492 -0.1720
30324SOL    HW291551   5.231   2.663   3.355 -2.2511 -0.3595  1.5208
30325SOL     OW91552   0.111   5.134   6.559 -0.2172  0.1592 -0.5062
30325SOL    HW191553   0.203   5.156   6.574 -0.5954  1.6215 -0.1349
30325SOL    HW291554   0.066   5.161   6.639 -0.9685 -0.6260 -0.6451
30326SOL     OW91555   2.575   2.041   5.965  0.0089  0.0448 -0.1398
30326SOL    HW191556   2.537   1.960   5.998 -0.3622 -0.0609 -0.8108
30326SOL    HW291557   2.521   2.110   6.003 -0.8378 -0.1004 -1.0295
30327SOL     OW91558   6.921   8.698   9.895  0.0135  0.2205  0.0517
30327SOL    HW191559   6.863   8.675   9.968 -0.7785 -1.1483 -0.9614
30327SOL    HW291560   6.983   8.626   9.890  0.3499  0.5355 -0.3586
30328SOL     OW91561   1.096   5.432   7.818 -0.9521  0.2628 -0.5585
30328SOL    HW191562   1.045   5.352   7.805 -2.0930  0.5168  1.8623
30328SOL    HW291563   1.034   5.496   7.852  0.5936  1.1346  0.8029
30329SOL     OW91564   2.226   5.882   6.583 -0.5789  0.3348 -0.2471
30329SOL    HW191565   2.246   5.850   6.495 -0.3337 -0.7947  0.2046
30329SOL    HW291566   2.311   5.890   6.626 -0.6076  1.9180 -0.4358
30330SOL     OW91567   7.580   9.674   3.656 -0.2585  0.0236  0.4407
30330SOL    HW191568   7.577   9.734   3.582 -2.4997 -1.6937 -0.9775
30330SOL    HW291569   7.657   9.619   3.639 -0.0928  0.3869  0.0092
30331SOL     OW91570   8.190   1.458   6.418 -0.8432  0.4760  0.5727
30331SOL    HW191571   8.280   1.490   6.411  0.0922 -2.2328 -0.9036
30331SOL    HW291572   8.189   1.406   6.498 -1.2272  0.7474  0.7525
30332SOL     OW91573   3.208   7.016   0.212  0.2809 -0.5559 -0.4359
30332SOL    HW191574   3.222   6.922   0.201 -4.5970 -1.6695  0.3884
30332SOL    HW291575   3.236   7.034   0.302  0.9099 -1.2565 -0.4817
30333SOL     OW91576   5.103   3.218   6.814  0.4945  0.8407 -0.4337
30333SOL    HW191577   5.076   3.184   6.729 -0.1239  1.0782 -0.3439
30333SOL    HW291578   5.032   3.277   6.839  0.2341  0.1284  0.6186
30334SOL     OW91579   0.405   3.891   4.215  0.1202  0.1050  0.2013
30334SOL    HW191580   0.480   3.908   4.159 -0.5559  0.3858 -0.6456
30334SOL    HW291581   0.377   3.802   4.192 -0.4890  0.4245 -0.3038
30335SOL     OW91582   1.700   8.209   7.302 -0.0015 -0.1403  0.0166
30335SOL    HW191583   1.708   8.164   7.218  1.1653 -0.6985  0.4022
30335SOL    HW291584   1.606   8.213   7.319 -0.1788 -1.6184 -0.4785
30336SOL     OW91585   4.581   5.097   7.039 -0.1215 -0.7641  0.2342
30336SOL    HW191586   4.652   5.142   7.086  0.2531 -0.1367 -0.8789
30336SOL    HW291587   4.546   5.164   6.981 -0.3239 -1.6133 -0.6415
30337SOL     OW91588   0.199   7.634   2.209 -0.0068  0.1086  0.3468
30337SOL    HW191589   0.235   7.722   2.217 -0.2279  0.1126  1.3822
30337SOL    HW291590   0.274   7.579   2.185  0.3031  0.4295  0.5726
30338SOL     OW91591   9.110   2.787   8.661 -0.5476  0.1686 -0.1473
30338SOL    HW191592   9.133   2.720   8.726  1.1892 -0.0740 -0.9639
30338SOL    HW291593   9.054   2.848   8.709 -0.0831 -0.5118  1.3178
30339SOL     OW91594   2.373   6.622   7.042  0.2152 -0.0738  0.4917
30339SOL    HW191595   2.464   6.645   7.024  0.5413 -1.0533  0.8555
30339SOL    HW291596   2.331   6.622   6.956  0.8166 -0.6868  0.1902
30340SOL     OW91597   2.274   9.479   5.269  0.1216  0.0205  0.8099
30340SOL    HW191598   2.250   9.563   5.229  0.2438 -0.5116 -0.4155
30340SOL    HW291599   2.313   9.429   5.198  0.0572 -1.0792  1.5319
30341SOL     OW91600   0.384   9.126   5.466 -0.3367  0.1499  0.1917
30341SOL    HW191601   0.324   9.200   5.478  0.2574  0.5400  0.8402
30341SOL    HW291602   0.347   9.056   5.519  0.3628  0.7429  1.4955
30342SOL     OW91603   2.383   2.240   4.149 -0.2913 -0.4462 -0.1733
30342SOL    HW191604   2.363   2.320   4.101 -0.5425  0.1019  0.8262
30342SOL    HW291605   2.450   2.196   4.096  0.7810  1.0355 -0.0841
30343SOL     OW91606   4.520   8.627   4.325  0.7205  0.5694 -0.0669
30343SOL    HW191607   4.557   8.565   4.262 -0.8225 -0.4037 -0.0693
30343SOL    HW291608   4.550   8.713   4.295  0.3689  0.0869 -1.8824
30344SOL     OW91609   6.839   5.464   1.015  0.0020 -0.4057  0.6925
30344SOL    HW191610   6.791   5.542   0.988 -2.0539 -1.6156  0.6151
30344SOL    HW291611   6.899   5.495   1.083  0.3459  1.4730 -0.3950
30345SOL     OW91612   1.800   5.332   7.393 -0.3738 -0.1698  0.2771
30345SOL    HW191613   1.723   5.344   7.449 -0.9078  2.3724 -0.8341
30345SOL    HW291614   1.873   5.327   7.454 -1.1785  0.0001  1.2908
30346SOL     OW91615   1.420   9.055   1.728  0.2702  0.0394  0.0006
30346SOL    HW191616   1.341   9.026   1.682  1.0046 -1.6813 -0.2440
30346SOL    HW291617   1.440   8.984   1.788  1.7799  0.3306 -0.1313
30347SOL     OW91618   4.524   1.805   5.889  0.2643  0.2886  0.1493
30347SOL    HW191619   4.452   1.848   5.843 -0.4773 -0.2803  0.7453
30347SOL    HW291620   4.514   1.834   5.980  0.7225  0.1175  0.2538
30348SOL     OW91621   1.430   8.760   8.196  0.4526  0.3820 -0.2134
30348SOL    HW191622   1.442   8.667   8.215 -0.8481  0.0331 -0.9818
30348SOL    HW291623   1.389   8.795   8.275  0.9919  0.3234  0.0970
30349SOL     OW91624   7.794   3.665   2.655 -0.7428  0.1517 -0.3455
30349SOL    HW191625   7.727   3.603   2.684 -1.5001 -0.3631 -2.9339
30349SOL    HW291626   7.865   3.610   2.621  0.6017  0.7168  1.3790
30350SOL     OW91627   9.559   0.359   8.896  0.0436 -0.2207 -0.6859
30350SOL    HW191628   9.570   0.302   8.821 -0.1872 -1.5317  0.2434
30350SOL    HW291629   9.600   0.311   8.969  0.1254  0.9351  0.0616
30351SOL     OW91630   5.954   9.783   1.696 -0.1710  0.1353  0.4140
30351SOL    HW191631   5.947   9.810   1.605 -0.9120  1.1786  0.7600
30351SOL    HW291632   5.865   9.759   1.721 -0.2911  1.3291  1.2708
30352SOL     OW91633   2.370   7.811   6.182 -0.1641  0.4690 -0.0269
30352SOL    HW191634   2.289   7.772   6.150 -0.7381  1.0862  0.6383
30352SOL    HW291635   2.351   7.836   6.273  0.7605  0.6451  0.1311
30353SOL     OW91636   6.502   9.012   2.061  0.1273  0.0685  0.0307
30353SOL    HW191637   6.585   9.047   2.093 -0.3989  1.2823  0.1307
30353SOL    HW291638   6.451   8.995   2.140  0.1013 -0.2301 -0.0483
30354SOL     OW91639   5.585   1.703   6.868  0.1145  0.0070 -0.0520
30354SOL    HW191640   5.597   1.608   6.874  0.7839  0.0257 -0.8528
30354SOL    HW291641   5.653   1.739   6.925  0.1111  0.0086 -0.0485
30355SOL     OW91642   6.293   0.660   3.223 -0.0019 -0.1946 -0.0013
30355SOL    HW191643   6.363   0.701   3.273 -1.0922  0.7748  0.7942
30355SOL    HW291644   6.253   0.598   3.284  0.2802 -0.9046 -0.5211
30356SOL     OW91645   9.835   9.499   4.351 -0.4809  0.3024 -0.1052
30356SOL    HW191646   9.845   9.552   4.430 -0.2175  0.6763 -0.3812
30356SOL    HW291647   9.815   9.563   4.282 -3.1304 -0.2239  0.0736
30357SOL     OW91648   7.744   6.617   1.503 -0.1922  0.1691 -0.1574
30357SOL    HW191649   7.803   6.675   1.551  0.6593 -2.0671  1.7280
30357SOL    HW291650   7.796   6.583   1.431 -0.1739  0.5082 -0.3052
30358SOL     OW91651   3.258   4.566   4.541 -0.2786 -0.2986  0.1572
30358SOL    HW191652   3.208   4.631   4.591  0.1065  0.9590 -1.0312
30358SOL    HW291653   3.349   4.586   4.559 -0.0656  1.1470 -2.0967
30359SOL     OW91654   8.336   0.312   7.943  0.0142  0.7370  0.3705
30359SOL    HW191655   8.401   0.324   8.013  1.2003  0.2956 -0.6302
30359SOL    HW291656   8.364   0.372   7.874 -0.9269  0.8851  0.1095
30360SOL     OW91657   9.022   4.359   8.721  0.7735  0.7869 -0.0840
30360SOL    HW191658   8.998   4.424   8.787  0.0682 -0.1087  0.5676
30360SOL    HW291659   8.938   4.324   8.691  1.1726 -1.1957  0.9861
30361SOL     OW91660   5.058   7.549   3.948 -0.4126 -0.0673 -0.6689
30361SOL    HW191661   4.988   7.488   3.922 -0.6490  0.5788 -1.6103
30361SOL    HW291662   5.037   7.573   4.038 -0.1891 -1.5426 -0.1860
30362SOL     OW91663   9.012   8.958   2.246 -0.1873 -0.1919 -0.2456
30362SOL    HW191664   9.101   8.968   2.279  0.2079  2.7191 -1.8746
30362SOL    HW291665   9.021   8.902   2.169  0.0139 -0.9097  0.2889
30363SOL     OW91666   9.438   7.494   3.656  0.8052 -0.2187  0.2350
30363SOL    HW191667   9.475   7.572   3.616 -0.9450 -0.0474 -1.2046
30363SOL    HW291668   9.501   7.468   3.723  1.3454  2.5060  0.8744
30364SOL     OW91669   0.707   9.360   5.845  0.0020 -0.2547 -0.7773
30364SOL    HW191670   0.783   9.333   5.795  0.0614  0.1679 -0.9180
30364SOL    HW291671   0.741   9.378   5.933 -0.0805 -0.8698 -0.6142
30365SOL     OW91672   6.434   4.792   1.195  0.3563 -0.0256  0.1788
30365SOL    HW191673   6.463   4.876   1.230 -0.8792  0.9009 -0.8962
30365SOL    HW291674   6.394   4.814   1.110  2.2781 -2.0017 -1.3557
30366SOL     OW91675   1.533   3.806   8.157 -0.3570  0.2643  0.4883
30366SOL    HW191676   1.548   3.870   8.087  0.7922 -0.3479  0.1555
30366SOL    HW291677   1.573   3.845   8.235  1.9546 -0.7725 -0.1016
30367SOL     OW91678   7.030   7.339   5.713 -0.3027 -0.2615 -0.1727
30367SOL    HW191679   7.051   7.356   5.622  0.0883  0.5954  0.0678
30367SOL    HW291680   7.016   7.426   5.751 -0.5420 -0.6128  0.5632
30368SOL     OW91681   5.484   9.298   8.683 -0.2812 -0.5636  0.1128
30368SOL    HW191682   5.444   9.304   8.769 -2.0715 -0.9590 -0.6460
30368SOL    HW291683   5.481   9.387   8.648 -1.6210 -0.7807 -0.3884
30369SOL     OW91684   7.347   9.714   7.884  0.0405  0.6453  0.4768
30369SOL    HW191685   7.374   9.705   7.976 -0.1739  0.6346  0.5380
30369SOL    HW291686   7.275   9.652   7.874 -0.3179  1.0670  0.4496
30370SOL     OW91687   3.073   3.019   6.477  0.7782  0.0860  0.0357
30370SOL    HW191688   3.068   3.100   6.425  0.6945 -0.2020 -0.4069
30370SOL    HW291689   3.111   3.047   6.560  2.0476  0.3450 -0.6074
30371SOL     OW91690   1.058   6.462   4.346  0.3119 -0.5873 -0.1782
30371SOL    HW191691   0.992   6.487   4.410  0.3315 -0.4075 -0.2289
30371SOL    HW291692   1.119   6.536   4.343  0.4009 -0.6635 -0.2840
30372SOL     OW91693   9.658   3.271   8.614 -0.3269 -0.1100  0.6207
30372SOL    HW191694   9.626   3.193   8.659 -0.4008 -0.6105 -0.2953
30372SOL    HW291695   9.735   3.298   8.665  1.8802 -2.8391 -1.0144
30373SOL     OW91696   8.230   2.219   8.655 -0.0393  0.1813  0.0696
30373SOL    HW191697   8.304   2.165   8.626  0.0963  0.5251 -0.2396
30373SOL    HW291698   8.164   2.207   8.587 -0.3259 -0.2378  0.4187
30374SOL     OW91699   9.504   7.448   6.792 -0.2967  0.1836  0.5507
30374SOL    HW191700   9.594   7.477   6.781 -0.1026 -0.9390 -1.2803
30374SOL    HW291701   9.507   7.353   6.778 -1.4189 -0.2681  2.8858
30375SOL     OW91702   7.779   3.423   3.074  0.0598 -0.4855  0.5274
30375SOL    HW191703   7.834   3.345   3.087  1.1580  0.0018 -0.9513
30375SOL    HW291704   7.832   3.495   3.110 -1.1835 -0.4255  2.4163
30376SOL     OW91705  -0.026   5.987   2.390  0.2765  0.6083 -0.3266
30376SOL    HW191706   0.003   6.077   2.378  0.7284  0.9172  2.5447
30376SOL    HW291707   0.046   5.944   2.436 -0.6036 -0.8023 -0.1960
30377SOL     OW91708   6.481   0.780   1.136 -0.1841 -0.0840 -0.2367
30377SOL    HW191709   6.474   0.848   1.204 -0.8406  0.0608 -0.4388
30377SOL    HW291710   6.486   0.829   1.054 -1.8809 -0.2690 -0.4837
30378SOL     OW91711   2.864   0.296   5.837 -0.0125  0.1113 -0.2425
30378SOL    HW191712   2.885   0.274   5.928 -1.4315 -0.0607  0.0688
30378SOL    HW291713   2.800   0.366   5.843  0.3447  0.5273 -1.1333
30379SOL     OW91714   7.544   8.312   7.001 -0.6058  0.2165  0.1726
30379SOL    HW191715   7.531   8.218   6.987 -1.0628 -0.0576  2.1763
30379SOL    HW291716   7.515   8.327   7.090 -1.4644  2.4626 -0.4201
30380SOL     OW91717   3.456   2.482   3.934 -0.0879  0.1977 -0.1936
30380SOL    HW191718   3.471   2.572   3.962  1.3270 -0.5844  1.8327
30380SOL    HW291719   3.370   2.460   3.969  0.9901 -0.2493  2.4609
30381SOL     OW91720   3.400   3.986   8.569 -0.1237 -0.1058 -0.2251
30381SOL    HW191721   3.372   4.018   8.655  0.4751  0.5706 -0.2742
30381SOL    HW291722   3.422   4.065   8.520  1.9481 -0.5873 -0.1493
30382SOL     OW91723   3.096   6.487   3.608  0.4061  0.1380  0.2529
30382SOL    HW191724   3.156   6.553   3.644  0.7495  0.8848 -1.5621
30382SOL    HW291725   3.148   6.440   3.543 -0.1809 -1.1528  0.6939
30383SOL     OW91726   1.342   2.443   5.832 -0.3596  0.4588  0.3044
30383SOL    HW191727   1.413   2.464   5.771 -1.0916 -0.8827 -1.1102
30383SOL    HW291728   1.384   2.393   5.902  0.6078  2.5629  1.3294
30384SOL     OW91729   7.726   6.946   6.249  0.5197  0.0947  0.0816
30384SOL    HW191730   7.747   6.993   6.329  0.9281 -0.1488  0.1210
30384SOL    HW291731   7.792   6.975   6.185  0.2316  0.2466 -0.1508
30385SOL     OW91732   7.610   0.349   9.700  0.8240  0.3197 -0.0873
30385SOL    HW191733   7.570   0.330   9.615 -3.4762  2.3010  1.1812
30385SOL    HW291734   7.603   0.266   9.748  1.8269 -0.3803 -1.0923
30386SOL     OW91735   7.774   6.221   3.504  0.7175  0.0084  0.0203
30386SOL    HW191736   7.842   6.287   3.492  0.7267 -0.1193 -0.6754
30386SOL    HW291737   7.821   6.144   3.536  0.6935  0.3583  0.9143
30387SOL     OW91738   2.419   4.781   3.772 -0.0079  0.2172  0.2772
30387SOL    HW191739   2.418   4.819   3.684 -1.1052 -0.3433  0.0354
30387SOL    HW291740   2.440   4.689   3.758 -1.9595 -0.2775  0.4086
30388SOL     OW91741   4.486   4.533   0.447 -0.3448 -0.1645  0.2896
30388SOL    HW191742   4.446   4.494   0.369  3.7307 -1.2782 -1.5313
30388SOL    HW291743   4.554   4.470   0.472  1.5723  2.3584  1.8520
30389SOL     OW91744   1.016   1.355   0.625 -0.2497  0.2641 -0.2134
30389SOL    HW191745   1.074   1.345   0.701 -1.6419 -0.0455  0.8696
30389SOL    HW291746   0.997   1.449   0.622 -0.7903  0.1827  0.3225
30390SOL     OW91747   0.004   2.443   1.579  0.0696  0.1227 -0.4071
30390SOL    HW191748   0.035   2.532   1.598 -0.7892  0.0555  1.4701
30390SOL    HW291749  -0.010   2.404   1.665  0.7551 -1.9646 -1.1977
30391SOL     OW91750   6.245   2.237   5.991 -0.2262 -0.0610  0.1793
30391SOL    HW191751   6.200   2.185   6.058  0.5758 -0.3110  0.5326
30391SOL    HW291752   6.175   2.267   5.933 -1.5249  3.4458  3.2133
30392SOL     OW91753   5.138   5.811  -0.002 -0.8484 -0.2346  0.0553
30392SOL    HW191754   5.182   5.790   0.081 -2.4930  0.2437  1.0782
30392SOL    HW291755   5.056   5.853   0.023 -1.1099  0.4993 -1.8408
30393SOL     OW91756   2.707   2.006   8.437  0.0460 -0.6911 -0.0950
30393SOL    HW191757   2.720   1.967   8.524  0.0856  0.2363  0.3216
30393SOL    HW291758   2.786   2.059   8.423 -0.7256  0.5189  0.0446
30394SOL     OW91759   2.446   8.317   0.144 -0.1689  0.7526  0.4073
30394SOL    HW191760   2.350   8.327   0.147 -0.2143  1.1617 -1.4092
30394SOL    HW291761   2.460   8.249   0.078  0.7829  0.0897  1.2661
30395SOL     OW91762   0.998   5.870   2.929  0.6737  0.2259 -0.6303
30395SOL    HW191763   1.093   5.884   2.934  0.9264 -1.1948 -0.9009
30395SOL    HW291764   0.960   5.949   2.967  1.9142  1.5353 -1.9956
30396SOL     OW91765   8.868   8.075   8.891 -0.3089 -0.8641 -0.0154
30396SOL    HW191766   8.872   8.120   8.807  0.4459  0.8311  0.8542
30396SOL    HW291767   8.782   8.096   8.926 -0.9315 -2.2333 -0.6864
30397SOL     OW91768   3.929   6.351   2.014  0.5908  0.3955 -0.2780
30397SOL    HW191769   3.969   6.436   1.997  0.9030  0.3454  0.1913
30397SOL    HW291770   3.995   6.303   2.064  0.8930 -0.5428 -1.5206
30398SOL     OW91771   7.519   8.078   9.407  0.0885 -0.3952 -0.4861
30398SOL    HW191772   7.468   8.072   9.327 -1.4735  0.1666  0.4244
30398SOL    HW291773   7.601   8.119   9.381 -0.1665 -0.7301 -1.8758
30399SOL     OW91774   3.293   4.727   0.977  0.0250 -0.1297 -0.0385
30399SOL    HW191775   3.279   4.675   1.056  0.3635  0.4149  0.3923
30399SOL    HW291776   3.277   4.818   1.005  1.2412  0.1882 -0.2943
30400SOL     OW91777   9.880   0.201   3.716 -0.1637  0.5428  0.7318
30400SOL    HW191778   9.852   0.292   3.714  2.9966  1.6405  0.5322
30400SOL    HW291779   9.892   0.177   3.624  0.8813  0.6177  0.8347
30401SOL     OW91780   4.623   6.435   4.244  0.2990 -0.0273  0.0442
30401SOL    HW191781   4.717   6.415   4.235  0.2497 -0.7783  1.0274
30401SOL    HW291782   4.622   6.520   4.288  0.4991  0.6121 -1.1238
30402SOL     OW91783   6.375   5.519   7.422  0.9901  0.0299 -0.5979
30402SOL    HW191784   6.357   5.613   7.416 -0.9215 -0.3092 -0.6049
30402SOL    HW291785   6.468   5.511   7.398  0.9693  1.8228 -1.4214
30403SOL     OW91786   8.698   3.979   8.523  0.3158 -0.2591 -0.2756
30403SOL    HW191787   8.720   3.961   8.615  0.8408  0.0741 -0.3303
30403SOL    HW291788   8.608   4.013   8.527  1.0960  1.9515  0.4037
30404SOL     OW91789   4.512   0.644   8.358 -0.1907  0.0249 -0.4467
30404SOL    HW191790   4.483   0.622   8.269  1.3933 -0.1471 -0.9664
30404SOL    HW291791   4.516   0.739   8.359 -0.0750  0.0232 -0.6171
30405SOL     OW91792   7.270   8.429   6.541 -0.3023 -0.3691 -0.0752
30405SOL    HW191793   7.320   8.351   6.568 -0.3463  0.3706  2.3628
30405SOL    HW291794   7.330   8.477   6.484  0.3453 -1.3539 -0.2585
30406SOL     OW91795   0.981   3.538   2.443  0.3532 -0.4283  0.0238
30406SOL    HW191796   1.049   3.515   2.379 -0.2944 -0.2824 -0.7338
30406SOL    HW291797   0.981   3.466   2.505  1.6014 -0.1533  0.3723
30407SOL     OW91798   2.185   8.276   3.986 -0.1549  0.1968 -0.1286
30407SOL    HW191799   2.171   8.207   4.051 -2.3169  1.0409  0.3772
30407SOL    HW291800   2.231   8.345   4.034 -0.7446  0.3590  0.2086
30408SOL     OW91801   5.951   9.775   7.122  0.0699 -0.1939 -0.1168
30408SOL    HW191802   5.893   9.835   7.076  1.4115  0.0502 -1.5858
30408SOL    HW291803   6.033   9.823   7.130  0.8328 -1.4199 -0.3468
30409SOL     OW91804   0.230   8.346   6.017  0.4285 -0.2169  1.0340
30409SOL    HW191805   0.140   8.365   6.042  0.2197 -0.1050  0.2322
30409SOL    HW291806   0.280   8.349   6.099  0.0220  1.5234  1.2496
30410SOL     OW91807   6.607   3.915   9.114  0.2097 -0.1938  0.0536
30410SOL    HW191808   6.591   3.874   9.030 -0.3964  0.8786 -0.3820
30410SOL    HW291809   6.523   3.955   9.137  0.3436 -0.5396  1.2088
30411SOL     OW91810   8.915   1.252   9.033  0.4260 -0.0820 -0.1431
30411SOL    HW191811   8.956   1.257   9.119  1.1713  0.4539 -0.5212
30411SOL    HW291812   8.837   1.198   9.047  0.3796  0.2364  0.9217
30412SOL     OW91813   6.675   2.958   5.642 -0.0767  0.2224 -0.6747
30412SOL    HW191814   6.606   2.958   5.708  0.4077  0.8372 -0.1623
30412SOL    HW291815   6.721   2.875   5.655 -1.0210 -0.4461 -1.3673
30413SOL     OW91816   6.611   7.751   0.671 -0.0034  0.6609 -0.1757
30413SOL    HW191817   6.627   7.658   0.689  0.3722  0.7231 -0.1680
30413SOL    HW291818   6.606   7.757   0.576  0.7604  0.7495 -0.2158
30414SOL     OW91819   8.236   4.473   9.760  0.0772 -0.1076 -0.3513
30414SOL    HW191820   8.301   4.520   9.709  0.2792 -0.6828 -0.6247
30414SOL    HW291821   8.181   4.542   9.798  0.9766  0.3853  0.0673
30415SOL     OW91822   5.190   5.792   4.535  0.1448  0.3096 -0.1785
30415SOL    HW191823   5.111   5.846   4.533 -0.3553 -0.4026 -1.8178
30415SOL    HW291824   5.166   5.715   4.587  0.1807  0.6992  0.4131
30416SOL     OW91825   5.859   9.737   9.780 -0.1829  0.4394 -0.4051
30416SOL    HW191826   5.825   9.652   9.809  2.2179  0.0242  1.5385
30416SOL    HW291827   5.867   9.729   9.685 -0.2046 -1.4335 -0.2798
30417SOL     OW91828   7.501   6.453   9.641 -0.0020 -0.6157 -0.4444
30417SOL    HW191829   7.575   6.493   9.595  0.0316 -0.4848 -0.2756
30417SOL    HW291830   7.482   6.373   9.591 -0.5569 -0.0130 -1.2363
30418SOL     OW91831   0.536   1.524   5.024  0.4150 -0.3549  0.4800
30418SOL    HW191832   0.536   1.479   5.109 -1.7118 -1.0331  0.1832
30418SOL    HW291833   0.572   1.611   5.043  1.6052 -1.0799  1.7004
30419SOL     OW91834   5.304   7.278   7.201 -0.3496 -0.4996 -0.6790
30419SOL    HW191835   5.316   7.331   7.279  0.3879 -0.7954 -0.5895
30419SOL    HW291836   5.209   7.275   7.189 -0.7071 -2.8117  1.8399
30420SOL     OW91837   9.069   5.992   7.469 -0.3157 -0.2623  0.9518
30420SOL    HW191838   9.128   6.067   7.480 -0.8874  0.8185 -2.2966
30420SOL    HW291839   8.982   6.028   7.487 -0.5066 -0.3494  0.2175
30421SOL     OW91840   3.129   7.616   7.436  0.2744 -0.2273 -0.5190
30421SOL    HW191841   3.039   7.585   7.429  0.6178 -1.8624  1.4690
30421SOL    HW291842   3.122   7.704   7.473 -0.5050 -0.6721  0.4330
30422SOL     OW91843   0.428   5.396   6.739 -0.3314 -0.3999 -0.0932
30422SOL    HW191844   0.362   5.400   6.670 -0.5794 -0.4249  0.1418
30422SOL    HW291845   0.502   5.444   6.704 -0.0428 -1.3615 -0.8280
30423SOL     OW91846   2.903   3.617   8.383  0.8789  0.3575 -0.1038
30423SOL    HW191847   2.923   3.652   8.296 -0.5130  1.3406 -0.0531
30423SOL    HW291848   2.913   3.522   8.374 -1.1987  0.2480 -1.9074
30424SOL     OW91849   2.917   7.865   1.531 -0.5100  0.1858 -0.2445
30424SOL    HW191850   2.868   7.857   1.450 -0.0189 -0.3163 -0.4993
30424SOL    HW291851   2.912   7.778   1.571  2.0084 -0.5826 -1.3591
30425SOL     OW91852   4.479   0.813   3.512  0.5923 -0.1001  0.5769
30425SOL    HW191853   4.495   0.792   3.604  1.4917  1.6188  0.8580
30425SOL    HW291854   4.421   0.743   3.481 -0.9505  0.0513  2.8326
30426SOL     OW91855   4.396   2.129   1.807  0.1772  0.1052 -0.6939
30426SOL    HW191856   4.320   2.183   1.829 -0.8028 -1.9978  1.5373
30426SOL    HW291857   4.378   2.095   1.719 -1.3154 -0.0925 -0.3313
30427SOL     OW91858   9.257   6.899   2.485  0.1974  0.0987  0.3899
30427SOL    HW191859   9.177   6.945   2.511  0.3512  0.7875 -0.3102
30427SOL    HW291860   9.280   6.847   2.561  0.1708  1.4015  1.3298
30428SOL     OW91861   3.534   3.561   0.081  0.0450 -0.6548 -0.2171
30428SOL    HW191862   3.581   3.479   0.097 -0.1834 -0.5463  1.1708
30428SOL    HW291863   3.555   3.584  -0.009 -0.7254 -2.7810 -1.0059
30429SOL     OW91864   1.853   1.094   3.836  0.2503 -0.2188  0.1049
30429SOL    HW191865   1.812   1.105   3.922  0.0796 -2.4228  0.3664
30429SOL    HW291866   1.939   1.135   3.845 -0.6242  1.6229  0.5508
30430SOL     OW91867   7.373   6.832   4.736  0.3265  0.2590  0.2203
30430SOL    HW191868   7.415   6.828   4.650 -0.3314 -0.7182 -0.0695
30430SOL    HW291869   7.441   6.865   4.795  1.0461  0.0862 -0.5081
30431SOL     OW91870   6.813   6.716   4.376 -0.0515 -0.4057  0.2381
30431SOL    HW191871   6.831   6.682   4.288  0.5620 -0.0462  0.2129
30431SOL    HW291872   6.900   6.727   4.415 -0.2646  0.4474  0.5020
30432SOL     OW91873   7.830   4.982   7.415 -0.0524  0.1566  0.5193
30432SOL    HW191874   7.820   4.910   7.478  0.3705  0.0835  0.5120
30432SOL    HW291875   7.775   5.052   7.449 -0.9534 -0.3883  0.1971
30433SOL     OW91876   5.443   5.560   7.012 -0.3760  0.1243 -0.1531
30433SOL    HW191877   5.394   5.641   6.998 -0.1677  0.5040  1.0918
30433SOL    HW291878   5.393   5.513   7.078  0.3571  0.0259  0.3532
30434SOL     OW91879   7.848   8.538   5.595  0.2134 -0.3525 -0.1618
30434SOL    HW191880   7.800   8.620   5.592 -0.0296 -0.5081 -0.5808
30434SOL    HW291881   7.781   8.470   5.596  0.4085 -0.5421  0.5167
30435SOL     OW91882   2.515   7.384   0.997 -0.1060 -0.6079 -0.3849
30435SOL    HW191883   2.601   7.399   1.036 -0.2807 -0.2828 -0.1210
30435SOL    HW291884   2.526   7.407   0.905 -0.1680  0.4293 -0.1427
30436SOL     OW91885   9.118   1.223   7.825  0.7665 -0.4556 -0.7353
30436SOL    HW191886   9.140   1.290   7.760 -0.7013 -1.2532 -2.1267
30436SOL    HW291887   9.028   1.198   7.804  0.6250 -1.5066  0.9561
30437SOL     OW91888   3.684   1.400   1.400  0.3219 -0.1949  0.3450
30437SOL    HW191889   3.687   1.372   1.308  0.3899 -1.5503  0.7289
30437SOL    HW291890   3.680   1.318   1.449 -0.8654  0.5155  1.5153
30438SOL     OW91891   1.772   2.951   8.677  0.0612  0.0476 -0.7093
30438SOL    HW191892   1.719   2.878   8.644  0.8233 -0.2646 -1.2737
30438SOL    HW291893   1.790   3.004   8.600 -1.1479  1.2921 -0.1772
30439SOL     OW91894   6.977   3.281   1.620 -0.2840  0.4980  0.2840
30439SOL    HW191895   6.963   3.302   1.712  0.5563  0.2037  0.4873
30439SOL    HW291896   6.890   3.261   1.587 -0.9589  2.9926  0.3867
30440SOL     OW91897   4.136   5.988   4.006  0.2761  0.6350  0.2972
30440SOL    HW191898   4.062   5.929   4.023  1.8195 -0.9899  1.8876
30440SOL    HW291899   4.096   6.069   3.975 -2.0592 -0.6596 -0.3037
30441SOL     OW91900   5.831   1.686   5.733  0.2773 -0.4368  0.9998
30441SOL    HW191901   5.837   1.632   5.811 -0.2716 -0.4459  1.0423
30441SOL    HW291902   5.786   1.766   5.762 -0.3231 -0.6250  0.6098
30442SOL     OW91903   7.324   4.870   4.770  0.0724 -0.1518  0.3348
30442SOL    HW191904   7.353   4.934   4.706 -0.1932 -1.2910 -0.9819
30442SOL    HW291905   7.229   4.868   4.760  0.1918 -2.0357 -0.9954
30443SOL     OW91906   0.687   4.058   3.881 -0.1071 -0.1811  0.0512
30443SOL    HW191907   0.782   4.044   3.879 -0.3239 -1.7692 -1.3770
30443SOL    HW291908   0.677   4.153   3.872  1.3436  0.0163  0.2131
30444SOL     OW91909   6.798   7.426   8.980 -0.6192 -0.0733  0.6818
30444SOL    HW191910   6.853   7.479   9.039  0.8268 -0.7639  0.0189
30444SOL    HW291911   6.861   7.380   8.924 -1.8664 -1.4497  0.3409
30445SOL     OW91912   9.739   7.304   3.675  0.0320  0.5494  1.0852
30445SOL    HW191913   9.826   7.291   3.712  0.0221 -1.8689  0.4260
30445SOL    HW291914   9.679   7.271   3.741 -0.2075 -0.0636  0.5794
30446SOL     OW91915   4.334   1.566   4.090 -0.0319  0.2530  0.5914
30446SOL    HW191916   4.351   1.474   4.068 -0.0644 -0.0106  1.6288
30446SOL    HW291917   4.238   1.573   4.087 -0.0522  0.1366  0.9620
30447SOL     OW91918   1.665   6.468   3.564 -0.2998 -0.1132  0.0627
30447SOL    HW191919   1.720   6.437   3.492  2.4569  4.3692 -0.1572
30447SOL    HW291920   1.580   6.487   3.523  0.9950  1.6784 -1.9748
30448SOL     OW91921   0.035   5.793   8.039 -0.6068 -0.5539 -0.5413
30448SOL    HW191922   0.109   5.849   8.063 -1.3290  0.0916  0.2609
30448SOL    HW291923   0.027   5.802   7.944 -0.4920  0.4301 -0.4652
30449SOL     OW91924   7.735   6.723   8.532 -0.5690 -0.0957  0.0378
30449SOL    HW191925   7.681   6.654   8.571 -0.7841 -2.3997 -3.8096
30449SOL    HW291926   7.672   6.782   8.491 -0.3151  1.7180  2.0958
30450SOL     OW91927   5.471   7.100   0.257  0.2416 -0.1074 -0.5184
30450SOL    HW191928   5.507   7.012   0.249  1.4598  0.1689  1.3525
30450SOL    HW291929   5.448   7.124   0.167  0.4637 -2.0694 -1.1556
30451SOL     OW91930   2.121   8.889   4.844 -0.5059  0.1856  0.0515
30451SOL    HW191931   2.079   8.970   4.876 -3.1070 -0.9091 -0.3299
30451SOL    HW291932   2.048   8.832   4.822  1.2616 -1.7038 -1.2383
30452SOL     OW91933   0.260   8.350   4.188  0.5145 -0.1798  0.4786
30452SOL    HW191934   0.340   8.391   4.219  1.1561 -0.8579 -0.2535
30452SOL    HW291935   0.270   8.346   4.093 -0.1931 -0.6765  0.4189
30453SOL     OW91936   2.414   0.703   4.168 -0.2884 -0.0778 -0.1919
30453SOL    HW191937   2.413   0.750   4.085  0.2256  0.6585  0.2118
30453SOL    HW291938   2.507   0.693   4.190 -0.3946  2.0432  1.5526
30454SOL     OW91939   7.099   7.222   5.230  0.1647 -0.0693 -0.1126
30454SOL    HW191940   7.194   7.226   5.220  0.1949  0.0426  0.1793
30454SOL    HW291941   7.082   7.134   5.266  0.2597  0.2648  0.7799
30455SOL     OW91942   1.349   7.222   4.716 -0.8204 -0.0955  0.2828
30455SOL    HW191943   1.414   7.237   4.785  0.4927  1.2932 -1.1623
30455SOL    HW291944   1.279   7.174   4.759  1.0592 -1.4995  1.9852
30456SOL     OW91945   4.878   6.572   1.128  0.6294  0.0488  0.1807
30456SOL    HW191946   4.923   6.546   1.047 -0.8242 -2.7328  0.1481
30456SOL    HW291947   4.928   6.529   1.198 -0.7167 -1.3744  0.3122
30457SOL     OW91948   9.083   1.626   0.957 -0.2849 -0.2308 -0.1445
30457SOL    HW191949   9.124   1.578   1.029 -0.1739  1.7950  1.2342
30457SOL    HW291950   9.133   1.601   0.879  2.0033  0.2399  1.0864
30458SOL     OW91951   7.984   6.856   7.580 -0.0722 -0.0004 -0.2885
30458SOL    HW191952   8.043   6.909   7.527 -0.6873  0.3627 -0.6292
30458SOL    HW291953   7.988   6.769   7.540 -0.9142  0.3860 -1.2934
30459SOL     OW91954   2.628   7.508   3.945 -0.1290 -0.4185  0.1625
30459SOL    HW191955   2.585   7.437   3.897  1.2815 -0.6980 -0.7241
30459SOL    HW291956   2.721   7.488   3.940  0.5515  2.5333 -1.9172
30460SOL     OW91957   0.846   6.831   0.360 -0.1042  0.3771  0.0099
30460SOL    HW191958   0.923   6.873   0.322  1.3988 -0.7444  1.6358
30460SOL    HW291959   0.816   6.891   0.428 -0.0545  0.3715  0.0369
30461SOL     OW91960   5.616   6.649   9.537 -0.0975  0.1537 -0.5122
30461SOL    HW191961   5.598   6.561   9.569 -0.7791 -0.2632 -1.9473
30461SOL    HW291962   5.639   6.699   9.615  1.4699 -1.5613  0.1969
30462SOL     OW91963   4.812   6.477   7.440 -0.0282 -0.3669 -0.2729
30462SOL    HW191964   4.768   6.537   7.380 -1.0677  0.5266  1.3205
30462SOL    HW291965   4.756   6.400   7.442  0.7634 -1.0002 -1.5204
30463SOL     OW91966   0.256   8.385   5.542 -0.0037 -0.4200  0.0695
30463SOL    HW191967   0.263   8.318   5.611 -0.6549 -1.5429 -0.9124
30463SOL    HW291968   0.163   8.408   5.541  0.1145  0.0550 -0.0047
30464SOL     OW91969   2.972   5.705   8.364 -0.7335  0.4110  0.3437
30464SOL    HW191970   2.907   5.761   8.406  0.2774  0.2123  2.2992
30464SOL    HW291971   3.046   5.705   8.425  0.3662 -0.8505 -0.9239
30465SOL     OW91972   5.107   5.343   6.792  0.2225  0.5987  0.1069
30465SOL    HW191973   5.106   5.415   6.729 -2.5038  1.6208  1.1417
30465SOL    HW291974   5.019   5.306   6.787  1.0769 -1.6607  0.7548
30466SOL     OW91975   9.577   8.324   0.249  0.0925  0.8620  0.4346
30466SOL    HW191976   9.620   8.331   0.335 -1.1284 -0.2727  1.1685
30466SOL    HW291977   9.580   8.413   0.214  1.5710  1.1351  1.1649
30467SOL     OW91978   1.640   7.735   5.615  0.0371  0.3028 -1.0038
30467SOL    HW191979   1.713   7.704   5.668  0.1216  0.1109 -1.2305
30467SOL    HW291980   1.564   7.731   5.674  0.4141  1.6778 -0.3836
30468SOL     OW91981   2.142   7.460   7.056  0.2256 -0.0355 -0.0333
30468SOL    HW191982   2.113   7.545   7.021 -0.0163 -0.3043 -0.5010
30468SOL    HW291983   2.235   7.457   7.036  0.1319 -0.0966 -0.4884
30469SOL     OW91984   4.441   7.189   9.004 -0.0005  0.0489  0.1463
30469SOL    HW191985   4.403   7.182   9.091 -1.3325  0.3881 -0.3876
30469SOL    HW291986   4.529   7.223   9.019 -0.4363  0.7131  1.3176
30470SOL     OW91987   0.380   2.607   2.124 -0.1098 -0.3025  0.3346
30470SOL    HW191988   0.341   2.597   2.211 -1.3426  1.7192  0.0710
30470SOL    HW291989   0.469   2.574   2.134 -0.4182 -0.6544  2.2093
30471SOL     OW91990   2.122   7.680   8.657  0.2387 -0.0070 -0.4384
30471SOL    HW191991   2.097   7.610   8.595 -1.4224  0.9869 -0.9589
30471SOL    HW291992   2.040   7.726   8.675  1.5199  2.8892 -1.4651
30472SOL     OW91993   6.567   7.466   9.145  0.6730 -0.3155  0.1137
30472SOL    HW191994   6.627   7.474   9.070 -1.4903  0.6695 -1.6203
30472SOL    HW291995   6.565   7.554   9.183 -2.6977  0.9902 -2.4775
30473SOL     OW91996   8.661   8.264   8.078 -0.1455  0.3004  0.0927
30473SOL    HW191997   8.751   8.229   8.080  0.5052  1.6616 -2.1631
30473SOL    HW291998   8.633   8.254   7.988 -2.4938 -0.4824  0.8455
30474SOL     OW91999   0.950   7.034   9.226  0.0233 -0.0068 -0.1663
30474SOL    HW192000   0.858   7.023   9.250 -0.0310  1.3537  0.3599
30474SOL    HW292001   0.998   7.003   9.303 -0.1107  2.4827  1.0213
30475SOL     OW92002   3.676   2.329   7.039 -0.2397  0.3345 -0.0236
30475SOL    HW192003   3.605   2.347   6.977  1.1557  1.9181 -1.2467
30475SOL    HW292004   3.709   2.243   7.014 -0.8866  0.1527 -0.2647
30476SOL     OW92005   9.874   7.269   8.678 -0.4745  0.3949 -0.6782
30476SOL    HW192006   9.795   7.275   8.731 -0.3296 -0.0603 -0.4060
30476SOL    HW292007   9.843   7.270   8.587 -0.8893 -0.9922 -0.5693
30477SOL     OW92008   7.569   3.438   9.332  0.4143 -0.4636  0.2831
30477SOL    HW192009   7.650   3.422   9.283  0.7929  2.0428 -0.0794
30477SOL    HW292010   7.504   3.460   9.264  0.1008 -0.0832  0.6948
30478SOL     OW92011   0.315   2.289   8.907  0.3492  0.4554  0.1061
30478SOL    HW192012   0.254   2.341   8.856  1.1978  1.9986  0.5999
30478SOL    HW292013   0.343   2.219   8.848 -2.8211 -1.1322  0.2659
30479SOL     OW92014   6.340   4.861   8.786 -0.4632 -0.6507 -0.1517
30479SOL    HW192015   6.376   4.775   8.810  0.4939 -0.9080 -2.2239
30479SOL    HW292016   6.382   4.922   8.846  2.2855 -1.1534 -1.3848
30480SOL     OW92017   1.719   6.868   6.183 -0.1038  0.2242 -0.0120
30480SOL    HW192018   1.790   6.927   6.156  0.6196 -0.0250  1.2538
30480SOL    HW292019   1.743   6.841   6.272 -1.3218 -0.6034  0.0886
30481SOL     OW92020   0.165   6.825   5.808 -0.8154 -0.2461  0.3759
30481SOL    HW192021   0.185   6.905   5.759  0.4851 -0.3218  0.7307
30481SOL    HW292022   0.074   6.833   5.833 -0.6493  1.2153  0.5715
30482SOL     OW92023   7.137   7.879   4.370 -0.0720  0.4322 -0.1752
30482SOL    HW192024   7.088   7.798   4.355 -1.2145  1.2727 -1.1356
30482SOL    HW292025   7.229   7.851   4.373 -0.5346 -1.1024  1.0800
30483SOL     OW92026   3.493   3.379   2.609 -0.0758  0.1038 -0.0460
30483SOL    HW192027   3.438   3.359   2.684  2.4295 -2.9905  1.1917
30483SOL    HW292028   3.470   3.312   2.544 -0.1245  0.9201 -0.8972
30484SOL     OW92029   8.890   1.107   6.556  0.0075  0.4058  0.3641
30484SOL    HW192030   8.825   1.156   6.505 -0.8384  2.1937  2.9529
30484SOL    HW292031   8.970   1.112   6.504 -0.9276  1.5829 -1.0674
30485SOL     OW92032   8.485   0.911   1.022  0.2640 -0.0294 -0.1741
30485SOL    HW192033   8.497   0.978   1.089  0.5581 -0.0315 -0.2240
30485SOL    HW292034   8.497   0.957   0.939  0.9494 -0.2313 -0.1981
30486SOL     OW92035   5.330   1.144   6.781 -0.3742 -0.3903 -0.2452
30486SOL    HW192036   5.310   1.152   6.687  0.2119  1.8356 -0.2456
30486SOL    HW292037   5.263   1.198   6.824 -1.6636 -2.6933  0.8298
30487SOL     OW92038   8.439   9.910   4.967  0.2413 -0.2576  0.3168
30487SOL    HW192039   8.503   9.919   4.895  0.7527 -0.6832  0.7084
30487SOL    HW292040   8.492   9.882   5.042 -0.3665 -0.3159  0.7258
30488SOL     OW92041   3.070   2.043   8.636  0.4492  0.1716  0.5552
30488SOL    HW192042   3.109   2.115   8.587 -2.5378  0.8492 -1.1218
30488SOL    HW292043   3.038   2.084   8.717 -1.2230  0.8177 -0.3838
30489SOL     OW92044   3.167   3.028   0.362  0.0748  0.0243  0.5968
30489SOL    HW192045   3.152   3.122   0.349 -0.7458 -0.1817 -0.0085
30489SOL    HW292046   3.182   2.994   0.274 -2.8350 -0.9405  0.3810
30490SOL     OW92047   1.568   8.889   7.119  0.1709 -0.0703  0.5724
30490SOL    HW192048   1.560   8.812   7.063 -1.1706  0.5145 -0.0765
30490SOL    HW292049   1.479   8.924   7.126  0.6506  1.0791  1.3508
30491SOL     OW92050   1.339   3.287   9.383 -0.0006  0.0273 -0.1008
30491SOL    HW192051   1.350   3.239   9.302  0.1478 -0.9348  0.4757
30491SOL    HW292052   1.427   3.293   9.420 -0.0642  0.4768 -0.0193
30492SOL     OW92053   8.500   6.363   8.205 -0.3042  0.1516 -0.3488
30492SOL    HW192054   8.595   6.376   8.198 -0.5039  3.4460  1.3434
30492SOL    HW292055   8.491   6.277   8.246  1.8520 -0.7556 -1.5956
30493SOL     OW92056   2.951   5.265   6.777  0.2901 -0.0948  0.1028
30493SOL    HW192057   2.900   5.284   6.699  1.3093  2.8038  0.0290
30493SOL    HW292058   2.896   5.297   6.850  0.4372 -0.3986  0.3499
30494SOL     OW92059   1.196   1.430   6.224  0.4438 -0.1833  0.0458
30494SOL    HW192060   1.245   1.391   6.296  0.1568  0.6897  0.7294
30494SOL    HW292061   1.106   1.402   6.238  0.6415 -1.4083 -0.9506
30495SOL     OW92062   2.989   2.098   4.718  0.3737 -0.0942  0.3261
30495SOL    HW192063   3.026   2.145   4.643  0.5659 -0.2956  0.2936
30495SOL    HW292064   3.053   2.031   4.738 -1.1735 -2.3076 -1.5208
30496SOL     OW92065   3.009   0.329   1.575 -0.0282 -0.1576  0.7790
30496SOL    HW192066   2.984   0.419   1.556  0.0532 -0.2306  0.2994
30496SOL    HW292067   3.078   0.309   1.510  0.5528 -0.2856  1.4197
30497SOL     OW92068   8.817   0.384   6.408 -0.3042 -0.1782  0.0854
30497SOL    HW192069   8.889   0.328   6.379  0.4282  0.9695 -0.4128
30497SOL    HW292070   8.740   0.350   6.363  0.1796 -0.6013 -0.4417
30498SOL     OW92071   0.646   6.721   2.973 -0.3104 -0.2537  0.6987
30498SOL    HW192072   0.701   6.703   3.050 -0.2711 -1.4262  0.4063
30498SOL    HW292073   0.709   6.736   2.903 -0.2688  2.6556  1.1947
30499SOL     OW92074   9.193   2.014   9.802  0.5079 -0.2024 -0.3106
30499SOL    HW192075   9.165   2.056   9.883 -0.2502 -1.7525  0.2846
30499SOL    HW292076   9.167   2.075   9.733 -0.0698  0.5301  0.5329
30500SOL     OW92077   1.699   7.001   2.872  0.3147 -0.3468  0.4337
30500SOL    HW192078   1.687   7.089   2.907  1.5081 -0.4114  1.0286
30500SOL    HW292079   1.753   7.013   2.794 -1.1994 -0.3572 -0.6619
30501SOL     OW92080   4.133   9.616   0.307  0.0400 -0.2298 -0.2698
30501SOL    HW192081   4.166   9.618   0.397 -0.5261  0.6012 -0.0693
30501SOL    HW292082   4.122   9.708   0.284 -0.9040 -0.4642 -0.7898
30502SOL     OW92083   5.025   6.738   7.616 -0.0724  0.8718  0.9794
30502SOL    HW192084   5.073   6.664   7.654 -0.5403  0.6577  1.1535
30502SOL    HW292085   5.089   6.781   7.559 -0.3598 -0.9023 -0.7808
30503SOL     OW92086   5.836   0.472   3.117  0.2292 -0.0655 -0.9020
30503SOL    HW192087   5.777   0.433   3.053 -0.1212 -0.3122 -0.4321
30503SOL    HW292088   5.824   0.419   3.196  0.5058  0.3618 -0.5714
30504SOL     OW92089   3.381   5.005   8.556 -0.4794  0.6842 -0.3143
30504SOL    HW192090   3.377   4.933   8.493  0.6958  0.1557  0.1882
30504SOL    HW292091   3.328   5.074   8.517 -0.2405  0.1606 -1.6184
30505SOL     OW92092   6.087   5.008   1.425  0.4427 -0.1008  0.2484
30505SOL    HW192093   6.076   5.070   1.353  0.0713 -0.5048 -0.0449
30505SOL    HW292094   6.010   5.021   1.480  0.1610 -0.5757 -0.0257
30506SOL     OW92095   1.001   5.809   6.055 -0.2826  0.0263 -0.3984
30506SOL    HW192096   0.994   5.738   6.120  0.1872  0.3202 -0.0157
30506SOL    HW292097   0.913   5.845   6.049 -0.8410 -1.4116 -1.5586
30507SOL     OW92098   5.774   5.666   8.271 -0.4263  0.2044 -0.6827
30507SOL    HW192099   5.765   5.615   8.352 -1.8030  0.0603 -0.8955
30507SOL    HW292100   5.726   5.747   8.289  0.2790  0.6895 -0.9519
30508SOL     OW92101   5.988   3.770   9.716  0.1523 -0.0807 -0.2236
30508SOL    HW192102   6.037   3.809   9.644 -0.6345 -0.3543 -0.9320
30508SOL    HW292103   6.001   3.829   9.790 -0.0944  0.9175 -0.9619
30509SOL     OW92104   1.240   4.384   3.179 -0.0277 -0.4136 -0.2861
30509SOL    HW192105   1.191   4.349   3.105 -0.5451 -1.6636  0.6032
30509SOL    HW292106   1.202   4.470   3.194 -1.7664 -1.2144  0.1636
30510SOL     OW92107   7.656   6.490   6.459 -0.6855 -0.6067 -0.2839
30510SOL    HW192108   7.686   6.476   6.548 -1.9240 -0.2439  0.2172
30510SOL    HW292109   7.568   6.527   6.469 -1.2300 -1.4387 -1.6611
30511SOL     OW92110   8.364   6.543   4.133 -0.7971  0.7883 -0.4418
30511SOL    HW192111   8.321   6.459   4.115  1.2170 -0.5229  0.4309
30511SOL    HW292112   8.334   6.567   4.221  0.9827 -0.7090  0.6497
30512SOL     OW92113   1.976   6.272   6.123  0.0882  0.0085  0.0745
30512SOL    HW192114   1.956   6.205   6.188  1.1081 -1.0428 -0.6503
30512SOL    HW292115   2.011   6.223   6.048 -1.4164  1.1125 -1.4590
30513SOL     OW92116   5.387   2.447   1.412 -0.6845 -0.5444 -0.4934
30513SOL    HW192117   5.367   2.357   1.386 -2.0542 -0.2922 -0.3803
30513SOL    HW292118   5.306   2.495   1.395 -0.0864  0.5908 -0.1874
30514SOL     OW92119   9.306   2.933   0.373 -0.2900  0.1249 -0.0075
30514SOL    HW192120   9.263   2.859   0.417  0.5928 -0.8389 -0.7129
30514SOL    HW292121   9.240   2.968   0.314 -0.6033 -0.3365  0.0662
30515SOL     OW92122   6.161   4.288   2.352 -0.1021  0.2154  0.0868
30515SOL    HW192123   6.229   4.353   2.370 -0.0558  0.3064 -0.4039
30515SOL    HW292124   6.153   4.288   2.257  1.4486 -2.0669 -0.1174
30516SOL     OW92125   2.732   0.988   7.761  0.6701 -0.1841  0.0427
30516SOL    HW192126   2.717   1.063   7.702  0.8013 -0.1757  0.0181
30516SOL    HW292127   2.682   0.917   7.723 -0.8568  0.3290  0.9984
30517SOL     OW92128   7.886   5.200   3.866 -0.7229 -0.2869  0.0359
30517SOL    HW192129   7.877   5.286   3.907  1.7277  0.2151 -0.3431
30517SOL    HW292130   7.892   5.139   3.939 -0.1785  0.1449  0.3568
30518SOL     OW92131   7.514   7.764   9.024  0.1208  0.1731 -0.4216
30518SOL    HW192132   7.504   7.771   9.119  1.1704  0.7694 -0.3396
30518SOL    HW292133   7.580   7.830   9.002  0.8926 -0.8931 -1.3983
30519SOL     OW92134   0.680   9.314   0.641  0.2077  0.7527  0.1403
30519SOL    HW192135   0.729   9.397   0.646  0.9226  0.3251  0.4739
30519SOL    HW292136   0.744   9.252   0.605 -0.3339  0.3550 -0.1345
30520SOL     OW92137   6.522   5.502   6.128  0.0677  0.4262 -0.1672
30520SOL    HW192138   6.446   5.551   6.159  0.4380  0.3326  0.9144
30520SOL    HW292139   6.503   5.411   6.152 -0.2254  0.1484 -1.3920
30521SOL     OW92140   1.535   9.333   0.062 -0.1229 -0.3179 -0.3506
30521SOL    HW192141   1.528   9.239   0.081 -0.6806 -0.3575 -0.6998
30521SOL    HW292142   1.492   9.376   0.136  1.3000 -0.2646  0.4668
30522SOL     OW92143   1.836   5.573   9.217  0.4228 -0.2565  0.1367
30522SOL    HW192144   1.864   5.645   9.275 -0.1605  0.3887 -0.3627
30522SOL    HW292145   1.914   5.553   9.165  0.9302 -0.7877  1.0783
30523SOL     OW92146   0.593   1.551   2.720  0.3719  0.1968 -0.0226
30523SOL    HW192147   0.510   1.527   2.680 -0.8025 -1.0985  2.9098
30523SOL    HW292148   0.656   1.550   2.648 -1.5267 -2.0868 -1.8012
30524SOL     OW92149   1.431   7.630   6.874  0.1767  0.1746  0.0812
30524SOL    HW192150   1.348   7.584   6.884 -1.6241  3.2695  0.9973
30524SOL    HW292151   1.465   7.639   6.963  0.8595 -0.0023 -0.1567
30525SOL     OW92152   8.978   4.639   8.177  0.3042  0.4386  0.5536
30525SOL    HW192153   8.928   4.604   8.104  0.2697  0.0063  0.7792
30525SOL    HW292154   8.964   4.576   8.248  0.6664  0.6378  0.8053
30526SOL     OW92155   7.246   2.806   4.557 -0.4516 -0.5342 -0.2433
30526SOL    HW192156   7.168   2.756   4.578 -1.1265 -0.4973 -2.4519
30526SOL    HW292157   7.244   2.816   4.462  1.9225  0.0018 -0.3066
30527SOL     OW92158   6.757   8.621   4.853 -0.2085  0.5295  0.2715
30527SOL    HW192159   6.680   8.678   4.844  0.0296  0.6498 -1.2230
30527SOL    HW292160   6.830   8.681   4.869 -0.1470  0.5689 -0.1357
30528SOL     OW92161   4.591   1.191   0.687 -0.0955 -0.1484 -0.6398
30528SOL    HW192162   4.644   1.118   0.719  0.2305  0.3462 -0.0273
30528SOL    HW292163   4.502   1.171   0.716  0.1967  0.2985  0.6202
30529SOL     OW92164   2.668   5.460   9.593 -1.0392  0.2227 -0.6884
30529SOL    HW192165   2.640   5.452   9.502 -0.2633  0.5206 -0.9569
30529SOL    HW292166   2.623   5.389   9.638 -3.5724  1.6619 -0.7699
30530SOL     OW92167   9.220   3.044   7.315 -0.0490  0.0790  0.1705
30530SOL    HW192168   9.126   3.046   7.297  0.0265  3.1308 -0.4035
30530SOL    HW292169   9.250   2.965   7.270 -2.5174 -2.0660  1.9337
30531SOL     OW92170   2.029   8.086   2.075 -0.2893  0.1487  0.1792
30531SOL    HW192171   2.078   8.007   2.054 -1.2167 -0.6317  0.8712
30531SOL    HW292172   2.080   8.129   2.143  2.3571  2.3137 -2.8375
30532SOL     OW92173   6.531   7.057   8.516  0.1857  0.3932  0.8386
30532SOL    HW192174   6.603   7.088   8.570  1.3427 -0.5642 -0.0914
30532SOL    HW292175   6.530   6.962   8.530 -2.0867  0.5359  2.2193
30533SOL     OW92176   9.886   2.523   5.618  0.0341 -0.4251  0.2642
30533SOL    HW192177   9.885   2.460   5.689  0.6908  0.7468  1.3468
30533SOL    HW292178   9.841   2.600   5.653  0.6872  0.3063 -0.4532
30534SOL     OW92179   3.737   7.588   5.827 -0.3132 -0.1427 -0.7127
30534SOL    HW192180   3.831   7.607   5.837  0.3200 -3.0683 -0.3794
30534SOL    HW292181   3.695   7.672   5.845  2.2756  1.8242 -2.8616
30535SOL     OW92182   4.503   8.587   9.095  0.0924 -0.0248  0.0573
30535SOL    HW192183   4.448   8.665   9.096 -0.1600 -0.0423 -2.8230
30535SOL    HW292184   4.442   8.514   9.105 -0.2602  0.0312 -1.4294
30536SOL     OW92185  -0.004   9.589   4.599 -0.1620 -0.1480 -0.6966
30536SOL    HW192186   0.038   9.521   4.652 -1.0487  0.1928  0.4681
30536SOL    HW292187   0.039   9.670   4.626  0.0830 -0.0932 -1.2401
30537SOL     OW92188   9.209   9.001   0.626  0.0647 -0.5372 -0.1382
30537SOL    HW192189   9.157   8.982   0.704 -0.6066  2.2124  0.1926
30537SOL    HW292190   9.260   9.078   0.649  1.1954 -0.7134 -1.8449
30538SOL     OW92191   0.070   0.982   9.519  0.3253 -0.1832  0.2906
30538SOL    HW192192  -0.005   1.033   9.551 -0.2077 -1.0436  0.4453
30538SOL    HW292193   0.123   0.965   9.596 -0.1624 -0.9414  0.4711
30539SOL     OW92194   6.479   9.944   2.796  0.1465  0.5297 -0.4620
30539SOL    HW192195   6.566   9.906   2.802 -0.6163 -1.0394  3.3466
30539SOL    HW292196   6.486  10.029   2.840 -0.3703  0.0116  0.6626
30540SOL     OW92197   5.513   1.785   0.518 -0.3364  0.0475  0.4090
30540SOL    HW192198   5.556   1.869   0.531 -0.2151  0.0421  0.0582
30540SOL    HW292199   5.451   1.778   0.590 -1.0378  0.8768 -0.0972
30541SOL     OW92200   1.830   7.744   6.173  0.0768  1.1600 -0.3967
30541SOL    HW192201   1.864   7.697   6.096  1.4398  2.3015 -0.5330
30541SOL    HW292202   1.750   7.786   6.142 -1.4379 -1.3704 -0.1491
30542SOL     OW92203   0.172   5.836   2.506  0.3053  0.1085 -0.1674
30542SOL    HW192204   0.145   5.784   2.582 -1.7656  0.4539 -0.6043
30542SOL    HW292205   0.246   5.888   2.538  0.5962 -1.0111  1.0947
30543SOL     OW92206   0.798   1.860   8.828 -0.0426 -0.1830  0.0209
30543SOL    HW192207   0.736   1.927   8.858  0.6902  1.0021 -1.0416
30543SOL    HW292208   0.756   1.821   8.751  0.2554  0.1756 -0.3205
30544SOL     OW92209   6.478  -0.010   5.456  0.5862  0.7080  0.0578
30544SOL    HW192210   6.504   0.018   5.544 -1.7890  1.7081  0.5079
30544SOL    HW292211   6.494   0.067   5.401  3.1080 -0.2467 -0.7133
30545SOL     OW92212   2.234   2.081   2.040  0.1331 -0.2704  0.1800
30545SOL    HW192213   2.314   2.119   2.004 -0.1966  0.7168  0.4424
30545SOL    HW292214   2.256   1.989   2.057  0.9336 -0.2288 -0.5516
30546SOL     OW92215   9.872   9.571   8.985  0.0658 -0.2604 -0.3462
30546SOL    HW192216   9.901   9.595   9.073 -0.2013 -2.0734  0.2921
30546SOL    HW292217   9.840   9.652   8.947 -3.4919  0.0476  2.6609
30547SOL     OW92218   1.242   1.133   1.938 -0.0197 -0.2062  0.0525
30547SOL    HW192219   1.160   1.118   1.985 -1.4489 -0.0848 -2.2419
30547SOL    HW292220   1.249   1.058   1.879  2.2701 -0.9116  1.0935
30548SOL     OW92221   7.965   5.509   5.234  0.0618 -0.1750 -0.0203
30548SOL    HW192222   7.898   5.446   5.258 -0.5986 -0.2088 -1.8501
30548SOL    HW292223   7.917   5.590   5.214  0.4639 -0.3680 -1.9296
30549SOL     OW92224   6.790   7.982   1.014  0.3988 -0.4823 -0.0171
30549SOL    HW192225   6.863   8.029   1.053  0.4848  1.1288 -1.9404
30549SOL    HW292226   6.730   8.051   0.983  1.0098 -1.4213 -3.8700
30550SOL     OW92227   1.644   7.241   2.970  0.1407 -0.0934  0.4034
30550SOL    HW192228   1.609   7.284   3.048  1.2636  0.4888  0.6057
30550SOL    HW292229   1.723   7.290   2.949 -0.5580  0.2737 -1.5935
30551SOL     OW92230   0.275   8.146   8.756 -0.1654 -0.5023  0.2944
30551SOL    HW192231   0.233   8.068   8.792 -2.5355  0.5506 -0.0057
30551SOL    HW292232   0.342   8.169   8.820  0.3603 -2.5417  0.5570
30552SOL     OW92233   6.508   6.029   6.687  0.4879 -0.0858 -0.1231
30552SOL    HW192234   6.531   6.110   6.731 -0.2804 -0.2336  0.5704
30552SOL    HW292235   6.581   5.970   6.706 -0.4377 -0.6050  2.1917
30553SOL     OW92236   8.500   5.524   7.534 -0.2100  0.2037  1.0751
30553SOL    HW192237   8.499   5.429   7.540  0.4508  0.2477  2.0899
30553SOL    HW292238   8.579   5.544   7.482 -0.9421  0.1763 -0.0921
30554SOL     OW92239   3.056   0.070   4.501  0.1132  0.5354 -0.0551
30554SOL    HW192240   3.099   0.074   4.416  0.0347 -2.3874 -0.3187
30554SOL    HW292241   3.068   0.158   4.538  1.8466  1.3033 -2.2344
30555SOL     OW92242   5.290   0.886   1.308  0.0021 -0.1299 -0.3568
30555SOL    HW192243   5.235   0.860   1.234 -0.2488  0.5337 -0.4122
30555SOL    HW292244   5.301   0.807   1.359 -1.3014 -0.1991 -0.1477
30556SOL     OW92245   7.865   8.746   2.984 -0.3899 -0.0769  0.3085
30556SOL    HW192246   7.905   8.695   2.914 -2.3341  0.2235 -1.0921
30556SOL    HW292247   7.847   8.683   3.053  0.0192 -0.6906 -0.1365
30557SOL     OW92248   5.853   8.319   6.417  0.3839  0.7590  0.2106
30557SOL    HW192249   5.791   8.259   6.375 -0.9148  2.5505 -0.5509
30557SOL    HW292250   5.854   8.292   6.509  0.0234 -0.5525 -0.1482
30558SOL     OW92251   0.402   1.186   5.954 -0.4534  0.0745  0.5484
30558SOL    HW192252   0.430   1.119   5.892 -1.0410  1.0335 -0.7931
30558SOL    HW292253   0.447   1.163   6.036  1.7537 -0.1966 -0.6853
30559SOL     OW92254   6.283   6.083   1.414  0.1590 -0.4828  0.8539
30559SOL    HW192255   6.357   6.096   1.474 -0.4561 -0.1963  1.5674
30559SOL    HW292256   6.283   6.162   1.359  0.5678 -0.6234  0.6518
30560SOL     OW92257   7.928   6.553   8.018  0.3425 -0.0027  0.0644
30560SOL    HW192258   7.939   6.623   7.954 -0.3704 -0.9434 -1.1237
30560SOL    HW292259   8.011   6.552   8.066 -0.4013  3.1410  1.7243
30561SOL     OW92260   2.476   0.892   4.671 -0.4109 -0.0255  0.5514
30561SOL    HW192261   2.471   0.986   4.656  0.9404  0.3128  1.9366
30561SOL    HW292262   2.570   0.871   4.663 -0.1388 -0.5453  3.6898
30562SOL     OW92263   3.113   0.665   6.749  0.0264 -0.0914  0.0813
30562SOL    HW192264   3.167   0.663   6.828  0.6886 -1.8014 -0.3847
30562SOL    HW292265   3.054   0.591   6.759 -0.5699  0.2832 -0.5892
30563SOL     OW92266   6.479   8.390   8.424  0.2485  0.2703  0.2646
30563SOL    HW192267   6.523   8.333   8.487  0.0027  0.0245  0.2140
30563SOL    HW292268   6.387   8.388   8.448  0.4706  2.3295  1.5949
30564SOL     OW92269   0.245   6.493   9.348  0.6103  0.3385 -0.8095
30564SOL    HW192270   0.256   6.585   9.374 -2.4439  1.4653 -2.8916
30564SOL    HW292271   0.204   6.452   9.424  2.9303  0.3306  0.5313
30565SOL     OW92272   0.224   0.171   1.493  0.6415  0.0227 -0.3691
30565SOL    HW192273   0.255   0.260   1.475 -0.9620  0.5901 -0.5696
30565SOL    HW292274   0.207   0.134   1.407  0.8407 -0.2939 -0.2707
30566SOL     OW92275   8.112   4.558   4.844  1.0453  0.0042  0.0853
30566SOL    HW192276   8.045   4.521   4.787  0.1158 -0.3636  1.3769
30566SOL    HW292277   8.191   4.507   4.824  0.3887 -1.0486  0.1058
30567SOL     OW92278   6.652   0.769   8.721  0.0166 -0.8178 -0.0476
30567SOL    HW192279   6.569   0.776   8.674  1.6126  0.1912 -3.0270
30567SOL    HW292280   6.686   0.683   8.696 -0.2793 -1.4064  1.4980
30568SOL     OW92281   5.407   9.832   3.357 -0.0222 -0.0419 -0.0427
30568SOL    HW192282   5.331   9.779   3.385  1.1281 -0.3208  2.9350
30568SOL    HW292283   5.393   9.917   3.399  0.0377  0.8021 -1.6799
30569SOL     OW92284   1.430   8.278   7.019 -0.0195  0.0534 -0.3111
30569SOL    HW192285   1.360   8.299   7.080 -1.2700  1.0521 -1.9838
30569SOL    HW292286   1.463   8.363   6.990 -0.7848 -0.2927 -2.4093
30570SOL     OW92287   1.768   1.744   9.265  0.9335 -0.3301  0.2973
30570SOL    HW192288   1.702   1.691   9.220  0.8339  1.3579 -1.6734
30570SOL    HW292289   1.850   1.720   9.223  1.0774  0.0760  0.3434
30571SOL     OW92290   6.993   1.593   7.421  0.0160  0.8141 -0.5794
30571SOL    HW192291   7.059   1.610   7.488  0.8587 -0.7763 -0.9659
30571SOL    HW292292   6.909   1.607   7.466  0.5580 -0.2953  0.8687
30572SOL     OW92293   4.928   8.948   8.184  0.5970 -0.2321 -1.2089
30572SOL    HW192294   5.004   8.998   8.154  0.3212 -1.1642 -3.7488
30572SOL    HW292295   4.853   9.001   8.157  0.3152 -0.1557 -0.3047
30573SOL     OW92296   5.905   0.658   3.491 -0.4007 -0.2430 -0.4393
30573SOL    HW192297   5.851   0.690   3.418  0.0410 -0.3785 -0.8321
30573SOL    HW292298   5.956   0.734   3.519  0.2362 -0.4469 -1.0037
30574SOL     OW92299   9.804   2.129   0.993  0.2023  0.0538 -0.4621
30574SOL    HW192300   9.838   2.195   1.053 -0.1426 -0.2039  0.0303
30574SOL    HW292301   9.861   2.133   0.917  0.6187  0.4196 -0.1330
30575SOL     OW92302   1.740   2.044   0.169  0.7662 -0.1434 -0.1567
30575SOL    HW192303   1.657   2.036   0.217  0.7810 -1.4286 -0.3137
30575SOL    HW292304   1.714   2.045   0.077  0.8417  0.8680 -0.1796
30576SOL     OW92305   5.311   1.575   3.295 -0.0416  0.1689  0.3528
30576SOL    HW192306   5.337   1.645   3.355 -0.3904  1.6780 -1.1853
30576SOL    HW292307   5.387   1.564   3.237 -0.6408  0.5005 -0.5026
30577SOL     OW92308   5.969   5.678   9.520  0.0438 -0.4477 -0.3554
30577SOL    HW192309   5.952   5.623   9.443  1.5070  1.1720 -1.9251
30577SOL    HW292310   6.059   5.708   9.509  0.2788 -0.0971  1.9977
30578SOL     OW92311   1.515   1.118   6.923  0.1471 -0.0279  0.4157
30578SOL    HW192312   1.460   1.080   6.853  0.0045  0.4096  0.2893
30578SOL    HW292313   1.510   1.212   6.908  2.8587 -0.0159 -1.0950
30579SOL     OW92314   5.876   0.353   7.550 -0.4340 -0.5554 -0.5435
30579SOL    HW192315   5.814   0.285   7.575  0.5391 -1.3425 -0.2049
30579SOL    HW292316   5.955   0.305   7.524  0.3197  0.4475 -0.1555
30580SOL     OW92317   9.778   9.828   6.147  0.4478  0.5973 -0.0806
30580SOL    HW192318   9.799   9.908   6.195  0.6551  0.5987 -0.1706
30580SOL    HW292319   9.806   9.757   6.204 -0.3310  0.5725  0.2784
30581SOL     OW92320   1.231   9.709   9.638 -0.4973  0.4740 -0.0558
30581SOL    HW192321   1.259   9.617   9.642  1.0476  0.9402  0.5507
30581SOL    HW292322   1.135   9.705   9.643 -0.4348 -1.0720  0.5122
30582SOL     OW92323   6.841   7.543   2.309 -0.1268 -0.0193 -0.6045
30582SOL    HW192324   6.912   7.607   2.304  0.4181 -0.5518  0.1291
30582SOL    HW292325   6.861   7.478   2.242  0.7917 -0.8585  0.4575
30583SOL     OW92326   1.289   4.558   4.586 -0.5458 -0.1250  0.6408
30583SOL    HW192327   1.311   4.468   4.613  0.2973  0.4193  1.8615
30583SOL    HW292328   1.291   4.608   4.667 -0.4839  1.1071 -0.1050
30584SOL     OW92329   6.647   0.954   3.646  0.5050 -0.3409  0.4769
30584SOL    HW192330   6.716   0.968   3.710  1.2339 -1.0565 -0.1359
30584SOL    HW292331   6.604   0.873   3.673 -1.0177  0.8008  1.6447
30585SOL     OW92332   1.557   4.672   4.042 -0.4822  0.2886 -0.2696
30585SOL    HW192333   1.638   4.625   4.062 -0.2090  0.9312  0.1841
30585SOL    HW292334   1.581   4.732   3.972 -0.4206  0.8528  0.2251
30586SOL     OW92335   3.073   9.602   7.760  0.1863 -0.4264 -0.7503
30586SOL    HW192336   3.094   9.694   7.779  0.2364 -0.5711 -0.0717
30586SOL    HW292337   3.122   9.582   7.680  1.9723 -0.5015  0.3081
30587SOL     OW92338   8.362   5.975   1.993  0.2603 -0.2886  0.5872
30587SOL    HW192339   8.396   5.888   2.015  0.6735 -0.3789 -0.3650
30587SOL    HW292340   8.362   6.022   2.076 -1.1314 -1.5762  1.3554
30588SOL     OW92341   2.588   5.600   1.126  0.0700  0.4551  0.5112
30588SOL    HW192342   2.637   5.584   1.207  1.1699  1.2178  0.0241
30588SOL    HW292343   2.522   5.531   1.124 -0.1886  0.6192  2.2095
30589SOL     OW92344   7.599   3.251   0.114 -0.6830  0.0846 -0.1561
30589SOL    HW192345   7.615   3.166   0.072 -2.6252 -1.3582  1.7641
30589SOL    HW292346   7.520   3.237   0.165 -1.1825  3.1775  0.0782
30590SOL     OW92347   4.735   6.050   5.032  0.4594  0.1753 -0.2425
30590SOL    HW192348   4.801   6.115   5.053  1.6391 -1.2624  0.6196
30590SOL    HW292349   4.768   6.006   4.953  0.0172  0.1273 -0.4073
30591SOL     OW92350   3.143   4.765   9.529 -0.0714 -0.4953 -0.6010
30591SOL    HW192351   3.220   4.712   9.549  0.6135  0.3461 -0.9358
30591SOL    HW292352   3.070   4.716   9.566  0.7281 -0.8277  0.6083
30592SOL     OW92353   1.421   5.929   8.152 -0.0181  0.1009  0.2652
30592SOL    HW192354   1.393   6.018   8.132  0.4770  0.2612  0.2746
30592SOL    HW292355   1.416   5.922   8.247  0.6929  0.3770  0.3285
30593SOL     OW92356   0.729   9.812   9.136  0.1093 -0.6329  0.8350
30593SOL    HW192357   0.782   9.750   9.186 -0.6610 -2.2117 -0.2227
30593SOL    HW292358   0.729   9.777   9.047  0.6275  1.5731 -0.0923
30594SOL     OW92359   1.945   2.720   2.538  0.3514 -0.2741 -0.5836
30594SOL    HW192360   1.974   2.708   2.628  4.7285  2.5784 -1.3105
30594SOL    HW292361   1.892   2.799   2.540 -1.4425 -1.4197 -0.3307
30595SOL     OW92362   6.689   4.375   4.613 -0.0377 -0.0881 -0.4923
30595SOL    HW192363   6.598   4.345   4.621 -0.4136  1.3359  1.1880
30595SOL    HW292364   6.681   4.468   4.589  0.9775  0.0327 -0.3779
30596SOL     OW92365   9.525   9.117   2.617  0.0017  0.4916  0.3885
30596SOL    HW192366   9.614   9.080   2.623  0.2362  1.1425  1.1982
30596SOL    HW292367   9.470   9.055   2.665  0.2552  0.7360  1.0184
30597SOL     OW92368   6.999   5.598   1.181  0.0668 -0.8868 -0.2903
30597SOL    HW192369   6.990   5.563   1.269 -1.9872 -0.7391 -0.3833
30597SOL    HW292370   6.969   5.689   1.187  2.9342  0.1708 -0.5557
30598SOL     OW92371   9.996   2.328   7.126 -0.2834  0.4819 -0.1939
30598SOL    HW192372   9.979   2.239   7.094 -1.1569  0.0789  1.3130
30598SOL    HW292373   9.939   2.384   7.073 -0.4853  0.0237 -0.4625
30599SOL     OW92374   4.096   3.954   7.151  0.7564 -0.2719 -0.2466
30599SOL    HW192375   4.056   3.958   7.064 -0.1834  1.9589  0.2143
30599SOL    HW292376   4.161   4.024   7.151  0.2345  0.2520  1.0738
30600SOL     OW92377   9.142   9.855   8.645 -0.2776  0.7191  0.5228
30600SOL    HW192378   9.140   9.807   8.728  0.0949 -0.9382 -0.3709
30600SOL    HW292379   9.225   9.902   8.646  0.7660 -1.0217  0.2270
30601SOL     OW92380   6.018   0.717   5.005  0.4710  0.4551 -0.2137
30601SOL    HW192381   5.982   0.754   4.924  2.3699  0.3602 -1.1672
30601SOL    HW292382   6.057   0.792   5.050 -1.2783  0.6522  1.0693
30602SOL     OW92383   1.964   2.180   2.084  0.2093  0.2804  0.0826
30602SOL    HW192384   2.053   2.148   2.066  0.1107 -0.2502  0.5327
30602SOL    HW292385   1.956   2.175   2.179 -1.3219 -2.4095 -0.1107
30603SOL     OW92386   4.555   8.712   3.395 -0.4394 -0.0647 -0.1817
30603SOL    HW192387   4.614   8.785   3.413 -0.1373 -0.9864  3.2685
30603SOL    HW292388   4.610   8.648   3.350  0.1294  0.5519 -0.3821
30604SOL     OW92389   5.996   0.048   8.794  0.6320  0.4335 -0.4262
30604SOL    HW192390   5.932   0.096   8.846  0.6850 -1.0924  1.1515
30604SOL    HW292391   5.993   0.089   8.707 -0.8047  1.8616  0.2501
30605SOL     OW92392   3.925   6.665   4.766 -0.2847  0.6442 -0.4789
30605SOL    HW192393   3.929   6.745   4.818  0.3941  1.3825 -1.6349
30605SOL    HW292394   3.997   6.673   4.703 -1.2404 -0.1009 -1.7065
30606SOL     OW92395   0.918   4.467   5.028 -0.3753  0.1374  0.4914
30606SOL    HW192396   0.863   4.456   5.106  1.5913 -1.5466  1.7339
30606SOL    HW292397   0.942   4.560   5.029 -2.8539  0.8743  0.0560
30607SOL     OW92398   4.131   6.311   4.428  0.2328 -0.3538 -0.5380
30607SOL    HW192399   4.160   6.272   4.511  0.0619  1.5486  0.4702
30607SOL    HW292400   4.208   6.359   4.397 -0.4132  0.8668 -0.2664
30608SOL     OW92401   0.508   1.972   7.344  0.9055  0.0315  0.0009
30608SOL    HW192402   0.522   1.974   7.249 -0.5657  0.0407 -0.2362
30608SOL    HW292403   0.547   1.889   7.372 -0.3193 -0.9016 -0.9267
30609SOL     OW92404   6.195   7.942   2.119  0.1652  0.0254  0.0015
30609SOL    HW192405   6.159   8.015   2.069 -1.2842 -2.2268 -2.4610
30609SOL    HW292406   6.189   7.971   2.211 -0.1845  3.0020 -0.8563
30610SOL     OW92407   8.117   8.657   8.175  0.6487  0.0196  0.0165
30610SOL    HW192408   8.208   8.628   8.179  0.8537  0.8044  1.8689
30610SOL    HW292409   8.120   8.735   8.119  1.1927  0.3010  0.4325
30611SOL     OW92410   4.613   4.414   7.996  0.2548 -0.2332 -0.2179
30611SOL    HW192411   4.574   4.501   8.002  0.8980 -0.0438  1.8245
30611SOL    HW292412   4.582   4.368   8.074  1.8597 -0.9848  0.0213
30612SOL     OW92413   9.635   8.959   0.242  0.2579 -0.3372 -0.3959
30612SOL    HW192414   9.696   8.971   0.169  0.7822 -1.3171 -0.1429
30612SOL    HW292415   9.551   8.940   0.200  0.6308 -1.2442 -0.7738
30613SOL     OW92416   5.388   2.935   3.105 -0.1773 -0.0140  0.1028
30613SOL    HW192417   5.351   2.889   3.029 -0.3644 -0.3790  0.4118
30613SOL    HW292418   5.469   2.975   3.071 -0.1238 -0.3931 -0.2254
30614SOL     OW92419   2.720   9.644   9.750 -0.4541  0.0372 -0.0167
30614SOL    HW192420   2.720   9.633   9.655  0.7120  0.1931 -0.0522
30614SOL    HW292421   2.781   9.716   9.766 -1.0215  0.3443  0.8230
30615SOL     OW92422   7.284   5.773   8.146  0.0581 -0.3950  0.1779
30615SOL    HW192423   7.344   5.708   8.184  1.9442  1.1990  0.1240
30615SOL    HW292424   7.213   5.722   8.108  2.8166 -2.6847 -2.3710
30616SOL     OW92425   1.810   4.753   7.417 -0.1311 -0.2115  0.6274
30616SOL    HW192426   1.804   4.684   7.351 -1.4405  2.6380 -2.5476
30616SOL    HW292427   1.890   4.733   7.466  1.6196 -1.9449 -2.6001
30617SOL     OW92428   9.749   6.223   1.158 -0.2477  0.4519 -0.2778
30617SOL    HW192429   9.669   6.187   1.120  0.1752 -0.3940 -0.3935
30617SOL    HW292430   9.766   6.168   1.235 -0.8263  1.8431  0.8896
30618SOL     OW92431   7.833   0.637   1.366 -0.2638 -0.1968  0.0847
30618SOL    HW192432   7.925   0.623   1.390 -0.4593 -1.0891  0.3319
30618SOL    HW292433   7.784   0.622   1.447 -0.7092 -0.6779 -0.2684
30619SOL     OW92434   4.791   9.498   7.884  0.1540  0.0703 -0.6094
30619SOL    HW192435   4.766   9.586   7.912 -1.6382 -0.7463  0.5235
30619SOL    HW292436   4.709   9.456   7.860  1.0937 -0.9847 -2.1321
30620SOL     OW92437   9.359   5.277   3.381  0.8395 -0.3582 -0.2197
30620SOL    HW192438   9.285   5.325   3.418  0.7464 -0.6680 -0.0030
30620SOL    HW292439   9.402   5.237   3.457  1.2367 -0.1722 -0.3411
30621SOL     OW92440   2.179   3.141   1.370  0.2199 -0.3213 -0.6633
30621SOL    HW192441   2.150   3.052   1.389  0.6631 -0.6420 -1.4643
30621SOL    HW292442   2.174   3.186   1.454  0.1554 -1.1440 -0.2186
30622SOL     OW92443   6.720   0.978   4.280 -0.3284 -0.0515 -0.3605
30622SOL    HW192444   6.714   0.937   4.367  2.1803  1.0475  0.4214
30622SOL    HW292445   6.723   1.072   4.298 -1.3027  0.2851 -1.7849
30623SOL     OW92446   4.765   3.724   6.671 -0.0864  0.6955 -0.4310
30623SOL    HW192447   4.759   3.816   6.697  2.1157  0.9660 -0.7050
30623SOL    HW292448   4.712   3.719   6.591  1.2421  2.1991 -1.4808
30624SOL     OW92449   5.110   3.750   3.843 -0.4176  0.2828  0.5450
30624SOL    HW192450   5.110   3.822   3.906 -0.6053  1.4760 -0.7732
30624SOL    HW292451   5.193   3.705   3.859 -1.1130 -0.3926  2.6366
30625SOL     OW92452   4.099   4.680   9.169 -0.1835 -0.3976  0.3836
30625SOL    HW192453   4.062   4.642   9.089  1.1224 -0.0620 -0.4097
30625SOL    HW292454   4.173   4.733   9.138  1.3016 -1.4812  1.9384
30626SOL     OW92455   8.577   2.735   2.841 -0.2556 -0.1446  0.1400
30626SOL    HW192456   8.606   2.670   2.777 -0.4816 -1.7318  1.5696
30626SOL    HW292457   8.629   2.813   2.821 -0.1166 -0.6606 -1.7672
30627SOL     OW92458   4.880   5.958   9.587 -0.2496 -0.0036 -0.2010
30627SOL    HW192459   4.911   6.014   9.516 -0.0126  0.3639  0.1947
30627SOL    HW292460   4.855   6.018   9.657  0.5578 -0.4038  0.4516
30628SOL     OW92461   2.003   7.461   0.297 -0.2451 -0.1369 -0.1629
30628SOL    HW192462   1.975   7.423   0.380 -0.9952  0.2430 -0.2393
30628SOL    HW292463   2.096   7.437   0.290 -0.4749 -1.1938  0.2108
30629SOL     OW92464   4.825   7.134   6.885 -0.2548  0.7752 -0.7355
30629SOL    HW192465   4.772   7.055   6.873  1.5482 -0.6701  0.3276
30629SOL    HW292466   4.877   7.140   6.804 -1.3835  1.7411 -1.4315
30630SOL     OW92467   8.795   4.283   9.943 -0.0587  0.3612 -0.3865
30630SOL    HW192468   8.754   4.225  10.007  0.7370 -0.0584 -0.2454
30630SOL    HW292469   8.794   4.234   9.861 -0.0951  0.4621 -0.4472
30631SOL     OW92470   1.016   7.827   2.991  0.0479  0.3775 -0.2627
30631SOL    HW192471   1.025   7.739   3.028 -0.6241  0.2345 -0.4108
30631SOL    HW292472   0.997   7.883   3.066  1.4200  0.5681 -0.0428
30632SOL     OW92473   4.429   1.948   4.368 -0.4263 -0.6041  0.0792
30632SOL    HW192474   4.343   1.973   4.402  0.2789 -0.4171  1.8048
30632SOL    HW292475   4.481   2.028   4.370  0.8428 -1.4003  2.5031
30633SOL     OW92476   9.686   9.892   9.729 -0.4433  0.1402 -0.5806
30633SOL    HW192477   9.746   9.929   9.664 -0.0989 -0.2638 -0.4959
30633SOL    HW292478   9.628   9.835   9.678 -0.2233 -0.1148 -0.5486
30634SOL     OW92479   6.769   7.015   1.912  0.4794 -0.5436  0.3667
30634SOL    HW192480   6.742   7.053   1.995  1.1620 -1.4609  1.0352
30634SOL    HW292481   6.690   6.974   1.877  0.2982 -0.5747  0.8056
30635SOL     OW92482   4.274   9.491   3.443  0.5318 -0.6207 -0.1259
30635SOL    HW192483   4.179   9.484   3.455  0.5018  0.9925  0.7663
30635SOL    HW292484   4.310   9.432   3.510  0.1770 -1.2199 -0.4490
30636SOL     OW92485   6.278   1.983   1.922  0.4129 -0.0692 -0.2008
30636SOL    HW192486   6.290   2.075   1.948  0.4625  0.5824 -2.3525
30636SOL    HW292487   6.298   1.933   2.001  1.7380  1.7071  0.6582
30637SOL     OW92488   7.272   7.454   1.312  0.4057  0.1748 -0.1107
30637SOL    HW192489   7.291   7.522   1.248  0.8619 -0.9668 -1.2283
30637SOL    HW292490   7.353   7.403   1.318  0.7150  0.7989  2.1132
30638SOL     OW92491   1.271   0.723   1.090  0.3503  0.3675  0.4564
30638SOL    HW192492   1.207   0.745   1.159  0.1843 -1.2213  0.8376
30638SOL    HW292493   1.308   0.808   1.065 -0.0007  1.0533  2.1005
30639SOL     OW92494   5.172   3.640   6.982  0.9145  0.5746 -0.1322
30639SOL    HW192495   5.246   3.598   7.027 -0.3824 -1.0960  0.5311
30639SOL    HW292496   5.096   3.586   7.005 -0.2417  1.2212 -2.1934
30640SOL     OW92497   9.579   3.532   7.679 -0.0512  0.3904  0.6276
30640SOL    HW192498   9.629   3.484   7.745  1.4999  0.3807 -0.5001
30640SOL    HW292499   9.614   3.621   7.682  0.4288  0.2575 -0.5407
30641SOL     OW92500   4.783   6.644   2.474 -0.0623 -0.2836  0.2182
30641SOL    HW192501   4.708   6.704   2.483 -0.6075 -0.8243 -0.6083
30641SOL    HW292502   4.790   6.601   2.559 -0.2994  0.2236  0.4978
30642SOL     OW92503   0.779   2.422   3.369  0.1585  0.1628 -0.6890
30642SOL    HW192504   0.747   2.334   3.387 -1.3586  0.6362 -0.8780
30642SOL    HW292505   0.809   2.454   3.454  1.3423 -0.7507 -0.7421
30643SOL     OW92506   5.840   5.473   3.714  0.7840  0.4618 -0.3883
30643SOL    HW192507   5.864   5.560   3.683  0.6756  0.7423  0.2931
30643SOL    HW292508   5.907   5.452   3.780  2.0213 -0.8356 -1.9520
30644SOL     OW92509   4.794   5.167   9.929 -0.6248  0.2937  0.1487
30644SOL    HW192510   4.865   5.107   9.953 -0.7697 -0.8231 -2.0069
30644SOL    HW292511   4.716   5.131   9.972 -0.1023  0.9762  1.7281
30645SOL     OW92512   0.373   5.928   7.135  0.0836  0.2145  0.0143
30645SOL    HW192513   0.298   5.954   7.081 -0.0157 -1.1169 -0.5265
30645SOL    HW292514   0.414   6.011   7.161 -0.8739  0.9251 -0.6764
30646SOL     OW92515   0.147   5.870   4.689  0.3580  0.1825  0.3969
30646SOL    HW192516   0.065   5.828   4.662  0.0204  0.4161  1.0527
30646SOL    HW292517   0.130   5.963   4.679  1.1170  0.1934 -1.0851
30647SOL     OW92518   6.576   8.628   6.721 -0.3149 -0.4435 -0.2384
30647SOL    HW192519   6.494   8.625   6.769 -0.8317 -0.6316 -1.1042
30647SOL    HW292520   6.578   8.546   6.671 -0.5598  0.4381 -1.7421
30648SOL     OW92521   2.122   3.866   3.147 -0.1075  0.3305  0.1854
30648SOL    HW192522   2.102   3.783   3.191  0.9995 -0.7578 -1.2580
30648SOL    HW292523   2.200   3.847   3.095 -0.4243  2.0026 -0.9758
30649SOL     OW92524   5.552   9.852   0.758  0.2318  0.6153 -0.1597
30649SOL    HW192525   5.519   9.933   0.797 -1.6138 -0.5934  0.9589
30649SOL    HW292526   5.502   9.842   0.677 -0.3378  0.0802  0.2472
30650SOL     OW92527   9.692   9.052   7.858 -0.1781 -0.1990 -0.0570
30650SOL    HW192528   9.694   9.143   7.889 -0.8631 -0.5950  1.1862
30650SOL    HW292529   9.624   9.053   7.789 -0.6783  0.0940  0.4304
30651SOL     OW92530   8.626   2.374   2.915  0.0646  0.1082 -0.0570
30651SOL    HW192531   8.666   2.426   2.985  2.2596 -1.4530 -0.0529
30651SOL    HW292532   8.571   2.311   2.961 -0.7019  0.8558  0.0721
30652SOL     OW92533   6.212   6.675   0.364  0.3046 -0.2341 -0.3911
30652SOL    HW192534   6.231   6.636   0.279  0.2406  0.1654 -0.5934
30652SOL    HW292535   6.138   6.734   0.347 -1.6623 -2.3057  0.5165
30653SOL     OW92536   6.087   1.707   5.023  0.2304  0.5492  0.6906
30653SOL    HW192537   6.031   1.680   4.950  0.4829  0.4489  0.5344
30653SOL    HW292538   6.028   1.707   5.098  0.1954 -0.3144  0.6723
30654SOL     OW92539   0.229   5.138   9.812 -0.5948  0.4842  0.1326
30654SOL    HW192540   0.163   5.192   9.767 -1.4922 -0.9443 -0.3253
30654SOL    HW292541   0.281   5.100   9.742  1.2013  2.0996  0.5089
30655SOL     OW92542   4.989   8.012   0.509 -0.5829  0.1973  0.2685
30655SOL    HW192543   4.932   8.010   0.433  0.1257  1.5972 -0.3270
30655SOL    HW292544   4.942   8.065   0.574 -0.0852  1.1910 -0.1544
30656SOL     OW92545   4.504   2.829   1.015  0.3076 -0.1556 -0.6505
30656SOL    HW192546   4.468   2.908   1.055  0.5561  0.1965 -1.1113
30656SOL    HW292547   4.599   2.839   1.023  0.3265 -1.0640  0.5324
30657SOL     OW92548   1.105   3.665   8.439  0.3082 -0.5924 -0.4829
30657SOL    HW192549   1.035   3.729   8.430  1.4719  0.7072 -0.6196
30657SOL    HW292550   1.179   3.703   8.391  1.3501 -1.5393  0.3117
30658SOL     OW92551   7.814   3.390   0.183 -0.2239  0.1625 -0.0516
30658SOL    HW192552   7.780   3.472   0.217 -0.6939 -0.1262  0.1848
30658SOL    HW292553   7.739   3.331   0.181 -0.0091 -0.1006 -0.7412
30659SOL     OW92554   4.846   1.964   2.749  0.1795  0.2147  0.5223
30659SOL    HW192555   4.917   1.947   2.687  0.3325  4.4093 -0.7474
30659SOL    HW292556   4.881   1.938   2.834  2.4082  0.1014 -0.3652
30660SOL     OW92557   8.889   5.518   6.916 -0.1709 -0.2860 -0.0885
30660SOL    HW192558   8.795   5.534   6.922 -0.0947 -0.3713  1.9821
30660SOL    HW292559   8.897   5.422   6.919 -0.0189 -0.2880 -0.5030
30661SOL     OW92560   5.229   4.353   4.518 -0.2921  0.8038  0.7746
30661SOL    HW192561   5.285   4.283   4.485 -1.8430  0.9280 -2.5012
30661SOL    HW292562   5.225   4.339   4.612  0.0209 -3.1138  0.3365
30662SOL     OW92563   7.525   0.518   8.465 -0.0164 -0.1794 -0.0768
30662SOL    HW192564   7.552   0.584   8.401  1.4208 -0.6279  0.0427
30662SOL    HW292565   7.552   0.434   8.427  1.3282 -0.4215  1.2996
30663SOL     OW92566   1.427   9.365   5.753  0.3934 -0.5687  0.1727
30663SOL    HW192567   1.402   9.452   5.721 -2.6311 -1.0674  0.8388
30663SOL    HW292568   1.410   9.307   5.678 -1.2051 -1.0071  0.8373
30664SOL     OW92569   2.988   2.138   3.939 -0.0322  0.2614 -0.3743
30664SOL    HW192570   2.985   2.069   4.004 -1.5471  0.0348 -0.6544
30664SOL    HW292571   2.913   2.194   3.959  0.2012  0.8894 -1.1746
30665SOL     OW92572   3.161   7.965   3.171  0.0173 -0.4115  0.3867
30665SOL    HW192573   3.131   7.925   3.252 -0.7034 -0.3928  0.1340
30665SOL    HW292574   3.081   7.987   3.123  0.4301 -0.7785 -0.5021
30666SOL     OW92575   3.550   9.588   0.801 -0.0166  0.2156  0.3940
30666SOL    HW192576   3.559   9.527   0.727  1.8827  0.3252  0.5032
30666SOL    HW292577   3.522   9.532   0.874 -0.3527 -0.1519 -0.0025
30667SOL     OW92578   9.031   0.084   8.085  1.0013 -0.6463  0.0849
30667SOL    HW192579   9.077   0.051   8.162  0.3644 -2.3512 -0.2263
30667SOL    HW292580   9.096   0.082   8.015  1.6377  1.0911  0.5692
30668SOL     OW92581   2.977   2.227   8.796 -0.0439  0.0234  0.0607
30668SOL    HW192582   3.013   2.304   8.839 -0.8398 -0.1823  1.1423
30668SOL    HW292583   2.898   2.258   8.752 -1.0200 -0.3634  1.4765
30669SOL     OW92584   6.081   4.292   0.711 -0.2273  0.2240 -0.3116
30669SOL    HW192585   6.004   4.253   0.752  0.5758 -0.8284  0.2497
30669SOL    HW292586   6.146   4.221   0.710  0.6005  0.9662 -1.1444
30670SOL     OW92587   1.099   1.495   9.071  0.1386 -0.2389  0.4716
30670SOL    HW192588   1.141   1.514   8.987 -0.6078 -0.4246  0.0464
30670SOL    HW292589   1.122   1.569   9.126  1.1600 -0.4173  0.3048
30671SOL     OW92590   8.982   9.753   1.679 -0.2835  0.4923 -0.2126
30671SOL    HW192591   9.028   9.834   1.702  0.0071  0.3165 -0.1761
30671SOL    HW292592   9.031   9.684   1.724 -1.7656  0.4942  1.4959
30672SOL     OW92593   4.772   6.556   2.731 -0.0380 -0.2783 -0.7150
30672SOL    HW192594   4.732   6.470   2.728 -0.8201  0.0895 -1.1921
30672SOL    HW292595   4.713   6.609   2.785  0.7797 -0.2014  0.1347
30673SOL     OW92596   4.116   2.670   9.133 -0.0263  0.1739  0.0040
30673SOL    HW192597   4.145   2.712   9.213 -1.0620  0.5650  0.1959
30673SOL    HW292598   4.021   2.680   9.134 -0.0666  0.1226 -1.2324
30674SOL     OW92599   7.390   0.542   5.129  0.1749 -0.3682 -0.0828
30674SOL    HW192600   7.339   0.539   5.048 -0.2310 -0.4122  0.1713
30674SOL    HW292601   7.413   0.634   5.140  2.4859 -0.6930 -1.6282
30675SOL     OW92602   0.758   7.837   1.560  0.0482 -0.3754  0.6128
30675SOL    HW192603   0.807   7.902   1.510  0.8814  0.2479  2.1812
30675SOL    HW292604   0.801   7.754   1.540 -0.7959 -0.4545 -1.1181
30676SOL     OW92605   5.505   7.559   1.683 -0.1990 -0.6735 -0.4548
30676SOL    HW192606   5.552   7.634   1.718 -0.8551 -1.2624  1.8944
30676SOL    HW292607   5.434   7.597   1.630 -0.1101  0.3419  0.1302
30677SOL     OW92608   8.530   3.584   0.832 -0.2973 -0.7953 -0.0658
30677SOL    HW192609   8.531   3.622   0.745 -2.0715  1.2946  0.7227
30677SOL    HW292610   8.615   3.608   0.870 -0.4067  0.2755 -0.4574
30678SOL     OW92611   7.376   6.725   2.308  0.2214  0.0271  0.1644
30678SOL    HW192612   7.361   6.804   2.360 -1.5204  0.5749 -1.0964
30678SOL    HW292613   7.442   6.751   2.244 -1.8914  1.2080 -1.6536
30679SOL     OW92614   3.155   6.730   4.278 -0.4871 -0.4382 -0.3748
30679SOL    HW192615   3.174   6.710   4.186 -2.4960  0.3770 -0.9978
30679SOL    HW292616   3.103   6.810   4.276 -1.4447 -0.9587  1.4041
30680SOL     OW92617   9.410   5.852   2.733  0.2507  0.4870 -0.7052
30680SOL    HW192618   9.380   5.922   2.675  1.1745  0.9528 -0.6409
30680SOL    HW292619   9.505   5.863   2.737  0.6420 -1.7189 -1.9400
30681SOL     OW92620   2.614   9.246   3.636  0.0134 -0.0726 -0.0065
30681SOL    HW192621   2.584   9.209   3.553 -0.3827 -2.3486  1.0721
30681SOL    HW292622   2.643   9.170   3.687  1.0330  1.3412  1.6494
30682SOL     OW92623   4.172   8.103   2.649  0.8240  0.0440  0.2803
30682SOL    HW192624   4.189   8.061   2.734 -1.1052 -1.1666  0.1285
30682SOL    HW292625   4.257   8.105   2.605  1.4395 -1.3909  1.3343
30683SOL     OW92626   0.480   2.174   8.042  0.8596  0.3897  0.0766
30683SOL    HW192627   0.408   2.111   8.040  1.4320 -0.2481 -1.5921
30683SOL    HW292628   0.439   2.257   8.020  0.5463  0.1114 -0.4174
30684SOL     OW92629   6.744   5.629   3.333 -0.3344 -0.1703  0.1644
30684SOL    HW192630   6.670   5.570   3.352 -0.4460  1.0293  4.6143
30684SOL    HW292631   6.822   5.576   3.350 -0.3732  0.1064  1.2900
30685SOL     OW92632   2.719   9.003   0.714 -0.2392 -0.1902 -0.3410
30685SOL    HW192633   2.731   9.097   0.713  1.8390 -0.4029  0.8614
30685SOL    HW292634   2.767   8.971   0.638  0.0434 -0.3587 -0.0970
30686SOL     OW92635   6.892   2.584   9.550  0.4676  0.5853  0.1275
30686SOL    HW192636   6.982   2.600   9.579  0.0977  3.5276 -0.0453
30686SOL    HW292637   6.841   2.655   9.589 -1.5730 -0.2775 -0.8108
30687SOL     OW92638   7.397   9.728   2.553  0.4031 -0.5700 -0.1768
30687SOL    HW192639   7.328   9.783   2.514 -0.8998 -0.6797  1.8439
30687SOL    HW292640   7.469   9.732   2.490 -1.5733 -0.7738 -2.6055
30688SOL     OW92641   5.358   1.725   6.496 -0.4466 -0.2941 -0.7508
30688SOL    HW192642   5.322   1.639   6.517 -0.2330  0.1169  1.6158
30688SOL    HW292643   5.453   1.714   6.504 -0.4626  0.4610  1.2642
30689SOL     OW92644   8.472   8.749   6.113 -0.0500 -0.2442  0.6904
30689SOL    HW192645   8.480   8.657   6.087 -1.3581  0.1661 -1.4529
30689SOL    HW292646   8.540   8.762   6.178  0.6490 -2.5452  0.4989
30690SOL     OW92647   7.547   2.221   6.578 -0.4537 -0.0750 -0.6067
30690SOL    HW192648   7.574   2.142   6.532  0.0317 -1.9068  2.4946
30690SOL    HW292649   7.628   2.251   6.622 -1.2182  0.4760  0.4784
30691SOL     OW92650   5.661   8.289   6.978  0.0427  0.0332 -0.0219
30691SOL    HW192651   5.579   8.274   6.930  0.4573  0.2881 -0.8205
30691SOL    HW292652   5.690   8.201   7.003 -0.9369 -0.0101  1.0784
30692SOL     OW92653   1.407   9.651   8.141 -1.1156 -0.3269  0.4061
30692SOL    HW192654   1.459   9.574   8.165  1.1125  0.2103 -2.1632
30692SOL    HW292655   1.430   9.717   8.206 -1.7431 -1.3076  1.6542
30693SOL     OW92656   6.200   4.148   9.435  0.0130 -0.3984 -0.3077
30693SOL    HW192657   6.138   4.085   9.473 -0.9095  0.7540  0.1700
30693SOL    HW292658   6.278   4.097   9.417 -1.3280 -2.1022 -1.6623
30694SOL     OW92659   4.775   7.844   7.764  0.0935 -0.5904 -0.0292
30694SOL    HW192660   4.749   7.898   7.838 -0.0995 -1.4158  0.5181
30694SOL    HW292661   4.698   7.842   7.707 -0.0136 -0.5761  0.1165
30695SOL     OW92662   1.916   3.323   1.603  0.4252 -0.1256  0.2032
30695SOL    HW192663   1.830   3.357   1.578  0.6304  1.4441  1.4463
30695SOL    HW292664   1.970   3.336   1.525  0.6244  3.0800  0.7384
30696SOL     OW92665   5.947   7.980   3.423 -0.4148  0.8114  0.1936
30696SOL    HW192666   5.864   7.980   3.376 -0.7514 -1.0789  0.6873
30696SOL    HW292667   5.930   7.930   3.503  1.5159 -0.9529 -0.3955
30697SOL     OW92668   3.795   7.294   7.551  0.6312  0.2834 -0.0270
30697SOL    HW192669   3.764   7.352   7.481 -0.6744 -0.6049 -0.2290
30697SOL    HW292670   3.726   7.299   7.618  0.4545 -1.0494 -0.0804
30698SOL     OW92671   9.075   7.579   9.515 -0.5226  0.2569 -0.6450
30698SOL    HW192672   9.077   7.543   9.427  0.6919 -0.8989 -0.1783
30698SOL    HW292673   9.015   7.522   9.563  1.1396 -1.0260  0.0073
30699SOL     OW92674   1.007   7.921   0.307 -0.1220  0.5030  0.8558
30699SOL    HW192675   0.996   7.982   0.380 -0.5088  2.8163 -0.9918
30699SOL    HW292676   0.923   7.877   0.299  0.1918 -0.4071  2.2807
30700SOL     OW92677   2.468   2.197   0.256  0.3686 -0.3742  0.1122
30700SOL    HW192678   2.449   2.290   0.273 -0.5641 -0.7535  1.2093
30700SOL    HW292679   2.387   2.151   0.279  1.7573 -1.7886  2.5370
30701SOL     OW92680   0.193   1.619   0.599  0.0340  0.1271 -0.7084
30701SOL    HW192681   0.209   1.606   0.693 -2.0152  1.5364 -0.0996
30701SOL    HW292682   0.257   1.684   0.572  1.2798 -0.9839 -0.5698
30702SOL     OW92683   3.018   0.962   1.412 -0.4509 -0.2384  0.3827
30702SOL    HW192684   2.991   0.870   1.409 -1.7799  0.1391  0.0975
30702SOL    HW292685   3.114   0.959   1.417 -0.5292 -1.6665  2.0788
30703SOL     OW92686   4.236   3.234   6.527  0.0450  0.3566  0.0345
30703SOL    HW192687   4.299   3.271   6.589 -0.2134  1.9926 -0.6363
30703SOL    HW292688   4.284   3.229   6.444 -0.3833  0.6015 -0.2298
30704SOL     OW92689   1.870   5.740   2.312  0.5180  0.3953 -0.3002
30704SOL    HW192690   1.910   5.755   2.397 -1.3010 -1.0735  0.8828
30704SOL    HW292691   1.803   5.808   2.304  1.2948  1.0932 -0.9868
30705SOL     OW92692   3.012   7.498   1.083 -0.0578  0.5766 -0.0236
30705SOL    HW192693   3.067   7.469   1.156  1.7118  1.5348 -0.9069
30705SOL    HW292694   3.026   7.593   1.078  0.2463  0.4806 -1.8639
30706SOL     OW92695   6.861   6.576   6.759 -0.4912 -0.3069  0.1472
30706SOL    HW192696   6.920   6.501   6.748  0.3640  0.3749  0.0101
30706SOL    HW292697   6.862   6.593   6.853 -1.5458 -1.1285  0.3335
30707SOL     OW92698   5.400   1.641   8.183 -0.0150 -0.3161  0.2829
30707SOL    HW192699   5.305   1.655   8.175  0.1715 -0.0385 -2.1113
30707SOL    HW292700   5.410   1.546   8.180 -0.1786 -0.3267  0.0743
30708SOL     OW92701   0.532   8.751   9.558 -0.0768 -0.0914  0.7590
30708SOL    HW192702   0.530   8.657   9.576 -1.3349 -0.1561  0.3420
30708SOL    HW292703   0.551   8.757   9.464 -1.6209  0.0026  0.4273
30709SOL     OW92704   5.544   8.137   7.898 -0.8923 -0.3034 -0.0536
30709SOL    HW192705   5.590   8.133   7.814  0.3995  0.4706  0.5946
30709SOL    HW292706   5.608   8.109   7.962 -0.2530  3.5972  1.2500
30710SOL     OW92707   2.053   0.716   3.525 -0.4533 -0.6233  0.7630
30710SOL    HW192708   2.094   0.671   3.452 -0.2034  2.1941 -0.9690
30710SOL    HW292709   1.966   0.677   3.532  0.4490 -2.7354  0.7458
30711SOL     OW92710   1.892   1.098   6.652  0.0836  0.5346  0.2999
30711SOL    HW192711   1.941   1.117   6.732 -0.1511  0.8542  0.3678
30711SOL    HW292712   1.959   1.085   6.585  0.4701 -2.6084  1.1124
30712SOL     OW92713   0.002   5.523   4.954  0.3251 -0.7331  0.2196
30712SOL    HW192714   0.073   5.495   5.012  0.3485 -2.3336 -0.5403
30712SOL    HW292715   0.001   5.459   4.884 -1.6045 -0.4981 -0.0234
30713SOL     OW92716   1.695   4.590   7.198 -0.6368  0.0422 -0.1255
30713SOL    HW192717   1.725   4.557   7.114 -2.8442 -0.7458 -0.6782
30713SOL    HW292718   1.663   4.512   7.244 -1.8223  0.7980  0.3844
30714SOL     OW92719   3.957   3.781   2.059  0.1382 -0.6225 -0.0962
30714SOL    HW192720   3.951   3.836   1.980 -2.8485  0.1985  0.5946
30714SOL    HW292721   3.892   3.713   2.046  1.1568 -1.8029  0.7491
30715SOL     OW92722   2.674   0.278   8.910 -0.2737 -0.5908  0.0615
30715SOL    HW192723   2.750   0.330   8.937 -0.4352 -0.6189  0.5807
30715SOL    HW292724   2.710   0.211   8.852  0.1200 -0.6773  0.4019
30716SOL     OW92725   6.358   3.551   7.946 -0.1918  0.1277  0.1339
30716SOL    HW192726   6.353   3.643   7.923 -0.8165  0.2800  0.8094
30716SOL    HW292727   6.284   3.511   7.901 -0.4940  0.1452  0.5982
30717SOL     OW92728   4.397   5.080   7.280 -0.6299  0.6699  0.0013
30717SOL    HW192729   4.457   5.039   7.218 -1.6812 -0.3463 -0.3910
30717SOL    HW292730   4.314   5.032   7.268 -0.2112 -1.5138  4.0781
30718SOL     OW92731   7.021   1.504   9.981 -0.2363 -0.3717 -0.3092
30718SOL    HW192732   7.043   1.597   9.972 -0.6861 -0.0949  1.1573
30718SOL    HW292733   6.988   1.479   9.895  0.6790  0.5957 -0.9745
30719SOL     OW92734   3.940   1.214   0.351 -0.0373  0.1032 -0.4405
30719SOL    HW192735   3.941   1.309   0.364 -0.0011  0.2822 -1.6499
30719SOL    HW292736   3.937   1.178   0.439 -3.2076  1.2533  0.0471
30720SOL     OW92737   8.069   5.600   8.169 -0.0396  0.4819  0.5180
30720SOL    HW192738   8.107   5.514   8.155 -0.8235  0.2842 -0.5977
30720SOL    HW292739   8.043   5.601   8.261 -1.5842 -1.1370  0.1410
30721SOL     OW92740   3.219   3.447   4.060 -0.4168 -0.0090 -0.5712
30721SOL    HW192741   3.172   3.502   4.123 -3.1237 -1.2467 -1.3847
30721SOL    HW292742   3.226   3.362   4.102 -0.1119 -0.2047 -1.0051
30722SOL     OW92743   7.825   7.618   0.041  0.4105  0.1067 -0.2223
30722SOL    HW192744   7.778   7.538   0.064 -0.8064  0.2314 -2.0001
30722SOL    HW292745   7.900   7.620   0.099 -0.1660 -1.7154  0.6605
30723SOL     OW92746   2.880   3.747   9.558 -0.5175  0.1055  0.6238
30723SOL    HW192747   2.924   3.690   9.621  0.6588  0.0297 -0.2382
30723SOL    HW292748   2.893   3.835   9.592  1.9412  0.2549 -0.5207
30724SOL     OW92749   8.411   7.803   7.999 -0.5600  0.6655  0.4640
30724SOL    HW192750   8.380   7.794   8.089  1.3800  1.5711  1.2764
30724SOL    HW292751   8.507   7.806   8.007 -0.3786  1.4329 -1.5669
30725SOL     OW92752   3.708   7.501   5.465  0.1452  0.8044  0.4966
30725SOL    HW192753   3.685   7.586   5.501  0.0916  1.6963 -1.5160
30725SOL    HW292754   3.672   7.501   5.377  0.1155 -1.3348  0.4470
30726SOL     OW92755   2.588   2.823   1.454 -0.0134 -0.2398 -0.8623
30726SOL    HW192756   2.578   2.869   1.537  1.1272 -2.2836  0.5151
30726SOL    HW292757   2.500   2.816   1.419 -1.2339 -2.7423  2.2070
30727SOL     OW92758   7.769   9.119   3.769  0.4685 -0.0657  0.0488
30727SOL    HW192759   7.807   9.040   3.729 -0.7314 -1.1672  0.9732
30727SOL    HW292760   7.723   9.162   3.697  0.3804 -0.7117 -0.2957
30728SOL     OW92761   7.048   3.273   3.740  0.2320  0.8237  0.1200
30728SOL    HW192762   7.097   3.233   3.812  0.1443 -0.2156 -0.3897
30728SOL    HW292763   7.115   3.314   3.685  0.3342  1.2463  0.5468
30729SOL     OW92764   9.546   7.117   1.967 -1.0528 -0.5771  0.1203
30729SOL    HW192765   9.498   7.062   1.905 -1.7875  0.4796 -0.2794
30729SOL    HW292766   9.551   7.202   1.925 -0.1241 -0.2642  0.8233
30730SOL     OW92767   9.753   5.924   3.720 -0.1830 -0.3310 -0.0264
30730SOL    HW192768   9.720   5.852   3.666  0.1539 -0.0329 -0.6296
30730SOL    HW292769   9.845   5.903   3.734 -0.1102 -0.0673 -0.1125
30731SOL     OW92770   4.431   9.429   6.007 -0.6339  0.2480 -0.6429
30731SOL    HW192771   4.426   9.433   5.912  1.6593  0.1393 -0.8127
30731SOL    HW292772   4.426   9.521   6.035 -1.5082  0.2670 -0.8254
30732SOL     OW92773   3.463   5.276   7.844  0.1293 -0.1686  0.2499
30732SOL    HW192774   3.555   5.288   7.867 -0.0049 -0.3880  0.9374
30732SOL    HW292775   3.427   5.222   7.915 -0.2576 -1.0898 -0.6238
30733SOL     OW92776   5.380   9.441   6.136  0.2930 -0.2655 -0.2294
30733SOL    HW192777   5.468   9.456   6.171 -0.6120  1.8277  1.4096
30733SOL    HW292778   5.383   9.478   6.048  0.5481  1.8128  0.5916
30734SOL     OW92779   0.631   4.725   1.274 -0.1935 -0.2735  0.2016
30734SOL    HW192780   0.699   4.757   1.334  0.9100 -0.7766 -0.7285
30734SOL    HW292781   0.566   4.684   1.331 -0.0020  0.6930  1.1588
30735SOL     OW92782   1.782   8.428   3.224 -0.3132  0.1572 -0.0060
30735SOL    HW192783   1.824   8.469   3.299  1.2527  0.5922 -1.0546
30735SOL    HW292784   1.788   8.334   3.241  1.1644  0.2086 -0.1203
30736SOL     OW92785   6.954   5.846   8.782  0.0534 -0.7294 -0.2060
30736SOL    HW192786   7.042   5.881   8.771 -1.4225  3.3559 -1.0142
30736SOL    HW292787   6.909   5.869   8.701 -2.0872 -1.4399  0.7059
30737SOL     OW92788   7.014   9.243   6.110  0.8971 -0.5408 -0.9501
30737SOL    HW192789   6.945   9.282   6.164  2.1369 -1.5863  1.5500
30737SOL    HW292790   6.988   9.262   6.020 -1.9822  0.1647 -0.0634
30738SOL     OW92791   7.044   3.128   6.741  0.2270 -0.3357  0.2159
30738SOL    HW192792   7.010   3.184   6.671  4.1050 -0.2455 -1.9243
30738SOL    HW292793   7.072   3.189   6.809  1.1275  0.0758 -0.5038
30739SOL     OW92794   5.565   9.302   5.657  0.1906  0.2664 -0.2668
30739SOL    HW192795   5.637   9.365   5.651  1.2704 -0.9115 -0.0464
30739SOL    HW292796   5.566   9.273   5.748 -1.7048  1.5001  0.1948
30740SOL     OW92797   9.385   3.192   5.530  0.0385 -0.1038  0.1883
30740SOL    HW192798   9.297   3.162   5.509 -0.3025  0.0047  1.3936
30740SOL    HW292799   9.439   3.113   5.523 -0.1751 -0.1924 -0.4529
30741SOL     OW92800   9.996   6.600   3.632  0.2551 -0.0494 -0.3114
30741SOL    HW192801   9.909   6.639   3.640 -0.7528 -2.0385 -1.1073
30741SOL    HW292802  10.012   6.595   3.538  1.0796 -0.0922 -0.1796
30742SOL     OW92803   7.386   3.614   6.922 -0.4124  0.3083 -0.0299
30742SOL    HW192804   7.428   3.536   6.959  1.0624  0.9289 -0.3257
30742SOL    HW292805   7.313   3.632   6.981  1.8778  1.3384  2.7506
30743SOL     OW92806   7.337   5.057   5.314  0.2545  0.2803  0.0860
30743SOL    HW192807   7.328   5.152   5.307 -1.4184  0.1129 -0.7592
30743SOL    HW292808   7.371   5.042   5.402  0.0281  1.6453  0.4296
30744SOL     OW92809   3.307   7.571   0.323 -0.0566  0.3654 -0.2533
30744SOL    HW192810   3.396   7.607   0.326  0.6619 -1.3730  1.9550
30744SOL    HW292811   3.250   7.647   0.313  1.5748  1.7413  0.5175
30745SOL     OW92812   6.786   2.918   9.459  0.1364  0.0389 -0.3483
30745SOL    HW192813   6.804   2.862   9.534  0.0986 -0.8246 -0.9655
30745SOL    HW292814   6.798   3.007   9.492 -0.4988 -0.2869  0.8422
30746SOL     OW92815   6.238   4.923   3.362  0.0049  0.2961  0.3483
30746SOL    HW192816   6.195   4.838   3.354  2.1361 -0.7586 -1.0043
30746SOL    HW292817   6.241   4.957   3.273  0.6158  1.0049  0.6301
30747SOL     OW92818   9.013   4.630   6.341 -0.1479  0.5692  0.7322
30747SOL    HW192819   9.069   4.667   6.410  2.3223 -0.8073 -0.4231
30747SOL    HW292820   9.039   4.676   6.261  1.5154 -2.0729 -0.3458
30748SOL     OW92821   4.343   8.172   6.537 -0.5714 -0.0198 -0.5669
30748SOL    HW192822   4.319   8.170   6.630  2.7931  0.1760  0.4436
30748SOL    HW292823   4.305   8.254   6.504 -0.0446  0.9932  1.2171
30749SOL     OW92824   4.565   1.161   3.781 -0.3436 -0.1046  0.5757
30749SOL    HW192825   4.492   1.103   3.759  0.0986 -1.0009  1.3806
30749SOL    HW292826   4.592   1.199   3.697 -0.8109 -0.8682  0.0700
30750SOL     OW92827   9.705   1.310   5.789 -0.0124  0.3139  0.0871
30750SOL    HW192828   9.776   1.300   5.853 -0.0250  1.1574  0.2554
30750SOL    HW292829   9.748   1.347   5.712 -0.1255  0.0063 -0.1243
30751SOL     OW92830   4.289   4.298   5.579  0.4597 -0.3812 -0.4408
30751SOL    HW192831   4.246   4.214   5.591 -0.6098  0.3778  1.4291
30751SOL    HW292832   4.219   4.357   5.549  1.0051  0.0569 -0.8832
30752SOL     OW92833   5.111   3.365   7.265  0.0778  0.4530  0.2946
30752SOL    HW192834   5.053   3.393   7.195  1.7711  2.4481 -0.3867
30752SOL    HW292835   5.156   3.288   7.230 -0.3790  0.3555 -0.0839
30753SOL     OW92836   9.430   8.275   9.922 -0.5640  0.2883 -0.2720
30753SOL    HW192837   9.407   8.201   9.866 -1.2518  0.0667  0.2834
30753SOL    HW292838   9.396   8.251  10.008  0.5467  0.5759  0.2727
30754SOL     OW92839   6.021   6.841   6.494  0.7326  0.0043 -0.2271
30754SOL    HW192840   6.011   6.849   6.589 -0.6161  0.6985 -0.3996
30754SOL    HW292841   6.078   6.913   6.469  0.7477  0.0741  0.0081
30755SOL     OW92842   2.675   0.533   0.310  1.3612  0.0040  0.0266
30755SOL    HW192843   2.708   0.471   0.375  0.0548  1.2042  1.9359
30755SOL    HW292844   2.677   0.618   0.355 -2.8911  0.3801 -0.0914
30756SOL     OW92845   7.252   7.632   6.249  0.2087  0.0392 -0.3940
30756SOL    HW192846   7.227   7.548   6.212  1.2105 -0.3492 -0.2249
30756SOL    HW292847   7.245   7.620   6.344 -2.6183  1.1155 -0.3571
30757SOL     OW92848   1.997   0.893   1.659  0.5465  0.0682  0.2263
30757SOL    HW192849   2.029   0.816   1.612 -2.6889 -2.4781  1.8591
30757SOL    HW292850   1.913   0.867   1.695 -1.1559  4.6645  0.2721
30758SOL     OW92851   5.097   0.106   2.342  0.7857 -0.6592  0.8838
30758SOL    HW192852   5.004   0.110   2.363  0.8215 -0.5465  1.0238
30758SOL    HW292853   5.139   0.090   2.426  1.0202  0.8441  1.0687
30759SOL     OW92854   1.597   3.131   7.906 -0.2502  0.1206  0.5738
30759SOL    HW192855   1.668   3.190   7.880 -0.6804  0.1120 -0.7022
30759SOL    HW292856   1.518   3.171   7.868 -1.1084  0.6608  2.7755
30760SOL     OW92857   2.172   6.768   2.423 -0.5060 -0.3556  0.2496
30760SOL    HW192858   2.121   6.843   2.453 -0.5515 -0.8198  1.4041
30760SOL    HW292859   2.208   6.795   2.339  1.7191  2.0433  1.8163
30761SOL     OW92860   9.848   4.457   6.031 -0.4892 -0.6312 -0.3843
30761SOL    HW192861   9.838   4.366   6.057 -0.1305 -0.3834  0.6876
30761SOL    HW292862   9.795   4.506   6.093  2.0752  0.1486  1.3429
30762SOL     OW92863   9.263   4.962   7.067 -0.2645  0.0052  0.0114
30762SOL    HW192864   9.247   4.875   7.103  1.3316  0.5232  2.2048
30762SOL    HW292865   9.355   4.959   7.040 -0.1721  1.0280  0.1984
30763SOL     OW92866   7.151   5.070   0.104  0.2393 -0.1482  0.6798
30763SOL    HW192867   7.190   5.014   0.036  0.3613  1.5558 -0.7269
30763SOL    HW292868   7.082   5.016   0.142  0.6140 -1.4050 -0.3357
30764SOL     OW92869   6.133   3.928   7.754  0.4467  0.4282  0.1909
30764SOL    HW192870   6.073   3.877   7.809  0.6093  0.1773  0.1386
30764SOL    HW292871   6.117   4.019   7.779  0.1399  0.3534  0.2713
30765SOL     OW92872   4.104   1.838   6.054 -0.5810  0.0796 -0.0780
30765SOL    HW192873   4.064   1.924   6.058 -0.1584  0.2867 -0.2566
30765SOL    HW292874   4.038   1.779   6.090 -0.2156  0.7057  1.7635
30766SOL     OW92875   2.770   6.743   5.977  0.1130 -0.1292 -0.0442
30766SOL    HW192876   2.732   6.758   6.064 -1.3378 -3.6866  0.0863
30766SOL    HW292877   2.851   6.694   5.995  0.6896  0.5872 -0.6501
30767SOL     OW92878   8.787   6.528   9.397  0.1399 -0.5334  0.4028
30767SOL    HW192879   8.828   6.462   9.342  0.7416  1.4044 -1.6137
30767SOL    HW292880   8.845   6.535   9.473  0.4445 -1.7778  0.3059
30768SOL     OW92881   2.356   1.877   5.917  0.0227  0.0756 -0.2320
30768SOL    HW192882   2.345   1.951   5.858  2.4623 -0.3838 -1.3827
30768SOL    HW292883   2.283   1.884   5.979 -1.3397  1.8523 -1.9388
30769SOL     OW92884   3.345   9.164   0.982  0.4781 -0.7984 -0.5409
30769SOL    HW192885   3.259   9.165   1.025  0.4359  1.4472 -0.5822
30769SOL    HW292886   3.326   9.133   0.893 -0.3810  0.0165 -0.6658
30770SOL     OW92887   2.272   9.412   4.959 -0.0102  0.4330  0.3688
30770SOL    HW192888   2.256   9.319   4.975 -0.7772  0.8563  2.2680
30770SOL    HW292889   2.367   9.420   4.962  0.1542 -0.5053 -1.2739
30771SOL     OW92890   8.613   2.456   1.614 -0.6842 -0.0077  0.6407
30771SOL    HW192891   8.583   2.447   1.705 -1.0840 -0.7972  0.4472
30771SOL    HW292892   8.574   2.538   1.584  1.0225  1.2541  1.7526
30772SOL     OW92893   5.039   4.056   4.316 -0.4846  0.3324 -0.2563
30772SOL    HW192894   5.103   4.028   4.381  1.2011  0.1534 -1.9085
30772SOL    HW292895   5.045   4.151   4.315 -1.1586  0.4011  0.4147
30773SOL     OW92896   2.192   6.321   4.971  0.7516  0.3542  0.2229
30773SOL    HW192897   2.268   6.276   4.934 -0.1832 -0.3677 -0.9157
30773SOL    HW292898   2.166   6.267   5.046 -0.5864 -1.3611 -1.3453
30774SOL     OW92899   1.813   5.591   6.879 -0.0594 -0.6853  0.3562
30774SOL    HW192900   1.797   5.511   6.929 -1.5986  0.1686  1.3164
30774SOL    HW292901   1.823   5.561   6.788 -2.2531 -1.8611  0.4370
30775SOL     OW92902   6.959   1.358   7.980  0.3207 -0.0266 -0.2070
30775SOL    HW192903   7.022   1.320   8.042 -0.1832 -1.7390 -0.6726
30775SOL    HW292904   6.893   1.289   7.969 -0.3518  0.8021 -1.5517
30776SOL     OW92905   7.277   7.265   4.422 -0.0677 -0.1239 -0.0581
30776SOL    HW192906   7.274   7.290   4.514  0.1483 -1.4534  0.3345
30776SOL    HW292907   7.185   7.260   4.395 -0.2059 -1.4396  0.5945
30777SOL     OW92908   8.855   5.045   4.170  0.5507 -0.1235  0.0211
30777SOL    HW192909   8.933   5.080   4.214  0.4382 -1.7646  1.6636
30777SOL    HW292910   8.865   4.950   4.176 -1.2478 -0.3739 -0.3500
30778SOL     OW92911   1.408   4.904   1.781 -0.2626 -0.1992  0.3497
30778SOL    HW192912   1.399   4.852   1.701  3.5606  0.7374 -0.8941
30778SOL    HW292913   1.393   4.994   1.753  0.7454  0.1041  0.7681
30779SOL     OW92914   1.150   3.908   0.535  0.3993 -0.0195 -0.1850
30779SOL    HW192915   1.161   3.853   0.458 -2.5536  0.8739 -1.3549
30779SOL    HW292916   1.162   3.849   0.609  1.4910 -1.2720 -1.3024
30780SOL     OW92917   5.342   5.078   7.935 -0.4208  0.4068 -0.1219
30780SOL    HW192918   5.418   5.029   7.967 -0.9057 -1.3655 -1.5618
30780SOL    HW292919   5.267   5.036   7.979 -0.6875  1.3759  0.3784
30781SOL     OW92920   4.744   1.990   3.765 -0.5242 -0.0276  0.0872
30781SOL    HW192921   4.733   1.988   3.860 -2.2707  0.4496 -0.0744
30781SOL    HW292922   4.669   2.040   3.732 -0.3442 -0.7597 -1.5926
30782SOL     OW92923   7.292   4.713   2.086  0.0046  0.4626 -0.1640
30782SOL    HW192924   7.250   4.636   2.047  0.1845  0.5593 -0.5479
30782SOL    HW292925   7.385   4.690   2.088  0.0391  0.6095 -0.1345
30783SOL     OW92926   9.533   4.288   8.702  0.0546  0.2256 -0.0581
30783SOL    HW192927   9.474   4.362   8.690 -0.0187  0.0026 -1.2359
30783SOL    HW292928   9.608   4.308   8.646 -0.4505 -1.0710 -1.2568
30784SOL     OW92929   4.529   7.914   3.277 -0.0989  0.2782 -0.1556
30784SOL    HW192930   4.451   7.949   3.235 -0.2189 -0.3184 -0.4245
30784SOL    HW292931   4.596   7.982   3.263 -0.3991  0.5118 -0.4588
30785SOL     OW92932   0.731   2.636   7.355 -0.0289 -0.8749  0.5466
30785SOL    HW192933   0.815   2.659   7.394  0.3483 -0.9240 -0.2117
30785SOL    HW292934   0.739   2.665   7.264 -1.6281  1.0954  0.9700
30786SOL     OW92935   1.351   5.195   3.418  0.1749  0.3320 -0.3644
30786SOL    HW192936   1.395   5.112   3.432 -0.6508 -0.1284 -0.4572
30786SOL    HW292937   1.291   5.179   3.345 -0.1757  0.9349 -0.2197
30787SOL     OW92938   9.101   4.383   9.495 -0.1179  0.2396  0.6316
30787SOL    HW192939   9.187   4.422   9.505  0.5472 -0.8452 -0.5455
30787SOL    HW292940   9.069   4.414   9.411 -1.1356  1.0752  1.3075
30788SOL     OW92941   3.397   4.792   8.386  0.1815  0.4085 -0.6582
30788SOL    HW192942   3.329   4.754   8.330 -0.2843  1.2871 -0.7028
30788SOL    HW292943   3.407   4.729   8.457 -0.8682  0.3720 -0.5169
30789SOL     OW92944   8.053   3.751   2.906 -0.3831 -0.1366  0.3055
30789SOL    HW192945   8.012   3.765   2.820 -0.9282 -1.9128  0.2403
30789SOL    HW292946   8.085   3.838   2.931  0.0008  0.3896 -1.7901
30790SOL     OW92947   8.036   8.235   9.625 -0.2556 -0.0522 -0.6095
30790SOL    HW192948   8.033   8.166   9.691 -0.2405  0.6325  0.1163
30790SOL    HW292949   8.021   8.315   9.674  4.2929  1.0659 -0.6284
30791SOL     OW92950   9.711   0.804   1.776 -0.3749  0.3495 -0.1161
30791SOL    HW192951   9.631   0.753   1.760 -0.3908  0.7085 -1.3083
30791SOL    HW292952   9.772   0.775   1.708 -0.0270  1.1584 -0.1687
30792SOL     OW92953   9.772   3.176   0.615  0.2123  0.0406 -0.4323
30792SOL    HW192954   9.765   3.214   0.702  0.3183  4.7989 -2.2089
30792SOL    HW292955   9.694   3.122   0.606 -0.4917  0.4992  2.1111
30793SOL     OW92956   5.083   2.012   8.213  0.2515  0.1910 -0.5444
30793SOL    HW192957   5.147   2.062   8.263  1.1481 -0.0991 -1.3613
30793SOL    HW292958   5.023   2.077   8.177 -0.6468  0.3772  1.1884
30794SOL     OW92959   8.057   8.715   1.025  0.2330 -0.1802 -0.0416
30794SOL    HW192960   7.984   8.777   1.020  0.4557  0.1291  0.4244
30794SOL    HW292961   8.047   8.673   1.111  0.9288  0.2896  0.2825
30795SOL     OW92962   1.084   2.045   9.234  0.1590 -0.2578 -0.3523
30795SOL    HW192963   1.035   1.975   9.278  0.3126 -0.3219 -0.2841
30795SOL    HW292964   1.101   2.011   9.146 -2.7813  1.0123 -1.5788
30796SOL     OW92965   8.809   1.748   9.485  0.2499 -0.4962  0.3219
30796SOL    HW192966   8.807   1.739   9.389 -0.3417 -0.3564  0.3158
30796SOL    HW292967   8.805   1.658   9.517  0.9537 -0.5678  0.2109
30797SOL     OW92968   2.265   3.564   6.382  0.4285  0.7217 -0.2307
30797SOL    HW192969   2.312   3.546   6.301 -0.8128  0.4852 -0.9218
30797SOL    HW292970   2.225   3.650   6.370  1.1813  1.2083  0.6022
30798SOL     OW92971   9.391   1.402   5.445 -0.3978 -0.2380  0.4153
30798SOL    HW192972   9.351   1.347   5.378 -1.4216  1.0263 -0.0652
30798SOL    HW292973   9.391   1.348   5.524 -1.9852 -0.7092  0.1318
30799SOL     OW92974   7.863   3.234   7.105  0.1987 -0.0152 -0.1007
30799SOL    HW192975   7.834   3.147   7.131  1.4555 -0.0314  1.4722
30799SOL    HW292976   7.862   3.233   7.010 -2.0265 -0.9422 -0.1370
30800SOL     OW92977   9.692   2.992   8.155  0.1779 -0.1673 -0.5563
30800SOL    HW192978   9.773   3.024   8.195 -1.2466 -0.4612  2.9008
30800SOL    HW292979   9.711   2.901   8.131  1.0763  0.0106 -0.5537
30801SOL     OW92980   3.848   0.343   8.769  0.6322 -0.6608  0.2105
30801SOL    HW192981   3.917   0.286   8.733  1.8938  0.2639  1.0541
30801SOL    HW292982   3.892   0.426   8.784 -0.5437 -0.2092  1.3136
30802SOL     OW92983   7.178   7.983   7.553 -0.2302 -0.5450  0.7771
30802SOL    HW192984   7.242   7.932   7.603 -0.5774  0.2889  2.1190
30802SOL    HW292985   7.158   8.058   7.609 -1.0839  0.1192 -0.3786
30803SOL     OW92986   9.920   3.490   8.980  0.4496 -0.1139  0.8231
30803SOL    HW192987   9.836   3.507   9.024  0.2857 -0.2390  0.5640
30803SOL    HW292988   9.911   3.533   8.895 -0.2954 -2.1773 -0.1832
30804SOL     OW92989   1.795   5.348   5.941  0.1422 -0.1069  0.0364
30804SOL    HW192990   1.853   5.372   5.868 -0.0132  0.9855  0.2541
30804SOL    HW292991   1.839   5.274   5.983  0.1006 -0.9284 -1.3168
30805SOL     OW92992   9.052   7.073   2.549 -0.9830  0.7396  0.1125
30805SOL    HW192993   9.077   7.126   2.625 -0.1725 -0.2806  0.5855
30805SOL    HW292994   8.969   7.111   2.520 -0.0919  2.7272 -0.0383
30806SOL     OW92995   3.252   9.091   4.184 -0.1318  0.0513  0.9702
30806SOL    HW192996   3.170   9.100   4.136  0.8919 -3.3421 -1.8205
30806SOL    HW292997   3.234   9.024   4.249  0.7054 -1.9699 -0.7676
30807SOL     OW92998   1.070   1.589   7.830  0.2588  0.0307 -0.4863
30807SOL    HW192999   0.987   1.591   7.878  0.0181  1.1022 -0.9272
30807SOL    HW293000   1.080   1.497   7.803  0.4925 -0.6537  1.7206
30808SOL     OW93001   8.812   9.056   2.938  0.2485 -0.0058 -0.0498
30808SOL    HW193002   8.739   9.042   2.877 -0.0758  1.4034 -0.0125
30808SOL    HW293003   8.869   9.118   2.893  0.1230  0.8776  0.9534
30809SOL     OW93004   8.561   2.130   8.050  0.0566  0.0233  0.5104
30809SOL    HW193005   8.501   2.159   7.981 -1.8979 -0.0200  2.0987
30809SOL    HW293006   8.592   2.044   8.021  0.4017  0.5991 -0.9378
30810SOL     OW93007   8.881   8.147   2.164  0.3733 -0.2948 -0.2348
30810SOL    HW193008   8.856   8.195   2.085 -1.3304 -0.1685  0.3485
30810SOL    HW293009   8.938   8.207   2.211  0.4936  0.0659 -0.8250
30811SOL     OW93010   2.077   3.915   8.675 -0.4169 -0.1278  0.0022
30811SOL    HW193011   1.981   3.911   8.672 -0.4359 -0.2324  0.7197
30811SOL    HW293012   2.097   4.009   8.669 -0.5039 -0.1701 -1.4408
30812SOL     OW93013   4.618   6.854   2.528 -0.1536  0.2548  0.4302
30812SOL    HW193014   4.629   6.938   2.571 -0.2922  0.3013  0.3754
30812SOL    HW293015   4.569   6.874   2.448  0.4799  0.2319  0.0295
30813SOL     OW93016   0.821   7.588   4.694 -0.3545 -0.8486 -0.1265
30813SOL    HW193017   0.899   7.609   4.642 -0.2362  1.3206  0.8159
30813SOL    HW293018   0.762   7.544   4.632  0.0812  0.9681 -1.9545
30814SOL     OW93019   8.166   8.571   8.995  0.2507  0.3622  0.0528
30814SOL    HW193020   8.179   8.560   9.089  0.4287 -0.4885 -0.0629
30814SOL    HW293021   8.099   8.639   8.988 -1.5951 -1.2786  0.8889
30815SOL     OW93022   0.811   9.066   9.314 -0.4702  0.5693 -0.0121
30815SOL    HW193023   0.775   9.041   9.399 -1.1855 -0.1258 -0.4997
30815SOL    HW293024   0.906   9.066   9.326 -0.3863 -2.3099  0.0842
30816SOL     OW93025   8.388   8.692   2.612  0.2506  0.0136 -0.3478
30816SOL    HW193026   8.401   8.607   2.654 -1.6826  0.4579  1.3111
30816SOL    HW293027   8.464   8.702   2.555 -0.1548 -3.4661 -1.7955
30817SOL     OW93028   5.616   7.062   3.784  0.6251 -0.5086  0.8207
30817SOL    HW193029   5.639   7.045   3.875 -0.7263 -1.7982  0.9687
30817SOL    HW293030   5.523   7.085   3.787  0.4561 -0.9852 -0.2610
30818SOL     OW93031   9.380   6.925   0.034 -0.2720  0.3328  0.7902
30818SOL    HW193032   9.436   6.871   0.088  1.5238  2.9791  1.7966
30818SOL    HW293033   9.429   7.007   0.022 -1.9578  1.0760 -2.2234
30819SOL     OW93034   9.615   7.038   4.522 -0.2528  0.1179 -0.0466
30819SOL    HW193035   9.598   7.102   4.452 -3.9562  0.7494  1.2068
30819SOL    HW293036   9.569   6.959   4.493  1.4137 -0.8959 -0.0105
30820SOL     OW93037   6.478   8.645   1.867 -0.5174  0.7733 -0.7217
30820SOL    HW193038   6.476   8.582   1.939 -0.5033  1.6979  0.1253
30820SOL    HW293039   6.442   8.598   1.792  0.1468 -0.4425 -0.3014
30821SOL     OW93040   7.999   0.772   3.828 -0.1236  0.3460  0.2983
30821SOL    HW193041   7.987   0.819   3.911  0.9664  0.4293  0.4254
30821SOL    HW293042   8.070   0.820   3.784  1.8884 -1.8585  0.9686
30822SOL     OW93043   4.688   4.234   2.498  0.6131 -0.1208  0.2634
30822SOL    HW193044   4.698   4.150   2.543  1.8054  0.0535  0.3805
30822SOL    HW293045   4.756   4.289   2.537  0.1691  0.7413 -0.1632
30823SOL     OW93046   1.252   2.976   4.664 -0.3294  0.1884  0.6285
30823SOL    HW193047   1.192   2.943   4.731  1.3295 -1.1036  1.5309
30823SOL    HW293048   1.275   3.064   4.695  0.7279 -0.5379  2.0094
30824SOL     OW93049   9.366   6.293   9.573 -0.2255 -0.2160  0.4454
30824SOL    HW193050   9.278   6.321   9.596 -0.7545 -0.6067 -0.9930
30824SOL    HW293051   9.364   6.284   9.478  1.4791  0.1237  0.3515
30825SOL     OW93052   0.618   0.479   6.293 -0.1601 -0.0042  0.4752
30825SOL    HW193053   0.648   0.404   6.345 -0.0832 -0.7416 -0.5786
30825SOL    HW293054   0.534   0.450   6.256 -0.3362  0.5947  0.4036
30826SOL     OW93055   8.234   8.255   8.682  0.3966  0.2600  0.6930
30826SOL    HW193056   8.288   8.318   8.729 -1.3693  0.6379  2.3458
30826SOL    HW293057   8.169   8.227   8.746 -1.7145  0.2521 -1.3314
30827SOL     OW93058   6.845   5.739   6.283  0.1744  0.2635  0.3061
30827SOL    HW193059   6.863   5.814   6.226  0.1631  0.5513  0.6752
30827SOL    HW293060   6.927   5.691   6.286  0.9503  1.5735  1.9956
30828SOL     OW93061   1.427   0.445   0.182 -0.3871 -0.3842  0.1273
30828SOL    HW193062   1.378   0.526   0.168 -0.4792 -0.6155 -0.9094
30828SOL    HW293063   1.481   0.464   0.260 -0.7519  0.5044  0.1796
30829SOL     OW93064   6.839   3.626   5.418 -0.3264  0.1665  0.5043
30829SOL    HW193065   6.783   3.548   5.421 -1.1654  0.7875  1.5334
30829SOL    HW293066   6.878   3.624   5.330 -1.7754 -0.4295 -0.1608
30830SOL     OW93067   1.151   9.559   0.997 -0.1062  0.0636 -0.3962
30830SOL    HW193068   1.208   9.500   1.046 -0.3301 -1.1690 -1.5623
30830SOL    HW293069   1.083   9.584   1.059  0.9204  0.4567  0.6065
30831SOL     OW93070   7.350   3.316   6.731  0.6777 -0.1235  0.1924
30831SOL    HW193071   7.359   3.364   6.649  0.4046 -1.7553 -0.8465
30831SOL    HW293072   7.419   3.350   6.787  1.1549  0.7121 -0.8772
30832SOL     OW93073   7.611   4.093   2.645 -0.7668 -0.0333  0.1032
30832SOL    HW193074   7.533   4.076   2.594  0.1138  1.1511 -1.7528
30832SOL    HW293075   7.579   4.137   2.724 -2.1188 -1.4242  0.3665
30833SOL     OW93076   8.877   8.671   2.544  0.4680 -0.1554 -0.3112
30833SOL    HW193077   8.827   8.598   2.508  1.0833 -0.1821 -1.1721
30833SOL    HW293078   8.945   8.630   2.598  0.7574 -0.2339 -0.7222
30834SOL     OW93079   1.221   3.533   7.833  0.6501 -0.2115  1.0272
30834SOL    HW193080   1.188   3.487   7.756 -0.1466 -0.6619  1.6269
30834SOL    HW293081   1.309   3.563   7.807  0.3248 -0.1983 -0.1045
30835SOL     OW93082   9.297   3.356   0.741 -0.4080  0.5939  0.2722
30835SOL    HW193083   9.304   3.430   0.802  1.1769  0.6922  0.0229
30835SOL    HW293084   9.355   3.380   0.669 -0.5568 -0.5106 -0.2269
30836SOL     OW93085   5.233   7.908   9.495 -0.1808  0.3012  0.0388
30836SOL    HW193086   5.251   8.002   9.507 -2.1973  0.8511 -0.8190
30836SOL    HW293087   5.158   7.906   9.437 -0.5758 -1.8607  0.5660
30837SOL     OW93088   6.231   1.026   8.857  0.0573 -0.3965 -0.1686
30837SOL    HW193089   6.259   1.116   8.843 -1.9932  0.2969 -0.1553
30837SOL    HW293090   6.252   1.008   8.949 -1.5542  0.9172  0.5129
30838SOL     OW93091   8.725   9.046   3.980  0.0454 -0.0138 -0.1818
30838SOL    HW193092   8.662   9.051   4.052 -0.1821  2.5054 -0.4692
30838SOL    HW293093   8.672   9.061   3.901  0.9019  1.7554 -0.4551
30839SOL     OW93094   0.530   0.684   7.310 -0.6057  0.1342 -0.3418
30839SOL    HW193095   0.586   0.723   7.377  0.2481 -2.6824  0.6863
30839SOL    HW293096   0.459   0.642   7.359 -0.4701 -1.2085 -1.2511
30840SOL     OW93097   7.379   9.403   9.054 -0.6636  0.0169 -0.5284
30840SOL    HW193098   7.361   9.330   9.113 -0.0929  1.7598  1.9443
30840SOL    HW293099   7.337   9.479   9.095  2.8207  2.0310 -0.2872
30841SOL     OW93100   1.256   8.837   7.440 -0.3819 -0.0729  0.0905
30841SOL    HW193101   1.285   8.921   7.475  0.0701 -0.5921  0.9986
30841SOL    HW293102   1.272   8.775   7.511 -0.2296 -1.0174 -0.7501
30842SOL     OW93103   4.918   8.788   8.637 -0.6067  0.1792  0.0068
30842SOL    HW193104   5.007   8.755   8.650 -0.7950 -1.5135 -2.4406
30842SOL    HW293105   4.862   8.722   8.678 -0.8310 -0.5442 -1.4230
30843SOL     OW93106   3.983   9.703   6.144  0.6002 -0.8500 -0.2149
30843SOL    HW193107   3.985   9.793   6.111  1.4469 -0.9256 -0.4091
30843SOL    HW293108   4.038   9.705   6.222  1.5871 -1.4344 -0.8788
30844SOL     OW93109   8.034   2.178   2.323 -0.1972  0.3079 -0.0334
30844SOL    HW193110   7.939   2.184   2.335 -0.3140  0.5403 -1.0036
30844SOL    HW293111   8.045   2.136   2.238  0.5798 -0.2377  0.3206
30845SOL     OW93112   4.047   8.559   8.798 -0.7284 -0.2973  0.4142
30845SOL    HW193113   4.033   8.625   8.866 -0.6077  0.4328 -0.2557
30845SOL    HW293114   3.971   8.568   8.740 -0.0034  0.2506 -0.4765
30846SOL     OW93115   8.395   8.674   2.113  0.2265  0.2966  0.2906
30846SOL    HW193116   8.474   8.725   2.097  2.8929 -3.2112  0.9298
30846SOL    HW293117   8.393   8.661   2.208 -1.7839  1.1305  0.4228
30847SOL     OW93118   5.180   6.945   6.488 -0.0855 -0.2999  0.1747
30847SOL    HW193119   5.212   6.979   6.404 -0.7196 -1.2437 -0.4665
30847SOL    HW293120   5.190   6.850   6.481  3.4768 -0.3063  2.6752
30848SOL     OW93121   9.710   8.923   6.573 -0.0067  0.3866 -0.1030
30848SOL    HW193122   9.743   8.945   6.661 -0.0631  0.1200 -0.0160
30848SOL    HW293123   9.771   8.967   6.514 -0.1031  0.7590  0.0713
30849SOL     OW93124   5.701   8.360   4.276  0.1543 -0.1859  0.0109
30849SOL    HW193125   5.631   8.335   4.336 -0.9944 -1.9222 -1.9478
30849SOL    HW293126   5.658   8.413   4.209  0.6038 -1.4031 -1.3054
30850SOL     OW93127   1.533   7.787   2.185 -0.0512 -0.5587  0.4694
30850SOL    HW193128   1.490   7.769   2.101 -0.5748 -0.1480  0.6416
30850SOL    HW293129   1.625   7.767   2.169  0.1642  1.1360 -0.7214
30851SOL     OW93130   5.399   1.781   5.120  0.2142 -0.2729 -0.3408
30851SOL    HW193131   5.391   1.688   5.099  0.1138 -0.3984  0.2421
30851SOL    HW293132   5.331   1.797   5.185  0.3460  0.1669 -0.3100
30852SOL     OW93133   5.721   6.802   0.447 -0.0527 -0.2377 -0.4021
30852SOL    HW193134   5.812   6.792   0.421 -0.5070 -0.1510 -2.1695
30852SOL    HW293135   5.724   6.856   0.526  1.4114 -0.1846 -0.4741
30853SOL     OW93136   0.473   7.682   2.419  0.1640  0.3138 -0.7203
30853SOL    HW193137   0.400   7.703   2.477  1.0372  1.6913 -0.0450
30853SOL    HW293138   0.451   7.723   2.336  0.7927  2.0080 -0.0882
30854SOL     OW93139   2.610   6.087   6.403  0.8952 -0.0282  0.3289
30854SOL    HW193140   2.659   6.157   6.359 -0.9457  0.1697 -1.5872
30854SOL    HW293141   2.550   6.133   6.462  0.1167  0.0007 -0.4696
30855SOL     OW93142   1.731   1.740   2.849 -0.5688 -0.4887 -0.1753
30855SOL    HW193143   1.782   1.660   2.842  1.8219  0.7816  1.4241
30855SOL    HW293144   1.689   1.735   2.935 -0.6210 -0.1478 -0.1787
30856SOL     OW93145   0.613   0.021   0.553  0.7640  0.4002  0.5413
30856SOL    HW193146   0.581   0.030   0.463  0.5079 -0.0365  0.5861
30856SOL    HW293147   0.704   0.051   0.550  0.0446  2.8343  0.6488
30857SOL     OW93148   9.375   0.190   0.261 -0.2064  0.3437 -0.6421
30857SOL    HW193149   9.448   0.138   0.293 -0.2638  0.2674 -0.6327
30857SOL    HW293150   9.386   0.276   0.301 -0.4915  0.1342 -0.1099
30858SOL     OW93151   9.275   2.051   0.587  0.1960 -0.0713  0.0300
30858SOL    HW193152   9.362   2.090   0.582 -0.7106  2.1161  0.0861
30858SOL    HW293153   9.241   2.054   0.498 -0.2338  0.1218  0.1942
30859SOL     OW93154   5.366   3.698   8.053  0.0247  0.1095 -0.1849
30859SOL    HW193155   5.323   3.672   8.134  1.3889 -0.5784  0.3524
30859SOL    HW293156   5.305   3.759   8.012 -0.4391  0.9468  1.6495
30860SOL     OW93157   5.923   4.886   3.547 -0.3096 -0.1103 -0.1858
30860SOL    HW193158   5.933   4.941   3.625 -0.8286 -0.0623 -0.1554
30860SOL    HW293159   5.935   4.946   3.473  0.9727 -0.2907 -0.1580
30861SOL     OW93160   0.267   2.933   1.763  0.6105  0.0360 -0.0112
30861SOL    HW193161   0.239   3.022   1.786  2.0421  0.8618 -1.3170
30861SOL    HW293162   0.252   2.926   1.669  2.0408 -0.5128 -0.2239
30862SOL     OW93163   5.836   3.880   6.592  0.1966 -0.0716  0.0813
30862SOL    HW193164   5.750   3.919   6.581  0.2949  0.5081  1.2053
30862SOL    HW293165   5.856   3.891   6.685  1.3633 -0.4432 -0.1041
30863SOL     OW93166   1.836   2.167   4.420  0.5849 -0.2006  0.1093
30863SOL    HW193167   1.747   2.195   4.442  0.2221 -1.4764  0.3377
30863SOL    HW293168   1.843   2.181   4.325 -0.3941 -1.4604 -0.1786
30864SOL     OW93169   5.247   6.674   6.431 -0.4648 -0.5653  0.0811
30864SOL    HW193170   5.175   6.613   6.417  1.1909 -2.6758  0.1576
30864SOL    HW293171   5.298   6.633   6.501  0.8330  0.8303 -0.0130
30865SOL     OW93172   5.565   6.729   6.735  0.5374  0.2874 -0.3986
30865SOL    HW193173   5.615   6.725   6.653  0.7774  1.8409 -0.3647
30865SOL    HW293174   5.586   6.647   6.779  1.8338  0.2010 -1.0938
30866SOL     OW93175   1.152   6.792   5.138  0.0373 -0.5796  0.8967
30866SOL    HW193176   1.186   6.770   5.051 -1.7173 -1.4804  0.4069
30866SOL    HW293177   1.119   6.881   5.129 -1.2836 -1.1142  0.2600
30867SOL     OW93178   6.472   9.592   9.040 -0.0850  0.1938  0.2348
30867SOL    HW193179   6.498   9.635   9.121 -0.5784  0.3070  0.3392
30867SOL    HW293180   6.524   9.512   9.037  1.2677  1.0428 -0.2391
30868SOL     OW93181   3.137   3.591   9.473 -0.1709  0.0814 -0.3615
30868SOL    HW193182   3.148   3.684   9.452 -2.0886  0.4748  0.2770
30868SOL    HW293183   3.101   3.590   9.561  0.7907 -1.3338  0.0484
30869SOL     OW93184   1.434   5.843   4.873 -0.5293  0.2640  0.3468
30869SOL    HW193185   1.498   5.894   4.822  2.1349 -2.5169  0.6055
30869SOL    HW293186   1.378   5.803   4.807 -0.3699  0.6949 -0.0628
30870SOL     OW93187   1.654   7.708   8.438 -0.2071  0.4718  0.0598
30870SOL    HW193188   1.677   7.644   8.506 -1.0951 -0.8612 -0.8414
30870SOL    HW293189   1.706   7.785   8.459  1.8929 -0.9644  0.4712
30871SOL     OW93190   0.864   5.688   9.692 -0.3824 -0.1854  0.8822
30871SOL    HW193191   0.916   5.718   9.617 -1.0922 -2.4573 -0.6026
30871SOL    HW293192   0.907   5.729   9.768  2.8280 -0.9083 -0.3709
30872SOL     OW93193   6.623   8.721   2.353 -0.2418 -0.3110  0.3581
30872SOL    HW193194   6.598   8.688   2.439 -1.5091 -2.0254 -0.5972
30872SOL    HW293195   6.545   8.709   2.298  0.3759  1.1674 -0.9349
30873SOL     OW93196   4.829   2.863   7.082 -0.2378  0.0766  0.0291
30873SOL    HW193197   4.902   2.816   7.123  0.7290  1.6403  0.1667
30873SOL    HW293198   4.848   2.860   6.989 -1.6325 -2.1377 -0.2538
30874SOL     OW93199   2.593   9.769   6.861 -0.2916  0.1967 -0.7018
30874SOL    HW193200   2.658   9.818   6.912 -0.3729  1.0091 -1.3456
30874SOL    HW293201   2.549   9.713   6.924  0.8464 -0.1581 -0.2072
30875SOL     OW93202   8.220   3.974   0.927 -0.1398 -0.1645 -0.2385
30875SOL    HW193203   8.239   3.936   1.013  1.7172  2.1548  0.4598
30875SOL    HW293204   8.266   3.917   0.866 -0.4802 -1.1461  0.3895
30876SOL     OW93205   6.760   0.599   9.348 -0.5048 -0.0204 -0.5019
30876SOL    HW193206   6.817   0.555   9.284 -0.7660  0.1740 -0.8685
30876SOL    HW293207   6.785   0.560   9.432  0.9553  0.8529 -0.4956
30877SOL     OW93208   2.329   0.914   8.224 -0.3796  0.7621 -0.0805
30877SOL    HW193209   2.281   0.952   8.150  0.1457  1.9742  0.1707
30877SOL    HW293210   2.369   0.835   8.188 -1.3541  0.5309 -0.6813
30878SOL     OW93211   1.860   1.384   3.521 -0.1452 -0.0207  0.4165
30878SOL    HW193212   1.806   1.308   3.546 -0.6132  0.2705  0.3008
30878SOL    HW293213   1.797   1.451   3.497  0.2834  0.0213 -0.6428
30879SOL     OW93214   3.464   0.455   2.860 -0.5335 -0.1473  0.1892
30879SOL    HW193215   3.469   0.380   2.801 -1.0377  0.7918 -1.1073
30879SOL    HW293216   3.555   0.484   2.870  0.0553 -2.4936  2.9155
30880SOL     OW93217   4.214   1.656   2.041  0.0962  0.3891  0.1333
30880SOL    HW193218   4.256   1.576   2.008  1.6017  0.2571  2.1507
30880SOL    HW293219   4.254   1.727   1.990  2.0136  0.1586  1.2161
30881SOL     OW93220   2.521   7.557   3.611  0.0393 -0.0698  0.4479
30881SOL    HW193221   2.579   7.483   3.592  0.8320  0.4711  0.7107
30881SOL    HW293222   2.456   7.555   3.541  1.3811  0.3302 -0.8670
30882SOL     OW93223   8.289   2.930   8.076  0.5581  0.1053 -0.1999
30882SOL    HW193224   8.339   2.973   8.007 -0.5393  2.4012  0.3450
30882SOL    HW293225   8.355   2.902   8.139  1.2841  3.4725  0.7266
30883SOL     OW93226   9.462   5.520   3.087 -0.0706 -0.0769  0.1358
30883SOL    HW193227   9.524   5.447   3.092 -0.3464 -0.3228 -0.0007
30883SOL    HW293228   9.480   5.572   3.165  2.5047  1.6430 -1.4447
30884SOL     OW93229   6.357   9.642   9.828 -0.0459  0.5713  0.1309
30884SOL    HW193230   6.330   9.670   9.740 -2.8213 -1.0700  0.3296
30884SOL    HW293231   6.311   9.703   9.886 -0.4418 -0.0357  0.4587
30885SOL     OW93232   0.671   2.833   6.332  0.0803 -0.3413 -0.4734
30885SOL    HW193233   0.723   2.907   6.299  0.0562 -0.4147 -0.6775
30885SOL    HW293234   0.736   2.772   6.366  0.0574  0.1537  0.4930
30886SOL     OW93235   2.680   2.492   3.917  0.5661  0.5365 -0.0504
30886SOL    HW193236   2.705   2.414   3.966  2.1238  0.6650 -0.5941
30886SOL    HW293237   2.640   2.458   3.837  0.2833  0.3151  0.1817
30887SOL     OW93238   1.287   4.118   4.411 -0.0906 -0.1510 -0.6958
30887SOL    HW193239   1.339   4.135   4.332 -0.3348 -1.1128 -1.0837
30887SOL    HW293240   1.351   4.117   4.482 -0.1610  3.2636 -0.4454
30888SOL     OW93241   1.914   7.201   6.409  0.3347 -0.1707  0.5164
30888SOL    HW193242   1.879   7.290   6.403 -0.8940 -0.7237 -2.5994
30888SOL    HW293243   1.896   7.174   6.499 -0.8744  2.1099  1.0328
30889SOL     OW93244   5.726   8.006   8.512 -0.1989 -0.2288 -0.4437
30889SOL    HW193245   5.690   7.942   8.574 -0.3691  0.4019  0.1199
30889SOL    HW293246   5.807   7.966   8.482 -0.8562 -1.2214 -0.9719
30890SOL     OW93247   3.483   7.780   7.627 -0.1544 -0.2115  0.0566
30890SOL    HW193248   3.512   7.763   7.717 -0.9546  1.0009  0.5602
30890SOL    HW293249   3.401   7.732   7.618 -0.3595  0.1188  0.1586
30891SOL     OW93250   3.769   0.546   3.186 -0.0763 -0.1910  0.2445
30891SOL    HW193251   3.700   0.613   3.188 -0.0401 -0.1109 -0.7787
30891SOL    HW293252   3.847   0.593   3.156  1.0857  0.2618  3.5274
30892SOL     OW93253   4.894   2.914   6.475  0.0497  0.6358  0.2256
30892SOL    HW193254   4.852   2.956   6.400  0.4281 -0.7742 -0.8194
30892SOL    HW293255   4.928   2.987   6.528 -0.0760  1.6518 -1.0492
30893SOL     OW93256   0.607   9.583   1.532  0.0209 -0.0952 -0.2479
30893SOL    HW193257   0.684   9.588   1.476  1.1636  2.0034  1.3437
30893SOL    HW293258   0.610   9.664   1.583 -1.7815 -1.1931  1.7593
30894SOL     OW93259   0.672   5.590   3.724 -0.4317 -0.1618  0.1292
30894SOL    HW193260   0.701   5.558   3.809 -0.9091 -0.6923  0.0972
30894SOL    HW293261   0.578   5.576   3.724 -0.1926 -2.3277 -1.3593
30895SOL     OW93262   9.625   3.798   6.668 -0.0405 -0.0621 -0.4415
30895SOL    HW193263   9.718   3.786   6.684  0.2024  0.3704 -1.4347
30895SOL    HW293264   9.587   3.817   6.754  0.8976  0.4401 -0.1278
30896SOL     OW93265   7.265   4.134   3.862 -0.3505 -0.4061 -0.0273
30896SOL    HW193266   7.213   4.107   3.786 -2.3619  0.7567  0.8683
30896SOL    HW293267   7.344   4.172   3.824 -1.0259 -0.4150 -1.5262
30897SOL     OW93268   5.184   0.955   8.152 -0.0276  0.3140  0.3907
30897SOL    HW193269   5.167   0.863   8.133  2.8447 -0.4450  0.9401
30897SOL    HW293270   5.280   0.960   8.161  0.0820  3.6516 -1.1499
30898SOL     OW93271   4.950   4.790   5.459  0.1736  0.2166  0.1870
30898SOL    HW193272   4.984   4.838   5.384 -0.7846  0.8366  0.1272
30898SOL    HW293273   4.963   4.698   5.437 -1.8950  0.2699 -1.6893
30899SOL     OW93274   2.005   1.852   2.866  0.2997  0.5381 -0.2160
30899SOL    HW193275   1.909   1.857   2.862 -0.0602 -2.7783  0.8558
30899SOL    HW293276   2.031   1.819   2.780  0.2402 -0.3883  0.1087
30900SOL     OW93277   5.782   9.188   1.243  0.0278  0.5749 -0.2845
30900SOL    HW193278   5.736   9.148   1.170  0.5971  0.9329 -0.8450
30900SOL    HW293279   5.833   9.259   1.204 -0.7490  1.6837  0.6503
30901SOL     OW93280   3.666   4.712   7.756  0.6773 -0.0804 -0.1649
30901SOL    HW193281   3.709   4.629   7.733  1.0870  0.7703 -2.8494
30901SOL    HW293282   3.587   4.713   7.701  1.4855  1.9415 -1.3912
30902SOL     OW93283   8.830   2.106   3.912  0.1049  0.0628  0.1177
30902SOL    HW193284   8.878   2.165   3.970 -0.4609 -0.2707  0.9586
30902SOL    HW293285   8.879   2.107   3.830  1.6984 -0.4605  1.0203
30903SOL     OW93286   6.608   9.741   3.423  0.2923  0.1737 -0.5684
30903SOL    HW193287   6.528   9.691   3.407  0.9994 -0.6318 -1.6233
30903SOL    HW293288   6.596   9.821   3.372 -0.5383  0.8217  0.5820
30904SOL     OW93289   5.662   6.079   9.589 -0.5976  0.2433 -0.3463
30904SOL    HW193290   5.692   5.989   9.602 -1.0573  0.2367  0.8191
30904SOL    HW293291   5.619   6.102   9.672  0.7282  2.0110 -0.0984
30905SOL     OW93292   1.374   6.745   8.533  0.2075  0.1931  0.6974
30905SOL    HW193293   1.411   6.709   8.613  0.2303  0.9992  1.0614
30905SOL    HW293294   1.450   6.764   8.478  0.1291 -1.6593 -0.1075
30906SOL     OW93295   7.102   4.359   2.341 -0.0660  0.0032  0.7602
30906SOL    HW193296   7.120   4.310   2.422 -1.0318 -0.3454  0.7827
30906SOL    HW293297   7.054   4.437   2.370 -0.9941 -0.4458  0.4857
30907SOL     OW93298   7.147   6.586   2.252  0.2253 -1.0811  0.1521
30907SOL    HW193299   7.213   6.652   2.273  0.0300 -1.3188  1.5946
30907SOL    HW293300   7.162   6.566   2.160  0.6183  0.6025 -0.1963
30908SOL     OW93301   3.989   0.925   0.251  0.0385 -0.1975 -0.0588
30908SOL    HW193302   3.960   1.009   0.286  1.9101  0.0760  0.9722
30908SOL    HW293303   3.980   0.864   0.324 -0.2668 -0.6616 -0.4739
30909SOL     OW93304   9.431   8.432   3.236  0.1069  0.0185 -0.5785
30909SOL    HW193305   9.505   8.434   3.296 -0.1685 -1.0762 -0.1768
30909SOL    HW293306   9.372   8.500   3.268  0.9711  0.9653 -0.9649
30910SOL     OW93307   8.278   2.904   5.271  0.2289  0.0369 -0.0580
30910SOL    HW193308   8.320   2.900   5.185  0.0957 -0.9939 -0.0861
30910SOL    HW293309   8.196   2.856   5.260 -0.3210  0.8638  0.3520
30911SOL     OW93310   4.100   9.009   1.791  0.5074 -0.2508 -0.2737
30911SOL    HW193311   4.067   9.098   1.787  1.4747  0.0624 -3.0361
30911SOL    HW293312   4.122   8.996   1.883 -2.0572  1.3956  0.6743
30912SOL     OW93313   4.751   0.820   5.185  0.5569  0.1088  0.1674
30912SOL    HW193314   4.689   0.781   5.246 -0.4391 -0.3959 -1.1226
30912SOL    HW293315   4.836   0.811   5.228 -0.1017 -0.2347  1.4572
30913SOL     OW93316   1.357   7.411   3.386 -0.2312  0.3852  0.0984
30913SOL    HW193317   1.448   7.440   3.377  0.5110 -1.7637  0.1385
30913SOL    HW293318   1.312   7.488   3.422  1.7222  1.2664  0.8521
30914SOL     OW93319   6.496   3.480   5.559 -0.4430  0.1268 -0.2761
30914SOL    HW193320   6.464   3.452   5.473  0.3577 -0.7253 -0.3171
30914SOL    HW293321   6.462   3.414   5.620 -1.5960  1.0996  0.2056
30915SOL     OW93322   4.860   8.493   8.535 -0.1120 -0.1550 -0.4534
30915SOL    HW193323   4.768   8.515   8.526 -0.4717 -0.5643  1.6671
30915SOL    HW293324   4.867   8.451   8.621  1.8750 -1.1065 -0.9989
30916SOL     OW93325   7.353   3.536   0.930 -0.3339 -0.0590 -0.2083
30916SOL    HW193326   7.267   3.512   0.964 -0.3667 -1.3881 -1.1241
30916SOL    HW293327   7.400   3.453   0.924  0.8373  0.5863 -0.2099
30917SOL     OW93328   8.361   6.687   7.260  0.2188 -0.2763  0.4268
30917SOL    HW193329   8.301   6.680   7.186  0.0640 -0.5782  0.5795
30917SOL    HW293330   8.315   6.643   7.332  0.7423 -0.7504  0.4737
30918SOL     OW93331   7.873   1.617   3.222  0.0150  0.2156 -0.4511
30918SOL    HW193332   7.931   1.645   3.150  0.8482 -0.1610  0.0604
30918SOL    HW293333   7.928   1.562   3.277  0.4302  3.0983  2.3081
30919SOL     OW93334   0.170   3.352   9.979 -0.0161  0.0184  1.1359
30919SOL    HW193335   0.225   3.425   9.950  1.4388 -1.2107  0.6294
30919SOL    HW293336   0.145   3.307   9.898  0.8516 -1.2167  1.5130
30920SOL     OW93337   7.543   6.533   0.116  0.1788 -0.4991  0.1409
30920SOL    HW193338   7.616   6.562   0.061  0.0307  0.7927  0.5857
30920SOL    HW293339   7.469   6.588   0.090  0.1291  0.2140  1.6330
30921SOL     OW93340   4.023   0.156   2.542  0.0582 -0.6641  0.2703
30921SOL    HW193341   3.995   0.210   2.469  0.3849 -1.9900 -0.8893
30921SOL    HW293342   4.100   0.201   2.577  0.5068 -0.5162 -0.8541
30922SOL     OW93343   8.784   8.453   3.476  0.3745  0.2876  0.3587
30922SOL    HW193344   8.852   8.478   3.539  0.5539  2.1853 -0.5208
30922SOL    HW293345   8.706   8.441   3.530  1.1193 -0.7755  1.2430
30923SOL     OW93346   1.034   4.321   4.830 -0.3058 -0.1819  0.1256
30923SOL    HW193347   0.973   4.364   4.890 -0.6304 -1.3156  0.6398
30923SOL    HW293348   1.024   4.228   4.849  0.5043 -0.4797 -0.8314
30924SOL     OW93349   5.269   9.999   8.156 -0.3214  0.5169  0.7365
30924SOL    HW193350   5.281   9.972   8.065 -1.4690 -0.7933  0.9343
30924SOL    HW293351   5.314   9.932   8.207 -1.0241  0.3716  1.1737
30925SOL     OW93352   8.793   2.613   7.438 -0.0441  0.0575 -0.1728
30925SOL    HW193353   8.875   2.637   7.480  0.3632 -1.3245 -0.1102
30925SOL    HW293354   8.781   2.677   7.368  0.4569  0.9994  0.5882
30926SOL     OW93355   7.651   2.042   4.985 -0.4983 -0.2927 -0.2508
30926SOL    HW193356   7.584   2.099   4.946 -0.0271  0.1797 -0.3746
30926SOL    HW293357   7.733   2.088   4.971 -0.2614 -0.3505  0.8768
30927SOL     OW93358   0.877   2.344   1.416 -0.2125  0.0266  0.9251
30927SOL    HW193359   0.788   2.377   1.425 -0.1490  0.2300  0.8295
30927SOL    HW293360   0.867   2.257   1.376 -0.5104 -1.0693  3.2546
30928SOL     OW93361   0.986   1.078   5.463  0.5145 -0.5602  0.4505
30928SOL    HW193362   0.993   1.096   5.557 -3.3814  0.0715  0.7736
30928SOL    HW293363   0.892   1.071   5.447  1.0176 -0.3344 -3.4841
30929SOL     OW93364   5.772   7.421   2.315 -0.1481 -0.2314  0.0320
30929SOL    HW193365   5.724   7.477   2.375 -1.0405 -0.1630 -0.7263
30929SOL    HW293366   5.782   7.474   2.235 -0.4468 -0.9166 -0.4678
30930SOL     OW93367   8.523   9.807   1.849  0.0398 -0.1072 -0.9566
30930SOL    HW193368   8.539   9.899   1.872  0.7507  0.3105 -2.9866
30930SOL    HW293369   8.609   9.766   1.853  0.2859  0.0857 -3.1494
30931SOL     OW93370   8.131   5.658   2.352 -0.0860 -0.4042 -0.1143
30931SOL    HW193371   8.202   5.596   2.337  1.1436  0.6547  1.0434
30931SOL    HW293372   8.071   5.613   2.411  0.8330 -0.5006  0.7833
30932SOL     OW93373   8.093   6.175   2.240 -0.2741  0.1078 -0.0815
30932SOL    HW193374   8.119   6.147   2.152  2.0635  1.7317 -0.0230
30932SOL    HW293375   8.116   6.102   2.297 -2.3083 -1.1777 -0.8127
30933SOL     OW93376   0.619   1.946   8.448  0.0223 -1.1228 -0.1074
30933SOL    HW193377   0.632   1.915   8.538  0.4985 -0.6365 -0.0066
30933SOL    HW293378   0.573   1.873   8.405  2.5235 -2.6827 -0.3255
30934SOL     OW93379   2.819   6.728   5.357  0.4856 -0.2944 -0.2892
30934SOL    HW193380   2.821   6.739   5.452  2.9105 -0.6061 -0.2544
30934SOL    HW293381   2.775   6.806   5.324  0.5467  0.3093  1.0204
30935SOL     OW93382   1.783   5.487   2.341 -0.6220  0.7567  0.3909
30935SOL    HW193383   1.849   5.554   2.324 -0.8705  0.6611 -1.1615
30935SOL    HW293384   1.704   5.519   2.297 -0.9709 -0.1621  0.3176
30936SOL     OW93385   0.324   2.942   7.939  0.3823 -0.5600 -0.4806
30936SOL    HW193386   0.383   2.933   7.865 -0.0672 -1.4214 -0.7373
30936SOL    HW293387   0.236   2.932   7.902 -0.1885  3.1468 -0.5667
30937SOL     OW93388   6.754   0.083   6.566 -0.9084  0.1929 -0.2836
30937SOL    HW193389   6.767   0.178   6.569 -1.6130  0.3086 -0.6444
30937SOL    HW293390   6.815   0.049   6.631  0.7635  0.7137 -1.5112
30938SOL     OW93391   8.895   6.879   0.201 -0.1552  0.3768  0.0023
30938SOL    HW193392   8.990   6.876   0.189  0.0304  1.3480  1.0486
30938SOL    HW293393   8.877   6.970   0.223 -0.8412 -0.4220  3.3773
30939SOL     OW93394   6.225   8.774   4.492  0.1716 -0.0528  0.1295
30939SOL    HW193395   6.301   8.738   4.446  0.5314  1.8080 -0.8007
30939SOL    HW293396   6.150   8.730   4.453  0.6854 -1.2208  0.4082
30940SOL     OW93397   3.834   0.882   6.018 -0.4556 -0.3712  0.4693
30940SOL    HW193398   3.776   0.928   5.957 -1.2505  1.0932  2.2369
30940SOL    HW293399   3.879   0.818   5.964 -2.3025 -0.2503 -1.3572
30941SOL     OW93400   6.651   5.421   7.397 -0.2712 -0.0968  0.4178
30941SOL    HW193401   6.685   5.334   7.376 -1.4801 -0.6104  0.5003
30941SOL    HW293402   6.642   5.421   7.493 -1.4078 -0.3443  0.3297
30942SOL     OW93403   4.339   3.697   8.126 -0.3440  0.3421  0.0162
30942SOL    HW193404   4.369   3.607   8.121  0.9722  0.8143 -1.1904
30942SOL    HW293405   4.299   3.705   8.213  1.1696 -0.9022  0.8563
30943SOL     OW93406   6.452   4.320   3.608 -0.3023  0.1804 -0.0250
30943SOL    HW193407   6.448   4.296   3.516  0.5325  0.6045 -0.1840
30943SOL    HW293408   6.362   4.341   3.632 -0.8905 -2.0190 -0.1542
30944SOL     OW93409   9.160   6.062   5.008  0.0430 -0.4724  0.0551
30944SOL    HW193410   9.205   5.978   5.005  1.5273  0.2547  0.7941
30944SOL    HW293411   9.080   6.049   4.956  0.2141 -2.3287  0.1952
30945SOL     OW93412   0.591   5.405   9.876 -0.0228 -0.0752 -0.6551
30945SOL    HW193413   0.610   5.387   9.784 -0.0386  0.1576 -0.7053
30945SOL    HW293414   0.515   5.351   9.896 -0.4704  0.4175 -0.9857
30946SOL     OW93415   5.611   8.023   7.152  0.8394 -0.6967  0.1229
30946SOL    HW193416   5.516   8.035   7.147  0.9126  0.3735  1.0929
30946SOL    HW293417   5.626   7.973   7.232  1.2714  1.8971  1.7900
30947SOL     OW93418   8.310   5.941   6.256  0.1860  0.2431  0.1322
30947SOL    HW193419   8.320   5.848   6.277  1.4497  0.3851  0.2366
30947SOL    HW293420   8.372   5.957   6.185  1.6317  1.4566  1.5891
30948SOL     OW93421   0.836   4.112   9.817  0.1344  0.0814  0.2522
30948SOL    HW193422   0.812   4.149   9.902  0.1138  1.0430 -0.1606
30948SOL    HW293423   0.924   4.077   9.830  0.6270  1.3277  0.3479
30949SOL     OW93424   1.951   7.357   1.092 -0.2263  0.0453  0.3977
30949SOL    HW193425   1.984   7.437   1.132 -1.7748  0.7542  0.3235
30949SOL    HW293426   1.856   7.369   1.088 -0.3446 -1.0443 -1.2437
30950SOL     OW93427   9.764   5.885   8.817 -0.0440 -0.6585 -0.4546
30950SOL    HW193428   9.776   5.867   8.911  0.9080 -0.3552 -0.5094
30950SOL    HW293429   9.751   5.798   8.778  1.8423 -1.0512 -0.3352
30951SOL     OW93430   1.357   2.837   0.810  0.0504 -0.2683 -0.5989
30951SOL    HW193431   1.340   2.867   0.900  0.7188 -0.5885 -0.3621
30951SOL    HW293432   1.333   2.745   0.811 -1.1263  0.0209 -1.0856
30952SOL     OW93433   5.696   5.593   7.724  0.6772 -0.2558 -0.0549
30952SOL    HW193434   5.679   5.675   7.677 -0.1059 -1.3776 -1.8246
30952SOL    HW293435   5.781   5.565   7.690  0.8898 -0.2494  0.4659
30953SOL     OW93436   6.060   5.124   1.149 -0.2916 -0.3110  0.1728
30953SOL    HW193437   6.116   5.199   1.130 -2.0759  0.7768 -1.0591
30953SOL    HW293438   6.095   5.054   1.095 -0.1634  0.3799 -0.6603
30954SOL     OW93439   7.046   0.093   0.421 -0.4825  0.0726 -0.1806
30954SOL    HW193440   7.088   0.072   0.505  2.5021  0.1697 -1.5160
30954SOL    HW293441   6.992   0.017   0.402  0.6243 -1.0036  0.7806
30955SOL     OW93442   7.894   1.386   8.646 -0.2524 -0.1452 -0.0692
30955SOL    HW193443   7.889   1.397   8.741 -0.6330  0.8233 -0.1965
30955SOL    HW293444   7.803   1.375   8.619 -0.0712 -1.4491 -0.2195
30956SOL     OW93445   4.631   1.450   0.117 -0.8610  0.0043 -0.4958
30956SOL    HW193446   4.606   1.403   0.197 -0.7404  1.5368  0.4666
30956SOL    HW293447   4.666   1.381   0.060 -2.7399 -1.4371 -0.0092
30957SOL     OW93448   5.231   8.277   6.692 -0.6882  0.0147  0.6779
30957SOL    HW193449   5.169   8.263   6.621 -2.6774 -1.7932  2.6262
30957SOL    HW293450   5.178   8.308   6.765  0.9779  0.0981  1.9184
30958SOL     OW93451   0.050   9.391   0.368  0.4134 -0.1710  0.5520
30958SOL    HW193452   0.084   9.301   0.363  1.8135  0.3623 -0.1838
30958SOL    HW293453  -0.028   9.390   0.313  0.4305 -0.9432  0.5338
30959SOL     OW93454   5.689   0.143   9.948  0.3195  0.1514  0.0908
30959SOL    HW193455   5.660   0.052   9.939 -1.3453  0.5139  1.2375
30959SOL    HW293456   5.656   0.187   9.870 -0.1700  0.0594  0.2415
30960SOL     OW93457   7.487   0.796   2.780  0.7329 -0.1184 -0.1045
30960SOL    HW193458   7.568   0.758   2.747 -0.0132 -0.6920 -1.3464
30960SOL    HW293459   7.432   0.721   2.802  0.6156  0.2601  0.9880
30961SOL     OW93460   0.445   6.079   4.735 -0.0822 -0.6860 -0.1748
30961SOL    HW193461   0.446   6.135   4.813 -2.0924 -0.3061 -0.3631
30961SOL    HW293462   0.475   6.135   4.664 -1.5047  0.0263 -0.2543
30962SOL     OW93463   9.511   9.767   2.903 -1.0090 -0.3792 -0.1565
30962SOL    HW193464   9.451   9.738   2.834  0.0751 -1.4234 -0.6898
30962SOL    HW293465   9.591   9.717   2.888 -0.6005 -0.3124  1.6227
30963SOL     OW93466   8.893   4.615   5.587 -0.4457  0.3362  0.1742
30963SOL    HW193467   8.799   4.606   5.598 -0.6768  1.0215 -1.0106
30963SOL    HW293468   8.930   4.595   5.673 -1.6413 -0.2696  0.5611
30964SOL     OW93469   6.861   1.554   3.928 -0.4813 -0.0093  0.5115
30964SOL    HW193470   6.808   1.494   3.875 -0.7307 -0.1481  0.9101
30964SOL    HW293471   6.951   1.524   3.916 -0.4686  0.3108 -0.2801
30965SOL     OW93472   0.589   9.805   1.673 -0.2318 -0.1726 -0.2043
30965SOL    HW193473   0.564   9.862   1.745 -0.8326 -0.4449 -0.1942
30965SOL    HW293474   0.566   9.854   1.594  4.4892  2.1508 -0.4762
30966SOL     OW93475   9.960   4.051   1.641 -0.3961 -0.0879  0.5267
30966SOL    HW193476   9.939   4.132   1.687 -2.4792 -0.4445  0.3159
30966SOL    HW293477   9.987   3.990   1.710 -0.6577  0.2400  0.9262
30967SOL     OW93478   0.599   7.508   5.446 -0.4837  0.2673  0.2079
30967SOL    HW193479   0.649   7.428   5.428  0.3396  0.8554 -0.2179
30967SOL    HW293480   0.574   7.501   5.538 -2.6748 -1.6893 -0.4488
30968SOL     OW93481   5.680   9.509   1.363  0.8449  0.0611 -0.0665
30968SOL    HW193482   5.635   9.425   1.353  0.2858  0.5954 -2.4411
30968SOL    HW293483   5.610   9.573   1.374  1.1260  0.5412 -0.9841
30969SOL     OW93484   4.581   4.624   9.632 -0.6547 -0.0289 -0.3822
30969SOL    HW193485   4.675   4.636   9.619 -0.9180  1.8451 -0.8158
30969SOL    HW293486   4.554   4.567   9.560 -0.1955  1.1827 -1.5416
30970SOL     OW93487   0.585   5.442   8.980  0.4787 -0.0312 -0.1708
30970SOL    HW193488   0.609   5.532   8.955  2.0939 -0.2829  0.3391
30970SOL    HW293489   0.565   5.448   9.073  2.3652 -0.4859  0.2967
30971SOL     OW93490   6.885   7.327   2.691 -0.6003  0.0476 -0.5768
30971SOL    HW193491   6.899   7.320   2.596 -1.7351  1.3411 -0.8707
30971SOL    HW293492   6.865   7.238   2.719  0.7911 -0.5355 -1.3579
30972SOL     OW93493   5.134   5.421   9.593  0.4126  0.6409 -0.1086
30972SOL    HW193494   5.176   5.348   9.637 -0.9842  0.5347  1.1209
30972SOL    HW293495   5.136   5.398   9.500  1.2924 -0.2531  0.1168
30973SOL     OW93496   8.328   9.606   1.863  0.1146 -0.1777 -0.5334
30973SOL    HW193497   8.372   9.531   1.903 -1.9840 -0.0161  2.3815
30973SOL    HW293498   8.382   9.681   1.888  2.2384 -0.5495 -3.4852
30974SOL     OW93499   0.098   3.114   6.411  0.7194 -0.0235 -0.0089
30974SOL    HW193500   0.046   3.155   6.481  1.2746  0.0788  0.3461
30974SOL    HW293501   0.173   3.172   6.399  1.3641 -0.7817  0.3040
30975SOL     OW93502   9.438   8.472   1.437 -0.2484 -0.9406  0.0555
30975SOL    HW193503   9.355   8.428   1.455 -1.3339 -0.4353 -2.9884
30975SOL    HW293504   9.448   8.464   1.342  1.2864  2.2774 -0.1595
30976SOL     OW93505   6.156   8.087   4.520  0.2353 -0.7241  0.2847
30976SOL    HW193506   6.208   8.166   4.509  0.1223 -0.4889  1.2691
30976SOL    HW293507   6.067   8.119   4.537  0.2401 -1.0421  0.9475
30977SOL     OW93508   7.324   9.668   9.927 -0.0993  0.6492 -0.1081
30977SOL    HW193509   7.355   9.585   9.961  0.0343  0.8326  0.2282
30977SOL    HW293510   7.340   9.663   9.833  1.4245  0.9299  0.1112
30978SOL     OW93511   4.457   4.647   8.553  0.4883  0.3230  0.3374
30978SOL    HW193512   4.407   4.574   8.516  1.7408 -0.5965  0.4063
30978SOL    HW293513   4.438   4.721   8.495  1.7583 -0.8622 -1.7066
30979SOL     OW93514   4.699   3.803   4.737 -0.5707  0.4059 -0.1911
30979SOL    HW193515   4.689   3.806   4.832  0.1580 -0.8675 -0.0522
30979SOL    HW293516   4.777   3.856   4.719 -1.0370  1.1217 -0.1527
30980SOL     OW93517   4.741   5.489   0.239 -0.2695 -0.2004  0.4198
30980SOL    HW193518   4.658   5.441   0.232  0.7355 -1.7393 -2.4596
30980SOL    HW293519   4.722   5.575   0.201 -0.6573 -0.3882  0.1773
30981SOL     OW93520   2.752   5.180   9.668  0.2352  0.7299  0.2154
30981SOL    HW193521   2.826   5.238   9.683  0.9410  0.0513 -0.5324
30981SOL    HW293522   2.787   5.092   9.683 -0.8090  0.4698  1.3187
30982SOL     OW93523   6.208   2.991   9.754  0.2283 -0.8053 -0.3714
30982SOL    HW193524   6.196   3.086   9.757  0.7625 -0.7432 -0.1130
30982SOL    HW293525   6.302   2.979   9.746  0.3321 -1.3343  1.2163
30983SOL     OW93526   1.494   5.292   7.418 -0.3000 -0.2947  0.1068
30983SOL    HW193527   1.442   5.333   7.488  2.2500  1.7387  0.9714
30983SOL    HW293528   1.508   5.362   7.354  0.9997 -0.8895 -0.2894
30984SOL     OW93529   7.175   5.230   8.115 -0.1136 -0.5429 -0.2762
30984SOL    HW193530   7.105   5.271   8.165  1.0722  2.5509 -0.9550
30984SOL    HW293531   7.165   5.265   8.026  2.4074  0.2350 -0.3333
30985SOL     OW93532   4.318   0.259   1.684 -1.2133 -0.0025  0.3285
30985SOL    HW193533   4.290   0.190   1.622 -0.8982 -1.0058  1.2704
30985SOL    HW293534   4.396   0.223   1.726 -0.7815  1.1345  0.5340
30986SOL     OW93535   9.847   2.510   7.606 -0.6323 -0.2473 -0.1366
30986SOL    HW193536   9.859   2.468   7.691 -2.2784  1.5055  1.0261
30986SOL    HW293537   9.758   2.486   7.579 -1.4636  2.0552  0.3713
30987SOL     OW93538   2.726   0.679   0.540 -0.0078 -0.2659  0.1006
30987SOL    HW193539   2.684   0.765   0.532  0.5620 -0.0635 -0.8583
30987SOL    HW293540   2.771   0.682   0.625 -1.3624 -0.2476  0.8383
30988SOL     OW93541   7.414   1.335   6.637 -0.0225  0.1528 -0.3243
30988SOL    HW193542   7.404   1.323   6.543  0.4742 -1.1535 -0.2323
30988SOL    HW293543   7.326   1.323   6.673 -0.0412 -0.3666 -0.5349
30989SOL     OW93544   5.077   2.493   2.073  0.2193  0.3753 -0.2003
30989SOL    HW193545   5.044   2.580   2.050 -1.0588  0.4356  1.6556
30989SOL    HW293546   5.027   2.468   2.150  1.7921 -1.2897  0.3476
30990SOL     OW93547   6.085   6.670   0.827 -0.2586  0.1035  0.0204
30990SOL    HW193548   6.034   6.589   0.819 -0.0008 -0.0299 -0.3135
30990SOL    HW293549   6.148   6.666   0.755  0.2681  0.2310  0.4659
30991SOL     OW93550   0.742   0.439   7.711  0.2240  0.3922 -1.0606
30991SOL    HW193551   0.794   0.366   7.677 -0.5316  0.0188 -1.4194
30991SOL    HW293552   0.791   0.468   7.788  1.2915  0.4425 -1.7251
30992SOL     OW93553   7.533   6.363   9.287 -0.4635  0.4645  0.1727
30992SOL    HW193554   7.446   6.330   9.308  0.0030 -1.1283 -0.2534
30992SOL    HW293555   7.519   6.455   9.265 -2.0813  0.1700 -0.1457
30993SOL     OW93556   8.528   3.035   2.675 -0.1282 -0.1051  0.7522
30993SOL    HW193557   8.559   3.021   2.765  0.8694  0.7386  0.5519
30993SOL    HW293558   8.445   2.986   2.671 -0.6583  0.5831  2.4048
30994SOL     OW93559   7.246   0.810   4.714  0.3887 -0.5737 -0.3036
30994SOL    HW193560   7.295   0.786   4.636  2.2992  0.7564  0.4115
30994SOL    HW293561   7.188   0.736   4.731  0.7446 -1.3552 -2.3226
30995SOL     OW93562   5.131   7.162   0.213  0.4566  0.6517  0.2852
30995SOL    HW193563   5.226   7.172   0.205  0.7676 -1.0960  1.4079
30995SOL    HW293564   5.112   7.193   0.302  0.0216  0.6286  0.1985
30996SOL     OW93565   0.453   0.095   2.099 -0.0109 -0.2446  0.0745
30996SOL    HW193566   0.482   0.049   2.178  1.9043  0.3362 -0.2498
30996SOL    HW293567   0.423   0.180   2.132 -2.5035 -1.1998  0.5331
30997SOL     OW93568   8.708   2.408   7.221 -0.0313 -0.0382 -0.7695
30997SOL    HW193569   8.754   2.484   7.187  0.9114 -0.8967 -1.4631
30997SOL    HW293570   8.722   2.412   7.316 -0.9212  1.2309 -0.6722
30998SOL     OW93571   6.420   9.018   3.207 -0.1575 -0.1645 -0.4548
30998SOL    HW193572   6.432   8.931   3.170 -1.8194 -0.0499 -1.3818
30998SOL    HW293573   6.350   9.008   3.272 -0.8262  0.5669 -1.0345
30999SOL     OW93574   5.577   5.290   9.119 -0.3402  0.1302  0.1697
30999SOL    HW193575   5.584   5.373   9.167 -0.5047  1.0362 -1.3158
30999SOL    HW293576   5.667   5.263   9.104 -0.2558 -0.9526  2.2173
31000SOL     OW93577   2.647   9.770   6.382  0.6640  0.1094  0.8009
31000SOL    HW193578   2.572   9.825   6.402  0.5967  0.4261 -0.2508
31000SOL    HW293579   2.690   9.756   6.466 -1.2208 -1.0636  1.6180
31001SOL     OW93580   3.857   7.141   3.379 -0.6461 -0.2274 -0.1967
31001SOL    HW193581   3.820   7.228   3.366 -1.6548 -0.5488  0.4208
31001SOL    HW293582   3.930   7.154   3.439  0.0622  0.3673 -1.1626
31002SOL     OW93583   4.953   1.165   1.865 -0.0902 -0.1666  0.3083
31002SOL    HW193584   4.895   1.089   1.868  0.5623 -0.6565  1.2234
31002SOL    HW293585   5.031   1.136   1.912  0.4319  0.8565  0.0836
31003SOL     OW93586   6.057   7.575   7.076  0.1196 -0.2839 -0.5708
31003SOL    HW193587   6.020   7.516   7.142 -1.1452  1.8747  0.7741
31003SOL    HW293588   6.000   7.564   7.000 -0.4236 -0.3986 -0.1503
31004SOL     OW93589   7.766   6.106   5.326 -0.5538  0.5460 -0.2594
31004SOL    HW193590   7.819   6.143   5.255 -0.3399 -0.3197 -0.5624
31004SOL    HW293591   7.801   6.018   5.339 -0.6611  0.6523  0.8580
31005SOL     OW93592   3.469   5.606   2.461 -0.3962  0.4153  0.6022
31005SOL    HW193593   3.537   5.571   2.519  0.6851  1.3097 -0.0820
31005SOL    HW293594   3.412   5.655   2.519 -1.3066 -1.4794  1.4051
31006SOL     OW93595   6.529   5.830   2.826  0.0666 -0.3605  0.2486
31006SOL    HW193596   6.506   5.754   2.772 -2.9336  0.8409 -0.3473
31006SOL    HW293597   6.586   5.794   2.894  0.0348 -2.8255 -0.8981
31007SOL     OW93598   2.820   2.485   8.068 -0.4202 -0.2621  0.2485
31007SOL    HW193599   2.872   2.523   7.997  0.3920 -1.5322  0.1174
31007SOL    HW293600   2.730   2.508   8.047 -0.2387 -0.8430 -1.3803
31008SOL     OW93601   2.820   3.828   5.602  0.1954  0.2009  0.0128
31008SOL    HW193602   2.865   3.756   5.646  0.6916  0.5873  0.1535
31008SOL    HW293603   2.871   3.906   5.625 -0.9791  0.7759  0.7884
31009SOL     OW93604   6.175   2.841   9.524 -0.0064  0.5153  0.1032
31009SOL    HW193605   6.204   2.751   9.543 -0.0489  0.3196 -0.7104
31009SOL    HW293606   6.178   2.885   9.608  0.4901 -0.1219  0.4328
31010SOL     OW93607   5.553   1.545   2.177  0.1032  0.4543 -0.0873
31010SOL    HW193608   5.502   1.580   2.250  0.5532  0.2196  0.3448
31010SOL    HW293609   5.489   1.532   2.107 -0.0439  2.3721 -0.3625
31011SOL     OW93610   9.312   9.685   5.236 -0.0299 -0.2688  0.5140
31011SOL    HW193611   9.253   9.635   5.178 -0.5831  0.5190  0.3855
31011SOL    HW293612   9.359   9.743   5.177  2.2656 -2.1452  0.3524
31012SOL     OW93613   8.063   7.826   8.505 -0.2036 -0.3392 -0.0857
31012SOL    HW193614   8.086   7.894   8.442 -0.7444 -2.4567 -2.7701
31012SOL    HW293615   7.983   7.787   8.469 -1.3166 -0.8217  2.6751
31013SOL     OW93616   4.800   7.663   8.523 -0.1104 -0.4450 -0.4187
31013SOL    HW193617   4.896   7.665   8.532  0.0377 -0.1156 -1.8757
31013SOL    HW293618   4.784   7.693   8.433 -1.6706  1.0502  0.3035
31014SOL     OW93619   0.254   1.643   8.828 -0.3490 -0.4898 -0.1260
31014SOL    HW193620   0.210   1.695   8.896  1.7768  1.1053  0.1384
31014SOL    HW293621   0.198   1.567   8.817 -0.6580 -1.0467  3.6895
31015SOL     OW93622   6.876   4.846   5.031 -0.0454 -0.4797  0.2797
31015SOL    HW193623   6.879   4.773   4.969  0.0349 -0.7613  0.6152
31015SOL    HW293624   6.848   4.807   5.113 -0.4183 -0.0578  0.3561
31016SOL     OW93625   4.071   4.629   8.860  0.4694  0.1108  0.7073
31016SOL    HW193626   4.155   4.667   8.832  0.1337  0.6480  0.4202
31016SOL    HW293627   4.064   4.548   8.810  1.5263 -0.7120  1.8488
31017SOL     OW93628   1.441   5.021   0.889 -0.3643 -0.2197 -0.5224
31017SOL    HW193629   1.490   4.971   0.824 -0.5455  0.1100 -0.9165
31017SOL    HW293630   1.379   4.958   0.926 -1.3673 -0.0441 -1.8175
31018SOL     OW93631   9.819   0.394   5.105  0.4957 -0.4235 -0.0214
31018SOL    HW193632   9.850   0.468   5.157  0.1832 -1.4872  1.7968
31018SOL    HW293633   9.823   0.424   5.015  0.3609  1.8029  0.6503
31019SOL     OW93634   4.347   7.072   8.776  0.2963  0.4482 -0.2735
31019SOL    HW193635   4.393   7.111   8.849  0.6759 -2.3534  1.1215
31019SOL    HW293636   4.411   7.071   8.705  0.9476  0.5085  0.3042
31020SOL     OW93637   9.287   6.814   4.661 -0.5091 -0.6216 -0.1152
31020SOL    HW193638   9.228   6.866   4.606  0.6338  0.4041 -0.3991
31020SOL    HW293639   9.237   6.799   4.741 -0.7610  1.2467  0.1246
31021SOL     OW93640   9.570   9.361   3.641  0.3292  0.0539 -0.2698
31021SOL    HW193641   9.626   9.297   3.597  0.7993  0.9876 -1.0699
31021SOL    HW293642   9.485   9.353   3.598 -0.1002 -1.1928  0.7764
31022SOL     OW93643   8.512   0.868   7.917  0.4204  0.1184 -0.2992
31022SOL    HW193644   8.544   0.778   7.925 -0.7843 -0.2418  0.7695
31022SOL    HW293645   8.498   0.879   7.823  0.0308 -1.0269 -0.4002
31023SOL     OW93646   9.772   8.387   3.667 -1.1281 -0.0061 -0.0839
31023SOL    HW193647   9.861   8.411   3.644 -1.7136  0.6737 -1.7745
31023SOL    HW293648   9.778   8.355   3.757  0.9003 -0.4978 -0.3525
31024SOL     OW93649   1.168   8.422   0.309 -0.1870 -0.1223 -0.5882
31024SOL    HW193650   1.169   8.418   0.405 -0.7246 -1.2490 -0.6102
31024SOL    HW293651   1.218   8.345   0.281  0.8365  0.7608 -1.2199
31025SOL     OW93652   3.216   6.980   6.387 -0.4288  0.0526 -0.2997
31025SOL    HW193653   3.235   6.889   6.411 -0.6534  0.0887  0.0239
31025SOL    HW293654   3.165   7.014   6.461 -0.8029  0.2807 -0.6596
31026SOL     OW93655   2.927   9.105   5.197 -0.1062  0.3371 -0.0721
31026SOL    HW193656   3.011   9.062   5.209 -0.1863 -0.0373 -0.8230
31026SOL    HW293657   2.945   9.198   5.213  0.5650  0.3317 -0.7263
31027SOL     OW93658   2.904   4.715   6.990  0.1235  0.1512  0.0261
31027SOL    HW193659   2.926   4.793   7.041  0.3767  0.5274 -0.6553
31027SOL    HW293660   2.809   4.711   6.994  0.0817  0.7383 -0.2960
31028SOL     OW93661   1.728   6.509   4.892  0.2752  0.1626  0.4444
31028SOL    HW193662   1.787   6.483   4.820 -0.3437 -0.6013  0.1980
31028SOL    HW293663   1.657   6.556   4.849  0.8027  1.2985  0.7694
31029SOL     OW93664   8.766   6.451   8.193  0.1449 -0.4332  0.8775
31029SOL    HW193665   8.812   6.376   8.229  1.6810 -0.3913 -0.8498
31029SOL    HW293666   8.803   6.463   8.105 -2.0637  0.5904 -0.0118
31030SOL     OW93667   5.009   4.458   1.126  0.0615  0.5998 -1.0905
31030SOL    HW193668   4.916   4.451   1.103  0.5019 -0.0718 -2.8342
31030SOL    HW293669   5.022   4.392   1.194 -0.8468  1.0810 -0.4347
31031SOL     OW93670  -0.018   5.585   0.042  0.0150  0.1997 -0.0971
31031SOL    HW193671   0.033   5.665   0.057 -1.2239  0.9164  0.4567
31031SOL    HW293672   0.027   5.541  -0.030  2.9544 -0.5499  2.0261
31032SOL     OW93673   1.941   6.481   1.936 -0.3027  0.1227 -0.4175
31032SOL    HW193674   1.885   6.440   1.871 -0.7798 -0.7260  0.4959
31032SOL    HW293675   1.995   6.543   1.887  0.2665 -1.4234 -1.8161
31033SOL     OW93676   5.344   2.241   0.892 -0.1355 -0.1799 -0.0210
31033SOL    HW193677   5.290   2.280   0.822  0.6233  1.2713  0.1574
31033SOL    HW293678   5.373   2.316   0.944 -0.9177 -1.2487  2.0680
31034SOL     OW93679   3.876   1.208   7.636 -0.0703 -0.1836  0.4201
31034SOL    HW193680   3.908   1.138   7.579 -0.2843  1.8337 -2.3908
31034SOL    HW293681   3.950   1.230   7.691  1.3752  0.1052 -1.5348
31035SOL     OW93682   5.936   8.616   1.690  0.3289  0.0767 -0.2406
31035SOL    HW193683   6.025   8.619   1.655 -0.3030 -0.2055 -1.9890
31035SOL    HW293684   5.938   8.675   1.765  2.1540 -0.4701  0.1895
31036SOL     OW93685   7.430   4.384   6.439 -0.3747 -0.3116  0.2449
31036SOL    HW193686   7.349   4.393   6.489 -0.3591 -1.2876  0.4760
31036SOL    HW293687   7.402   4.343   6.357 -0.2843  0.5380 -0.2259
31037SOL     OW93688   4.230   8.476   9.174  0.3338  0.5722 -0.1110
31037SOL    HW193689   4.235   8.425   9.255 -0.9916  0.4134 -0.0973
31037SOL    HW293690   4.151   8.529   9.185  2.0211  3.2064  0.1662
31038SOL     OW93691   3.052   8.081   1.620  0.2133  0.0807 -0.2392
31038SOL    HW193692   2.994   8.008   1.599 -0.8816  0.5377  1.0817
31038SOL    HW293693   3.005   8.133   1.685  1.0384  1.8702 -0.9713
31039SOL     OW93694   9.382   1.731   6.276  0.4188 -1.0443  0.1389
31039SOL    HW193695   9.382   1.783   6.196  0.5916 -1.9408 -0.4574
31039SOL    HW293696   9.349   1.645   6.249  1.1027 -1.5573  0.8893
31040SOL     OW93697   0.588   7.353   7.373 -0.0336 -0.8487 -0.2987
31040SOL    HW193698   0.529   7.287   7.409 -0.2654 -0.4634  0.0363
31040SOL    HW293699   0.533   7.404   7.313 -0.0354 -0.5106 -0.0115
31041SOL     OW93700   3.172   7.619   6.512  0.1004  0.1807 -0.2623
31041SOL    HW193701   3.124   7.625   6.595  1.3649  1.4770  0.4170
31041SOL    HW293702   3.202   7.528   6.508  0.0130  0.0987  0.6983
31042SOL     OW93703   9.030   8.731   9.744  0.3476  0.0951  0.1978
31042SOL    HW193704   8.980   8.675   9.685 -0.5729 -0.0548  1.0967
31042SOL    HW293705   8.970   8.801   9.767  0.1924 -0.5917  2.0379
31043SOL     OW93706   9.341   3.367   8.586 -0.6301  0.7398  0.1515
31043SOL    HW193707   9.432   3.380   8.611  0.3380 -0.8634 -2.1809
31043SOL    HW293708   9.321   3.442   8.529 -0.1250  0.1318 -0.8468
31044SOL     OW93709   0.266   2.009   7.452  0.4008  0.2016 -0.0529
31044SOL    HW193710   0.353   2.001   7.413  0.7520  0.9140  0.5540
31044SOL    HW293711   0.206   2.009   7.377  0.9586  0.1654 -0.5030
31045SOL     OW93712   4.870   6.547   1.974 -0.5212  0.0012 -0.6519
31045SOL    HW193713   4.880   6.613   2.043  0.1822 -0.3571 -0.3986
31045SOL    HW293714   4.941   6.485   1.990  1.1862  1.1742 -3.1579
31046SOL     OW93715   6.216   5.761   2.561 -0.2844 -0.0144 -0.4052
31046SOL    HW193716   6.299   5.719   2.581 -0.1130  0.5014 -0.0274
31046SOL    HW293717   6.236   5.821   2.489 -0.0919  0.8654  0.3530
31047SOL     OW93718   2.344   2.325   6.978 -0.1686  0.2239  0.4069
31047SOL    HW193719   2.323   2.380   7.053  0.4415  0.3880  0.4679
31047SOL    HW293720   2.319   2.237   7.005  0.2513  0.2477  0.8948
31048SOL     OW93721   1.153   8.881   0.919  0.7858 -0.0577 -0.1976
31048SOL    HW193722   1.186   8.945   0.982 -1.5025 -1.3247  2.5277
31048SOL    HW293723   1.059   8.898   0.915  0.2630 -2.5496 -0.1504
31049SOL     OW93724   2.119   5.402   6.160  0.1081  0.1514 -0.1178
31049SOL    HW193725   2.132   5.328   6.101 -0.5128  1.4705 -2.0045
31049SOL    HW293726   2.108   5.477   6.102 -0.5263  1.5353  1.7024
31050SOL     OW93727   3.164   0.811   0.862 -0.0461 -0.3945  0.0787
31050SOL    HW193728   3.227   0.755   0.906 -0.1475  0.2332  1.0559
31050SOL    HW293729   3.110   0.847   0.933 -1.7041 -1.1359 -0.7325
31051SOL     OW93730   7.932   3.020   9.638  0.0163  0.9744 -0.6346
31051SOL    HW193731   7.891   3.047   9.556  0.9911  3.8495 -0.2778
31051SOL    HW293732   7.880   3.062   9.706 -1.3974 -2.1771  0.4233
31052SOL     OW93733   2.973   7.947   4.296  0.2154 -0.2406  0.0304
31052SOL    HW193734   2.944   7.885   4.229  0.4783 -1.2011  0.7827
31052SOL    HW293735   3.065   7.924   4.312  0.6210  1.0067 -0.3942
31053SOL     OW93736   6.635   4.559   5.441 -0.3991 -0.0081  0.5226
31053SOL    HW193737   6.725   4.540   5.414 -0.1699 -0.7271  1.6973
31053SOL    HW293738   6.582   4.498   5.390 -0.4221  1.4802 -1.3533
31054SOL     OW93739   2.764   8.411   6.881 -0.2087 -0.1162 -0.2822
31054SOL    HW193740   2.781   8.362   6.800  0.1952 -1.6485  0.6882
31054SOL    HW293741   2.766   8.502   6.854  1.3473 -0.5237 -1.7663
31055SOL     OW93742   3.237   1.831   6.087 -0.4832  0.1193 -0.0992
31055SOL    HW193743   3.204   1.904   6.034  0.4454  0.9981  0.4850
31055SOL    HW293744   3.193   1.754   6.052  1.2123  0.4163 -3.1473
31056SOL     OW93745   1.476   5.649   2.752 -0.2503  0.4214  0.3111
31056SOL    HW193746   1.517   5.736   2.751 -0.5508  0.5604 -0.0043
31056SOL    HW293747   1.460   5.632   2.845  1.5124 -0.1059  0.5655
31057SOL     OW93748   5.376   8.166   2.499 -0.0087 -0.0007 -0.0755
31057SOL    HW193749   5.331   8.083   2.482  0.0492 -0.1179  0.3459
31057SOL    HW293750   5.312   8.218   2.547 -0.2228  0.3877 -0.7638
31058SOL     OW93751   7.126   3.180   1.010  0.5904  0.7450 -0.2068
31058SOL    HW193752   7.094   3.255   0.959 -1.7555  0.8472  1.2871
31058SOL    HW293753   7.048   3.128   1.027  2.0027 -1.5082 -0.2496
31059SOL     OW93754   2.855   2.489   6.775 -0.4166 -0.0625 -0.0433
31059SOL    HW193755   2.831   2.580   6.757 -0.3511 -0.0950 -0.2923
31059SOL    HW293756   2.780   2.454   6.823 -0.5835  0.0286 -0.2356
31060SOL     OW93757   1.393   1.734   1.649  0.4198  0.2397 -0.4229
31060SOL    HW193758   1.336   1.660   1.669  1.2388 -0.5770 -1.0646
31060SOL    HW293759   1.332   1.807   1.634 -0.3318  0.2668  2.2676
31061SOL     OW93760   6.970   9.028   0.270 -0.2749  0.1677  0.1259
31061SOL    HW193761   6.990   8.943   0.309 -1.8309 -0.9332 -1.3398
31061SOL    HW293762   6.924   9.007   0.189  1.2319  2.3724 -1.4210
31062SOL     OW93763   4.634   8.817   1.670  0.3429 -0.0936 -0.1221
31062SOL    HW193764   4.655   8.911   1.664  0.8041 -0.2402 -0.9404
31062SOL    HW293765   4.559   8.813   1.729 -0.3208  0.8905 -0.8730
31063SOL     OW93766   7.883   6.269   8.293  0.3234 -0.5453 -0.0008
31063SOL    HW193767   7.907   6.267   8.201 -0.1928  0.9175 -0.1980
31063SOL    HW293768   7.893   6.361   8.319  1.3557 -1.0750  1.6542
31064SOL     OW93769   9.212   0.356   1.384  0.3002 -0.4272  0.0669
31064SOL    HW193770   9.307   0.362   1.392  0.1464 -0.0781  2.2017
31064SOL    HW293771   9.183   0.446   1.369  0.1819 -0.2302  1.4075
31065SOL     OW93772   0.091   6.752   6.734  0.0392 -0.6319  0.1762
31065SOL    HW193773   0.052   6.750   6.821 -0.1839  0.0312  0.0964
31065SOL    HW293774   0.152   6.678   6.733  0.4474 -0.3138  1.0753
31066SOL     OW93775   2.712   0.917   2.704  0.4940 -0.1675  0.0195
31066SOL    HW193776   2.778   0.870   2.754 -0.1061 -1.9120 -0.7339
31066SOL    HW293777   2.652   0.952   2.770 -0.0018 -1.9785  0.5729
31067SOL     OW93778   3.670   7.641   9.764  0.6832  0.4276  0.1701
31067SOL    HW193779   3.644   7.553   9.789  1.9434 -0.6005 -1.9040
31067SOL    HW293780   3.593   7.677   9.718 -0.2275  0.8784  1.9741
31068SOL     OW93781   2.434   1.908   8.470  1.0416  0.5192  0.1810
31068SOL    HW193782   2.433   1.929   8.563 -0.1940  1.4861 -0.0174
31068SOL    HW293783   2.523   1.926   8.442  2.2947 -2.5657  1.7309
31069SOL     OW93784   2.425   4.040   9.016  0.8200  0.0026 -0.1189
31069SOL    HW193785   2.515   4.045   9.047  1.4225 -0.4041 -1.7453
31069SOL    HW293786   2.400   3.949   9.027  1.3076 -0.3151 -1.5125
31070SOL     OW93787   0.243   2.556   9.862  0.0386  0.4053  0.7613
31070SOL    HW193788   0.254   2.465   9.889  0.3696  0.3171  0.3379
31070SOL    HW293789   0.207   2.551   9.774  2.7609  0.6320 -0.4568
31071SOL     OW93790   9.265   9.836   9.562 -0.8467  0.8121 -0.2991
31071SOL    HW193791   9.332   9.768   9.571 -0.4924  1.3108  1.0821
31071SOL    HW293792   9.185   9.796   9.595 -0.4789  1.2537  1.2330
31072SOL     OW93793   0.314   0.659   1.969 -0.3309  0.2889  0.1348
31072SOL    HW193794   0.272   0.613   2.042  2.6515 -1.9392  0.6240
31072SOL    HW293795   0.387   0.706   2.009  1.2965 -0.8773 -1.3442
31073SOL     OW93796   6.658   0.379   3.409  0.5350 -0.6065  0.1964
31073SOL    HW193797   6.690   0.432   3.482  0.5435 -0.2149 -0.0923
31073SOL    HW293798   6.562   0.385   3.415  0.4978 -1.5875  0.9181
31074SOL     OW93799   4.114   1.990   2.869 -0.1016 -0.3058  0.0252
31074SOL    HW193800   4.064   2.046   2.928  0.5544 -0.3069  0.5925
31074SOL    HW293801   4.070   1.905   2.875 -1.6987  0.3387 -1.5802
31075SOL     OW93802   5.278   1.288   1.183 -0.2961 -0.0951  0.0587
31075SOL    HW193803   5.225   1.285   1.103  0.1623 -2.4399 -0.2249
31075SOL    HW293804   5.216   1.274   1.254 -0.6923  1.9146  0.1757
31076SOL     OW93805   5.286   0.795   5.004  0.3340 -0.1043  0.0762
31076SOL    HW193806   5.204   0.844   4.997  0.9962  1.1439  0.7223
31076SOL    HW293807   5.271   0.733   5.075 -0.1989 -0.2029 -0.1165
31077SOL     OW93808   1.294   6.654   8.227 -0.6593  0.8540  0.0500
31077SOL    HW193809   1.205   6.679   8.201 -1.3029 -1.5592 -0.2727
31077SOL    HW293810   1.297   6.673   8.321 -1.3729  1.3507 -0.0187
31078SOL     OW93811   7.435   2.569   3.973  0.5501 -0.0350  0.1562
31078SOL    HW193812   7.348   2.606   3.956  0.7752  0.4437  0.0080
31078SOL    HW293813   7.426   2.523   4.056  0.3419  0.6603  0.5296
31079SOL     OW93814   1.067   2.478   1.322 -0.1556 -0.2199  0.6604
31079SOL    HW193815   0.995   2.430   1.362  0.0427 -0.5867  0.5844
31079SOL    HW293816   1.094   2.424   1.248 -0.4318  0.3858  0.1034
31080SOL     OW93817   9.758   7.749   2.130 -0.7323  0.5653  0.2295
31080SOL    HW193818   9.760   7.822   2.069 -0.7757 -0.0461 -0.5276
31080SOL    HW293819   9.737   7.788   2.215 -0.3878  1.4652 -0.0934
31081SOL     OW93820   5.437   0.425   3.136 -0.4193 -0.0368  0.2055
31081SOL    HW193821   5.508   0.411   3.074 -0.6669 -3.1983  0.4935
31081SOL    HW293822   5.480   0.450   3.218  0.3368 -1.1695  0.1676
31082SOL     OW93823   1.690   6.124   3.777 -0.3274  0.4823 -0.1014
31082SOL    HW193824   1.770   6.130   3.725 -0.8182 -1.1850 -1.1415
31082SOL    HW293825   1.682   6.209   3.819  0.3677  1.7613 -2.3768
31083SOL     OW93826   6.286   5.743   7.609 -0.2804  0.3373  0.0994
31083SOL    HW193827   6.201   5.720   7.573  0.6408 -2.2606 -0.6437
31083SOL    HW293828   6.283   5.839   7.619 -3.4483  0.2856  0.6854
31084SOL     OW93829   7.304   8.590   8.878  0.2308 -0.0987 -0.4126
31084SOL    HW193830   7.351   8.517   8.919  1.6241  0.4072 -1.0431
31084SOL    HW293831   7.212   8.567   8.887  0.6088 -1.5361  0.1319
31085SOL     OW93832   3.172   9.929   6.082  0.0146 -0.2124 -0.5029
31085SOL    HW193833   3.098   9.981   6.113 -1.3583 -1.8596 -0.8626
31085SOL    HW293834   3.180   9.951   5.989  0.6431  0.7084 -0.2408
31086SOL     OW93835   2.732   4.526   2.918  0.0660  0.1411  0.4524
31086SOL    HW193836   2.675   4.580   2.973 -1.0596 -0.7755  0.2188
31086SOL    HW293837   2.819   4.563   2.931 -0.3667  0.7488  1.8636
31087SOL     OW93838   2.566   8.066   3.565 -0.3300  0.3003  0.4847
31087SOL    HW193839   2.505   8.006   3.608  0.8075  0.1200  1.9711
31087SOL    HW293840   2.578   8.030   3.477 -0.0879 -1.3909  1.1641
31088SOL     OW93841   7.791   2.460   0.786  0.1833 -0.6222 -0.0020
31088SOL    HW193842   7.696   2.448   0.780 -0.1464  1.6164 -0.3380
31088SOL    HW293843   7.802   2.544   0.831  1.9616 -0.2094 -1.0915
31089SOL     OW93844   3.808   1.550   6.732  0.0781 -0.2207 -0.7726
31089SOL    HW193845   3.833   1.605   6.657  1.2121  0.6727  0.2169
31089SOL    HW293846   3.712   1.547   6.729  0.0282  1.1373 -1.3376
31090SOL     OW93847   7.798   8.518   8.703 -0.0250 -0.6665 -0.4138
31090SOL    HW193848   7.724   8.565   8.742 -2.0850 -1.9401 -2.5065
31090SOL    HW293849   7.778   8.516   8.610  2.3222 -1.7178 -0.9596
31091SOL     OW93850   3.609   1.957   9.365 -0.5873 -0.6727  0.9261
31091SOL    HW193851   3.568   2.035   9.402 -0.7241 -0.2572 -0.0749
31091SOL    HW293852   3.611   1.895   9.437 -1.4151 -0.1024  1.4605
31092SOL     OW93853   9.823   8.388   9.696  0.0599  0.4300  0.3817
31092SOL    HW193854   9.810   8.303   9.655  0.8676  0.1210  0.7383
31092SOL    HW293855   9.742   8.436   9.679 -0.1040 -0.1262 -0.4971
31093SOL     OW93856   7.647   5.890   8.274 -0.0471  0.3761 -0.1318
31093SOL    HW193857   7.736   5.923   8.261 -0.6275  1.9874 -0.2396
31093SOL    HW293858   7.657   5.817   8.336  1.5995 -1.0424 -1.9272
31094SOL     OW93859   9.439   6.754   8.708  0.4080  0.4063 -0.4141
31094SOL    HW193860   9.491   6.778   8.631  2.9785 -1.8175  0.4694
31094SOL    HW293861   9.436   6.658   8.705 -1.3936  0.3794  1.0704
31095SOL     OW93862   7.163   6.148   9.674  0.4695  0.9429 -0.4615
31095SOL    HW193863   7.084   6.101   9.700  0.6119  1.8584  1.8757
31095SOL    HW293864   7.162   6.146   9.578 -1.3569 -0.7128 -0.4608
31096SOL     OW93865   6.506   3.153   7.666  0.2249  0.1728 -0.1535
31096SOL    HW193866   6.540   3.063   7.667  0.0469  0.1067  0.4937
31096SOL    HW293867   6.487   3.172   7.758 -2.1010 -0.0327 -0.5277
31097SOL     OW93868   8.469   6.006   8.733 -0.6097 -0.4837 -0.1994
31097SOL    HW193869   8.510   6.076   8.784  1.4338 -0.9859 -1.0337
31097SOL    HW293870   8.461   5.934   8.796  2.7168 -1.4071 -0.6077
31098SOL     OW93871   3.097   2.438   9.954  0.5685  0.2552 -0.3189
31098SOL    HW193872   3.109   2.383  10.031  0.8517  1.2926  0.3975
31098SOL    HW293873   3.054   2.380   9.890 -1.9957  0.0167  1.4489
31099SOL     OW93874   5.427   1.481   4.437 -0.2630  0.2960  0.1926
31099SOL    HW193875   5.431   1.446   4.527 -0.0754  0.7508  0.3621
31099SOL    HW293876   5.432   1.576   4.448 -1.1351  0.3998 -0.2492
31100SOL     OW93877   1.245   2.397   8.754  0.3753 -0.1580  0.1481
31100SOL    HW193878   1.184   2.361   8.819 -1.0943  0.1241 -1.0214
31100SOL    HW293879   1.215   2.487   8.739  0.9481 -0.0792 -0.5983
31101SOL     OW93880   4.968   9.132   7.492 -0.8834 -0.2823 -0.1686
31101SOL    HW193881   4.886   9.083   7.490 -2.2763  1.9525 -0.6883
31101SOL    HW293882   4.944   9.217   7.528  1.6179 -0.1962  1.5698
31102SOL     OW93883   2.713   0.755   0.057  0.1348  0.0635 -0.0282
31102SOL    HW193884   2.633   0.752   0.110 -1.9542  1.0791 -2.8127
31102SOL    HW293885   2.728   0.848   0.042  0.9094 -0.1807 -0.8564
31103SOL     OW93886   8.109   6.723   2.145 -0.8008 -0.4222 -0.2049
31103SOL    HW193887   8.186   6.668   2.163  0.1122 -0.4521 -3.6041
31103SOL    HW293888   8.126   6.803   2.195  0.8526 -0.9009  0.0779
31104SOL     OW93889   9.647   6.331   0.113 -0.4227 -0.4366 -0.2276
31104SOL    HW193890   9.597   6.254   0.141 -0.6510 -0.4130 -0.5606
31104SOL    HW293891   9.615   6.349   0.025 -0.7464  0.3626  0.0501
31105SOL     OW93892   1.033   8.587   9.007 -0.4520 -0.3375 -0.9614
31105SOL    HW193893   0.956   8.553   8.960 -0.1932 -0.1909 -1.5018
31105SOL    HW293894   1.092   8.616   8.937  1.0184 -2.3847 -0.6334
31106SOL     OW93895   8.292   5.080   5.581  0.2197 -0.3057 -0.1150
31106SOL    HW193896   8.221   5.102   5.641  0.6175  0.7208  0.0004
31106SOL    HW293897   8.283   5.142   5.509 -0.1908 -1.4527 -1.0939
31107SOL     OW93898   3.836   8.567   5.553  0.2242 -0.9822  0.4607
31107SOL    HW193899   3.854   8.562   5.647 -0.5789 -0.7130  0.6427
31107SOL    HW293900   3.905   8.516   5.512  0.0382 -1.9172  1.2730
31108SOL     OW93901   9.168   3.339   4.182  0.0970  0.5063 -0.0521
31108SOL    HW193902   9.249   3.388   4.195 -1.8672  3.9060  0.5766
31108SOL    HW293903   9.104   3.382   4.240 -2.5264 -1.0491 -1.5839
31109SOL     OW93904   5.366   3.714   3.916  0.7017  0.2552 -0.5293
31109SOL    HW193905   5.423   3.676   3.983  0.0827 -0.1762 -0.2398
31109SOL    HW293906   5.385   3.663   3.837  1.0809  0.4458 -0.5622
31110SOL     OW93907   9.733   4.068   3.421  0.1660  0.3981 -0.1621
31110SOL    HW193908   9.797   3.999   3.436  1.0323  1.1380 -0.3655
31110SOL    HW293909   9.650   4.030   3.449  0.7372 -0.4756  0.4040
31111SOL     OW93910   5.339   9.544   9.378  0.3640 -0.2761  0.1788
31111SOL    HW193911   5.347   9.454   9.348 -2.7766 -0.4967 -0.3824
31111SOL    HW293912   5.272   9.541   9.446 -1.2295  1.7955 -1.1446
31112SOL     OW93913   5.321   5.645   2.764  0.5429  0.3021  0.1487
31112SOL    HW193914   5.352   5.656   2.674 -1.7535  1.7384 -0.5567
31112SOL    HW293915   5.290   5.732   2.790 -1.3342 -0.6545  1.3324
31113SOL     OW93916   8.796   0.107   3.342  0.1383 -0.1168 -0.1582
31113SOL    HW193917   8.884   0.111   3.380 -0.3678 -2.3170  1.4351
31113SOL    HW293918   8.810   0.119   3.248  2.2996 -1.3416 -0.0665
31114SOL     OW93919   7.275   8.097   1.866  0.1140  0.1319 -0.5890
31114SOL    HW193920   7.281   8.183   1.909 -1.8333  0.5317 -1.0096
31114SOL    HW293921   7.279   8.034   1.938  1.2099  0.5685 -0.2428
31115SOL     OW93922   3.344   2.290   1.548 -0.0029  0.6746  0.1964
31115SOL    HW193923   3.357   2.208   1.595 -0.1049  0.4133 -0.2265
31115SOL    HW293924   3.377   2.358   1.607 -0.3693  0.3759  0.7529
31116SOL     OW93925   6.084   5.515   5.281  0.0844 -0.0021  0.4413
31116SOL    HW193926   6.104   5.444   5.221 -0.9382 -0.7599  0.9618
31116SOL    HW293927   6.147   5.584   5.260  0.2727 -0.5724 -0.9306
31117SOL     OW93928   9.999   6.195   5.283 -0.0549  0.4635  0.3115
31117SOL    HW193929   9.906   6.215   5.277  0.2976  2.2487  0.2702
31117SOL    HW293930  10.002   6.102   5.303 -1.8846  0.6150  1.5269
31118SOL     OW93931   6.168   2.633   4.917  0.4639  0.2359  0.5945
31118SOL    HW193932   6.252   2.677   4.914  0.0327  1.2243  2.0769
31118SOL    HW293933   6.188   2.541   4.900  1.7451  0.5548  0.3134
31119SOL     OW93934   4.721   0.220   6.121  0.6719 -0.1708  0.2108
31119SOL    HW193935   4.814   0.197   6.114  0.5243 -0.9919  0.7366
31119SOL    HW293936   4.720   0.296   6.180  0.9621 -0.6093  0.7944
31120SOL     OW93937   6.644   5.005   7.116 -0.5903  0.4800 -0.1711
31120SOL    HW193938   6.555   4.990   7.083 -0.9719  0.9513  0.6212
31120SOL    HW293939   6.697   4.938   7.073 -1.3372  0.1531 -0.6049
31121SOL     OW93940   6.020   1.067   1.743 -0.0541  0.1800 -0.3897
31121SOL    HW193941   5.973   1.012   1.680  0.7725  0.5223 -1.3475
31121SOL    HW293942   6.000   1.157   1.715 -2.3746  0.4888  1.8738
31122SOL     OW93943   5.012   0.058   8.599 -0.2104  0.1707 -0.0066
31122SOL    HW193944   5.020   0.112   8.521 -0.1157 -0.0671 -0.1626
31122SOL    HW293945   5.092   0.004   8.599  0.8576  1.6539  1.4015
31123SOL     OW93946   5.233   3.785   2.145 -0.1275 -0.1837  0.5386
31123SOL    HW193947   5.162   3.721   2.149 -0.4255  0.1342  0.4102
31123SOL    HW293948   5.260   3.786   2.053  1.2985 -1.6444  0.8969
31124SOL     OW93949   3.688   1.261   3.875  0.2433  0.4946  0.1049
31124SOL    HW193950   3.691   1.246   3.780 -0.0171  1.3082 -0.0391
31124SOL    HW293951   3.643   1.184   3.910 -0.4788  0.6146 -0.5328
31125SOL     OW93952   0.586   6.595   8.604 -0.1602  0.2190  0.3440
31125SOL    HW193953   0.502   6.633   8.578  0.9358  1.8205 -1.0556
31125SOL    HW293954   0.581   6.504   8.576 -0.8229  0.7193 -1.2443
31126SOL     OW93955   1.907   8.740   0.115  0.3411 -0.4636  0.1053
31126SOL    HW193956   1.925   8.660   0.066 -0.3144 -0.8848  0.5374
31126SOL    HW293957   1.886   8.709   0.203  1.4975  0.2812  0.6663
31127SOL     OW93958   9.647   0.202   2.015 -0.0949  0.1229 -0.1082
31127SOL    HW193959   9.652   0.181   2.108  1.9655  1.1501  0.0621
31127SOL    HW293960   9.554   0.198   1.994 -0.4795 -1.6222  1.6210
31128SOL     OW93961   3.128   0.550   7.922 -0.3943 -0.5012  0.3468
31128SOL    HW193962   3.139   0.616   7.990  0.2462  0.7831 -0.9334
31128SOL    HW293963   3.207   0.559   7.868  0.2556 -3.1191  0.7563
31129SOL     OW93964   3.877   3.229   7.135  0.0482 -0.3601  0.4736
31129SOL    HW193965   3.965   3.264   7.144  0.2810 -0.8688  0.2008
31129SOL    HW293966   3.822   3.306   7.122  0.1975  0.1051  2.3882
31130SOL     OW93967   4.810   6.109   5.902  0.5350  0.3498  0.3915
31130SOL    HW193968   4.861   6.029   5.887  1.4279  1.1270 -0.8809
31130SOL    HW293969   4.864   6.161   5.962  0.7644  0.7304 -0.1409
31131SOL     OW93970   8.600   0.987   6.239 -0.2570 -0.0567  0.4964
31131SOL    HW193971   8.526   0.930   6.217  0.5518 -0.9877  0.1419
31131SOL    HW293972   8.588   1.063   6.182 -1.0784 -0.0770  0.6237
31132SOL     OW93973   1.493   9.048   7.943 -0.1689 -0.5271  0.2448
31132SOL    HW193974   1.561   9.071   7.880 -0.3480 -0.8737 -0.0716
31132SOL    HW293975   1.480   8.954   7.932 -0.4795 -0.5190  0.5207
31133SOL     OW93976   2.700   8.232   6.001 -0.8764 -0.3206  0.2023
31133SOL    HW193977   2.618   8.200   5.963 -0.0079 -1.3724 -0.8720
31133SOL    HW293978   2.732   8.295   5.937 -0.6126 -0.2750  0.3825
31134SOL     OW93979   2.203   2.530   9.405 -0.0423  0.7442  0.0321
31134SOL    HW193980   2.144   2.456   9.419  0.3564  0.1677 -1.2059
31134SOL    HW293981   2.160   2.584   9.338  0.2191  1.0214  0.0822
31135SOL     OW93982   4.530   3.168   3.601 -0.0499  0.4921 -0.9999
31135SOL    HW193983   4.581   3.193   3.524 -0.8709 -0.2465 -1.7969
31135SOL    HW293984   4.439   3.173   3.573 -0.5005  2.1506  0.5069
31136SOL     OW93985   1.574   5.450   5.140  0.3356  0.0356  0.1709
31136SOL    HW193986   1.641   5.390   5.174  1.8393  0.3085 -2.0890
31136SOL    HW293987   1.610   5.537   5.156  0.7168  0.1799 -1.3191
31137SOL     OW93988   8.394   3.210   7.306 -0.2505  0.0091  0.2119
31137SOL    HW193989   8.322   3.228   7.246  1.4839 -2.7239 -3.0020
31137SOL    HW293990   8.361   3.139   7.361 -0.1617 -1.1066 -1.1201
31138SOL     OW93991   9.861   4.434   8.066  0.0146 -0.2254 -0.8515
31138SOL    HW193992   9.780   4.434   8.015 -0.6180  0.5460  0.0974
31138SOL    HW293993   9.915   4.365   8.027 -0.9306 -0.4718 -1.7635
31139SOL     OW93994   5.778   2.337   3.880  0.2731  0.1113  0.4578
31139SOL    HW193995   5.777   2.291   3.964  2.5090  0.0212  0.5002
31139SOL    HW293996   5.746   2.272   3.818  0.8207 -0.6374  0.9219
31140SOL     OW93997   8.916   1.159   2.054 -0.0951 -0.1849  0.3745
31140SOL    HW193998   8.984   1.126   2.113 -1.7355 -1.1646  1.8248
31140SOL    HW293999   8.849   1.091   2.054 -0.5691  0.1922 -1.9797
31141SOL     OW94000   3.564   8.700   5.262 -0.5815  0.6886 -0.3832
31141SOL    HW194001   3.622   8.627   5.239  0.7152  2.4907 -3.4358
31141SOL    HW294002   3.613   8.749   5.328 -1.5980 -1.2178  1.9348
31142SOL     OW94003   7.570   4.533   3.178  0.2875  0.1379  0.2154
31142SOL    HW194004   7.606   4.490   3.100 -0.1348  0.2720 -0.0580
31142SOL    HW294005   7.478   4.505   3.180  0.2223  0.3705  0.4991
31143SOL     OW94006   3.357   6.566   9.399  0.7050 -0.5252 -0.0112
31143SOL    HW194007   3.333   6.623   9.473 -1.0372  0.3981 -1.1952
31143SOL    HW294008   3.307   6.486   9.413 -1.0130  0.3134 -1.0128
31144SOL     OW94009   3.123   3.221   2.590 -0.1685 -0.5541 -0.7402
31144SOL    HW194010   3.188   3.172   2.640  0.3458  0.3023 -0.5366
31144SOL    HW294011   3.045   3.166   2.590 -0.5976 -0.1014  2.0775
31145SOL     OW94012   4.676   0.505   2.513 -0.3177  0.2165  0.5637
31145SOL    HW194013   4.590   0.546   2.524 -1.7061 -1.9165 -1.4955
31145SOL    HW294014   4.666   0.416   2.547  1.0746 -0.1155  0.2031
31146SOL     OW94015   9.692   4.980   0.689  0.3489  0.1571 -0.1295
31146SOL    HW194016   9.698   4.885   0.677 -0.1999  0.1508 -0.3632
31146SOL    HW294017   9.783   5.009   0.690  0.5033 -0.2430 -1.1713
31147SOL     OW94018   6.314   4.229   4.851 -0.0012 -0.3907  0.1797
31147SOL    HW194019   6.350   4.148   4.886  0.9038  1.1246  3.0705
31147SOL    HW294020   6.232   4.241   4.897 -0.2767  0.1867 -0.4406
31148SOL     OW94021   9.106   8.597   5.021 -0.6439 -0.1621  0.0211
31148SOL    HW194022   9.034   8.536   5.033 -0.0521 -0.7831  0.5052
31148SOL    HW294023   9.149   8.601   5.107  0.3324 -0.3870 -0.4315
31149SOL     OW94024   8.417   9.583   0.372 -0.0193  0.7678 -0.3580
31149SOL    HW194025   8.504   9.612   0.401  0.0435  0.1312  0.0984
31149SOL    HW294026   8.428   9.566   0.278  0.2837  0.9401 -0.3563
31150SOL     OW94027   3.353   3.759   9.012  0.4570 -0.3020 -0.3568
31150SOL    HW194028   3.298   3.836   8.998  0.9581  0.2193  0.4203
31150SOL    HW294029   3.293   3.693   9.048  0.3400  0.3047  0.6112
31151SOL     OW94030   1.561   9.678   6.895  0.3522  0.7896  0.3159
31151SOL    HW194031   1.627   9.704   6.831 -0.1611  2.4994  0.4351
31151SOL    HW294032   1.549   9.584   6.881 -0.1737  1.1956 -2.4954
31152SOL     OW94033   9.123   3.635   8.879 -0.0339 -0.2725  0.8142
31152SOL    HW194034   9.057   3.573   8.911  0.9231 -1.0921  1.2661
31152SOL    HW294035   9.198   3.620   8.936  0.7907  0.1305 -0.1518
31153SOL     OW94036   7.630   3.854   4.453 -0.0695  0.0068 -0.3678
31153SOL    HW194037   7.657   3.839   4.543  1.2515  1.2493 -0.5159
31153SOL    HW294038   7.633   3.949   4.443  0.9133 -0.1658 -2.0399
31154SOL     OW94039   2.831   1.803   0.841  0.8522 -0.0258  0.7272
31154SOL    HW194040   2.869   1.863   0.778  0.5906  0.8919  1.4220
31154SOL    HW294041   2.802   1.728   0.789  0.7806  0.6382 -0.2129
31155SOL     OW94042   2.490   0.520   5.600 -0.1976 -0.7831 -0.0123
31155SOL    HW194043   2.541   0.440   5.588  2.3086  0.7846 -0.4428
31155SOL    HW294044   2.474   0.552   5.511  1.8109  0.8930  0.1429
31156SOL     OW94045   2.201   4.868   1.847  0.3981 -0.0754 -0.0298
31156SOL    HW194046   2.108   4.891   1.845  0.5715  0.6686  0.0053
31156SOL    HW294047   2.246   4.952   1.849  1.2082 -0.2644 -3.6170
31157SOL     OW94048   3.162   9.262   4.710 -0.2728 -0.7110  0.1425
31157SOL    HW194049   3.155   9.308   4.627  2.0152  2.3305  1.4475
31157SOL    HW294050   3.228   9.195   4.695 -1.4682 -1.6909 -0.9966
31158SOL     OW94051   1.719   5.972   9.850 -0.1458 -0.4495 -0.2995
31158SOL    HW194052   1.712   5.940   9.760 -1.3881 -1.0016 -0.0262
31158SOL    HW294053   1.747   6.063   9.841 -2.5525  0.2808 -1.3917
31159SOL     OW94054   1.763   7.005   6.879 -0.8037 -0.6122  0.1744
31159SOL    HW194055   1.761   7.020   6.784 -1.0051  0.2299  0.3070
31159SOL    HW294056   1.836   6.944   6.892 -0.7134 -0.6569 -0.5146
31160SOL     OW94057   1.357   1.296   8.945  0.7694 -0.4450 -0.2961
31160SOL    HW194058   1.369   1.210   8.986  1.8725  0.3549  1.1637
31160SOL    HW294059   1.326   1.352   9.017 -2.1015 -0.0652 -1.6898
31161SOL     OW94060   2.459   6.349   6.739 -0.3436  0.0216 -0.2094
31161SOL    HW194061   2.463   6.287   6.667 -2.1911  1.0313 -1.2540
31161SOL    HW294062   2.428   6.297   6.814 -1.9763 -0.3375 -1.0889
31162SOL     OW94063   4.324   6.752   6.216 -0.1519 -0.1228  0.3084
31162SOL    HW194064   4.275   6.681   6.176 -0.0333 -1.1907  1.9658
31162SOL    HW294065   4.283   6.832   6.183  0.1071 -0.9040 -2.0827
31163SOL     OW94066   5.217   6.589   8.800  0.0838 -0.1838 -0.1253
31163SOL    HW194067   5.262   6.505   8.807  1.0920  0.2175 -1.3696
31163SOL    HW294068   5.282   6.647   8.760 -0.8807  0.9543 -0.0714
31164SOL     OW94069   4.703   5.026   8.564 -0.2965 -0.0740  0.1798
31164SOL    HW194070   4.789   5.066   8.577 -0.8459  0.6888  1.6499
31164SOL    HW294071   4.684   5.040   8.471  0.8762  0.3180 -0.0163
31165SOL     OW94072   3.475   7.591   1.859 -0.1377 -0.3043  0.2504
31165SOL    HW194073   3.554   7.641   1.882 -0.7255  0.3147  0.9478
31165SOL    HW294074   3.473   7.520   1.923 -0.2012 -0.2663  0.2901
31166SOL     OW94075   1.107   1.834   9.648  0.3758  0.2182  0.0042
31166SOL    HW194076   1.181   1.774   9.642  0.6929  0.5922  0.0995
31166SOL    HW294077   1.067   1.813   9.732  0.3876  0.0292 -0.0359
31167SOL     OW94078   8.494   3.467   7.999 -0.1697 -0.7330  0.2897
31167SOL    HW194079   8.411   3.513   7.992  1.1517  1.8297  0.4772
31167SOL    HW294080   8.542   3.492   7.920  0.1078 -3.0316 -0.3630
31168SOL     OW94081   6.735   1.379   3.583  0.1740  0.1763  0.1534
31168SOL    HW194082   6.726   1.374   3.678 -0.0457 -0.7850  0.0873
31168SOL    HW294083   6.749   1.289   3.555 -1.4984  0.2062 -0.8973
31169SOL     OW94084   2.406   3.002   4.111 -0.3800 -0.5565  0.2733
31169SOL    HW194085   2.391   2.909   4.129 -0.5813 -0.4332  0.7686
31169SOL    HW294086   2.347   3.023   4.039 -0.8256 -0.6586  0.6034
31170SOL     OW94087   8.567   4.949   5.699 -0.3023  0.0352  0.0514
31170SOL    HW194088   8.477   4.918   5.707 -0.1855 -0.1065  0.9329
31170SOL    HW294089   8.603   4.899   5.626 -0.8236 -0.1752 -0.0656
31171SOL     OW94090   3.129   9.520   6.005  0.1705 -0.0548 -0.2528
31171SOL    HW194091   3.144   9.426   5.992 -0.0576 -0.3292  1.2559
31171SOL    HW294092   3.048   9.539   5.959  0.3178 -0.5513 -0.7231
31172SOL     OW94093   7.686   6.106   1.029  0.7104  0.0169  0.1201
31172SOL    HW194094   7.780   6.124   1.023  0.9431 -1.0884  0.2387
31172SOL    HW294095   7.658   6.149   1.110  1.2819 -0.2883  0.4892
31173SOL     OW94096   2.689   1.420   6.181 -0.3141  0.8108  0.8655
31173SOL    HW194097   2.728   1.344   6.222 -1.8875  0.3016  1.4957
31173SOL    HW294098   2.762   1.464   6.137  0.6577 -0.9557  0.6136
31174SOL     OW94099   7.736   9.326   4.499 -0.5926  0.1050  0.5226
31174SOL    HW194100   7.776   9.365   4.421 -0.6898 -0.0274  0.4076
31174SOL    HW294101   7.805   9.331   4.566 -0.4143 -0.0376  0.3495
31175SOL     OW94102   4.913   7.500   8.965  0.1048  0.5699 -0.0263
31175SOL    HW194103   4.971   7.541   9.029 -1.1191  1.1320  0.7539
31175SOL    HW294104   4.967   7.434   8.923  0.6051 -0.7136  2.4765
31176SOL     OW94105   2.942   2.958  -0.024 -0.2154 -0.1156 -0.1271
31176SOL    HW194106   2.879   3.017   0.019 -0.3432  0.7769 -1.4508
31176SOL    HW294107   2.920   2.871   0.009 -1.6700  0.2733  0.0085
31177SOL     OW94108   0.796   0.437   6.034  0.4422 -0.0279 -0.0974
31177SOL    HW194109   0.891   0.440   6.022  0.6424 -2.8444  0.1194
31177SOL    HW294110   0.784   0.383   6.112 -1.3358  2.1549  1.2648
31178SOL     OW94111   8.458   7.012   9.656 -0.3751  0.2390  0.0139
31178SOL    HW194112   8.374   6.981   9.622 -0.2941 -0.5546  0.5123
31178SOL    HW294113   8.435   7.081   9.719 -0.8287 -1.6166  1.9677
31179SOL     OW94114   0.272   1.549   9.336 -0.2614 -0.8058 -0.2735
31179SOL    HW194115   0.238   1.497   9.409 -1.3354 -0.7691 -0.7219
31179SOL    HW294116   0.228   1.633   9.345  0.0978 -0.5819 -0.5915
31180SOL     OW94117   2.927   8.083   8.068  0.1587  0.3231 -0.3936
31180SOL    HW194118   2.902   8.058   8.157  1.2911 -0.4772 -0.2831
31180SOL    HW294119   2.975   8.165   8.079 -0.9708  1.0164 -0.4431
31181SOL     OW94120   0.256   9.137   0.350  0.3727 -0.1354 -0.4313
31181SOL    HW194121   0.281   9.045   0.344  0.9360  0.0438 -0.9444
31181SOL    HW294122   0.310   9.181   0.284 -0.6482  0.4068 -0.9201
31182SOL     OW94123   3.567   1.167   6.591  0.1917  0.0872  0.1340
31182SOL    HW194124   3.485   1.160   6.543  0.6363 -0.3247 -0.5815
31182SOL    HW294125   3.543   1.210   6.673 -0.5860  0.7926 -0.4428
31183SOL     OW94126   1.508   5.478   2.538 -0.2285 -0.1520  0.4689
31183SOL    HW194127   1.457   5.539   2.591 -0.9725 -0.3592  0.0077
31183SOL    HW294128   1.581   5.451   2.594  0.1067  1.1375  0.6871
31184SOL     OW94129   4.023   2.289   8.582 -0.4021  0.7805 -0.1384
31184SOL    HW194130   4.065   2.335   8.509  0.0850  0.1429 -0.2733
31184SOL    HW294131   4.092   2.233   8.618 -0.4074  1.6693  1.3372
31185SOL     OW94132   4.123   8.497   4.388 -0.3412 -0.1541  0.1969
31185SOL    HW194133   4.211   8.462   4.401  0.1289  0.7236 -0.5248
31185SOL    HW294134   4.118   8.573   4.446 -1.0127 -0.8068  1.0273
31186SOL     OW94135   0.781   9.162   9.940 -0.5220  0.0227  0.4607
31186SOL    HW194136   0.762   9.184   9.849 -3.4415 -2.3345  0.3740
31186SOL    HW294137   0.738   9.231   9.990 -1.1389 -0.0711  0.0738
31187SOL     OW94138   4.653   4.355   3.754 -0.2534 -0.4704 -0.9128
31187SOL    HW194139   4.618   4.266   3.764  1.2890 -0.9855  0.4039
31187SOL    HW294140   4.736   4.353   3.802  0.4771  1.3090 -2.0277
31188SOL     OW94141   5.592   8.214   7.535 -0.4439 -0.3375  0.5438
31188SOL    HW194142   5.607   8.306   7.554 -0.9786 -0.2458  0.5337
31188SOL    HW294143   5.512   8.192   7.584 -1.1964 -0.3915 -0.6602
31189SOL     OW94144   8.304   0.366   2.126 -0.3872 -0.3216 -0.1728
31189SOL    HW194145   8.397   0.375   2.104 -0.0768 -1.7412  0.4532
31189SOL    HW294146   8.289   0.271   2.132 -2.0281 -0.1435 -0.8604
31190SOL     OW94147   3.094   9.494   2.037  0.5956 -0.2568 -0.0595
31190SOL    HW194148   3.010   9.490   2.082  0.5304 -1.4533 -0.2600
31190SOL    HW294149   3.159   9.483   2.106  0.5532 -0.3046 -0.0269
31191SOL     OW94150   6.401   7.822   4.326  0.4282 -0.0973 -0.1042
31191SOL    HW194151   6.408   7.904   4.278 -2.5099  1.4991  1.8366
31191SOL    HW294152   6.339   7.770   4.276 -0.1308  0.2125  0.2552
31192SOL     OW94153   9.120   3.672   7.868 -0.1237 -0.1652 -0.0141
31192SOL    HW194154   9.161   3.662   7.954  0.3768  0.1752 -0.2093
31192SOL    HW294155   9.040   3.722   7.885 -0.6425 -1.1059  0.4128
31193SOL     OW94156   2.586   9.801   3.257 -0.5104  0.2128  0.3730
31193SOL    HW194157   2.493   9.809   3.236 -0.2009  1.7439 -0.6046
31193SOL    HW294158   2.607   9.883   3.302  0.4565  0.0797  0.1904
31194SOL     OW94159   1.502   8.646   2.265 -0.2546 -0.6151  0.0991
31194SOL    HW194160   1.444   8.588   2.314  1.6735 -2.0752  0.7844
31194SOL    HW294161   1.589   8.632   2.305  0.4286  2.1979 -0.2092
31195SOL     OW94162   2.777   7.607   2.681 -0.2622 -0.1381  0.2517
31195SOL    HW194163   2.739   7.526   2.648 -0.6726 -0.2810  1.0509
31195SOL    HW294164   2.863   7.612   2.640 -0.5585 -0.5660 -0.4311
31196SOL     OW94165   4.447   1.646   8.008 -0.2542  1.1439 -0.0170
31196SOL    HW194166   4.523   1.698   8.034 -0.4862  0.3836  2.4262
31196SOL    HW294167   4.466   1.558   8.041 -1.7882  0.7295 -0.1776
31197SOL     OW94168   7.791   7.880   3.145 -0.4513  0.0063 -0.1097
31197SOL    HW194169   7.726   7.903   3.079  0.7203  0.6954 -1.0624
31197SOL    HW294170   7.763   7.795   3.179 -0.9756 -0.4521 -1.6244
31198SOL     OW94171   1.320   1.778   1.971 -0.3569  0.2964 -0.0800
31198SOL    HW194172   1.283   1.818   2.050 -0.6378 -0.5185  0.2176
31198SOL    HW294173   1.290   1.687   1.974 -0.7029  0.3530 -1.3487
31199SOL     OW94174   9.095   4.962   3.471 -0.1533  0.0378  0.1573
31199SOL    HW194175   9.098   5.034   3.408  0.3506 -0.8225 -0.8155
31199SOL    HW294176   9.136   4.888   3.426 -1.8120 -1.2457  0.6544
31200SOL     OW94177   8.642   1.502   3.824 -0.1712  0.0458 -0.0037
31200SOL    HW194178   8.593   1.551   3.890  1.2461  1.7564 -0.1521
31200SOL    HW294179   8.733   1.512   3.849  0.3159 -0.3355 -1.5170
31201SOL     OW94180   3.854   9.331   7.287 -0.0869 -0.0989  0.0667
31201SOL    HW194181   3.864   9.423   7.312  0.5250 -0.2679  0.4777
31201SOL    HW294182   3.767   9.307   7.317 -1.4656  1.1265 -2.6185
31202SOL     OW94183   6.832   3.164   9.268 -0.0178  0.5931 -0.2800
31202SOL    HW194184   6.796   3.078   9.244 -0.1790  0.7214 -0.4984
31202SOL    HW294185   6.922   3.145   9.296  0.3387  0.5053 -1.4566
31203SOL     OW94186   4.918   2.890   2.430 -0.5483 -0.3394  0.0374
31203SOL    HW194187   4.891   2.974   2.392  1.2380  0.8211  1.2001
31203SOL    HW294188   4.841   2.862   2.480 -1.2410  0.5129 -0.5082
31204SOL     OW94189   4.554   4.729   0.632  0.2115 -0.2632  0.2335
31204SOL    HW194190   4.527   4.659   0.572  0.1916  0.7107 -0.9287
31204SOL    HW294191   4.472   4.765   0.666  0.2330 -1.1758  1.3110
31205SOL     OW94192   5.581   7.081   0.507 -0.3043  0.3223 -0.1771
31205SOL    HW194193   5.618   7.164   0.536 -0.1948  0.6521 -1.2368
31205SOL    HW294194   5.597   7.079   0.413 -0.0376 -1.0373 -0.1222
31206SOL     OW94195   7.864   8.953   2.253  0.7497  0.4761  0.0655
31206SOL    HW194196   7.820   8.906   2.324 -1.3566  1.6012 -0.4052
31206SOL    HW294197   7.830   9.042   2.259  0.2500  0.5245 -2.5357
31207SOL     OW94198   1.983   5.717   7.183  0.3885 -0.0121 -0.0343
31207SOL    HW194199   2.046   5.683   7.246 -0.7893 -1.2465  0.5120
31207SOL    HW294200   2.016   5.805   7.162  1.7439 -0.2484  0.9642
31208SOL     OW94201   2.859   6.613   2.117 -0.3156 -0.4927 -0.2968
31208SOL    HW194202   2.885   6.521   2.108  0.0934 -0.3957 -0.1165
31208SOL    HW294203   2.904   6.643   2.196  0.3714  0.1411 -0.9120
31209SOL     OW94204   6.256   5.885   1.167 -0.1776  0.0476  0.5238
31209SOL    HW194205   6.290   5.910   1.082 -1.3460  0.4926  0.1599
31209SOL    HW294206   6.284   5.955   1.226 -0.0541  0.1569  0.3352
31210SOL     OW94207   1.379   5.905   7.182 -0.1836  0.0405  0.1135
31210SOL    HW194208   1.308   5.898   7.117 -0.5137 -1.0386  0.5696
31210SOL    HW294209   1.335   5.899   7.267  0.3104  0.8446  0.4378
31211SOL     OW94210   5.112   1.745   8.222  0.2801  0.3397 -0.1248
31211SOL    HW194211   5.108   1.840   8.225 -2.5175  0.3403 -1.2452
31211SOL    HW294212   5.096   1.717   8.312  3.0684  0.8493  0.6273
31212SOL     OW94213   0.161   6.281   1.135  0.4591 -0.2025  0.3024
31212SOL    HW194214   0.133   6.189   1.133 -0.1182 -0.0572  1.0933
31212SOL    HW294215   0.222   6.289   1.062 -1.1248 -0.6820 -1.1441
31213SOL     OW94216   2.362   7.577   0.761 -0.1817  0.0372 -0.3217
31213SOL    HW194217   2.288   7.537   0.806 -0.5360  1.1131  0.0789
31213SOL    HW294218   2.325   7.652   0.716  0.3183 -0.5510 -1.7668
31214SOL     OW94219   5.275   0.197   2.996  0.3908  0.0695 -0.1106
31214SOL    HW194220   5.365   0.190   3.028  0.2087 -1.3902  0.1642
31214SOL    HW294221   5.272   0.136   2.922 -0.4099 -0.0336  0.0012
31215SOL     OW94222   4.803   6.632   0.520  0.7125 -0.3551 -0.1607
31215SOL    HW194223   4.788   6.571   0.448  1.4536 -0.0484 -0.5863
31215SOL    HW294224   4.720   6.677   0.531  1.3771  1.8541 -2.9647
31216SOL     OW94225   9.525   3.955   5.571 -0.0464 -0.2649  0.1304
31216SOL    HW194226   9.484   3.922   5.490 -1.7691 -0.9219  1.2069
31216SOL    HW294227   9.610   3.988   5.543 -1.2242  1.0147 -2.2257
31217SOL     OW94228   8.024   1.899   9.291 -0.0770  0.0910  0.1393
31217SOL    HW194229   8.038   1.922   9.383 -0.7122  0.3353  0.1867
31217SOL    HW294230   7.930   1.882   9.285  0.3769 -2.8610  0.1601
31218SOL     OW94231   1.038   3.215   9.126 -0.1266  0.1077  0.6459
31218SOL    HW194232   0.950   3.251   9.112  0.4602  0.8945 -1.3531
31218SOL    HW294233   1.097   3.289   9.112  0.9364 -0.7485  0.4594
31219SOL     OW94234   1.629   4.245   2.150  0.3691 -0.0383 -0.2093
31219SOL    HW194235   1.583   4.161   2.143 -0.2071  0.3577 -1.3450
31219SOL    HW294236   1.690   4.232   2.222 -1.8400 -0.4137  1.7086
31220SOL     OW94237   9.605   3.360   5.498  0.7482  0.0753 -0.6352
31220SOL    HW194238   9.533   3.298   5.487 -1.0925  1.4390  2.4057
31220SOL    HW294239   9.562   3.445   5.506  2.7678  1.0620  0.5105
31221SOL     OW94240   8.803   6.143   7.567 -0.3881 -0.0069 -0.0311
31221SOL    HW194241   8.792   6.097   7.650  0.6062 -0.2232 -0.0019
31221SOL    HW294242   8.714   6.163   7.538 -0.7553 -0.2153  0.9237
31222SOL     OW94243   7.186   3.629   2.126 -0.1480  0.3107  0.1118
31222SOL    HW194244   7.117   3.566   2.108 -1.7231  2.0519 -0.3320
31222SOL    HW294245   7.166   3.663   2.214  1.1729 -0.3641  0.7117
31223SOL     OW94246   0.852   2.392   5.602  0.0975 -0.0668  0.2069
31223SOL    HW194247   0.851   2.485   5.627 -0.4689 -0.3305  1.2416
31223SOL    HW294248   0.811   2.390   5.516 -0.2845  0.5937  0.3644
31224SOL     OW94249   5.647   9.629   3.719 -0.4200  0.3217 -0.4133
31224SOL    HW194250   5.635   9.710   3.770  1.7208 -0.4166  1.4033
31224SOL    HW294251   5.600   9.562   3.769 -1.9321  0.3189 -1.7562
31225SOL     OW94252   9.356   7.062   6.239 -0.0005 -0.5139 -0.2585
31225SOL    HW194253   9.401   6.980   6.258 -0.1230 -1.1370 -2.3895
31225SOL    HW294254   9.425   7.120   6.207 -0.2955 -0.6877 -1.2543
31226SOL     OW94255   0.129   9.413   8.947  0.4096  0.7830 -0.0206
31226SOL    HW194256   0.163   9.440   8.862  0.2558  1.5590  0.1570
31226SOL    HW294257   0.040   9.447   8.950  0.4826  0.9461  0.5272
31227SOL     OW94258   7.979   5.256   1.112  0.1851 -0.0216  0.1628
31227SOL    HW194259   8.038   5.188   1.146  0.3551  1.6956  3.7150
31227SOL    HW294260   8.029   5.298   1.041  0.3483 -2.9626 -1.6550
31228SOL     OW94261   7.323   7.777   2.922  0.3699 -0.3289  0.2793
31228SOL    HW194262   7.406   7.820   2.902 -0.4275  0.5331 -1.4019
31228SOL    HW294263   7.340   7.727   3.002  2.0299  1.1661  0.9305
31229SOL     OW94264   9.315   0.418   7.944 -0.3632 -0.4626  0.2767
31229SOL    HW194265   9.377   0.399   8.015 -1.0038 -1.6138  0.5603
31229SOL    HW294266   9.238   0.366   7.966 -1.0040  0.0604 -0.6749
31230SOL     OW94267   4.777   3.003   6.056  0.3066  0.3570 -0.1691
31230SOL    HW194268   4.784   2.993   5.961  0.7369  0.3125 -0.1359
31230SOL    HW294269   4.841   2.941   6.091  1.1189  1.3152  0.1074
31231SOL     OW94270   8.532   7.645   6.820 -0.2129 -0.9272 -0.5230
31231SOL    HW194271   8.468   7.642   6.891  1.8568  1.1867  1.6523
31231SOL    HW294272   8.497   7.709   6.759 -1.2306 -1.4810 -0.5275
31232SOL     OW94273   3.984   6.618   8.733 -0.0662 -0.2370 -0.6685
31232SOL    HW194274   4.064   6.667   8.716 -0.3293  0.0915 -0.9673
31232SOL    HW294275   4.012   6.545   8.788  0.4558 -0.1774 -0.8489
31233SOL     OW94276   8.961   7.866   7.001 -0.3095  0.5199 -0.4874
31233SOL    HW194277   8.968   7.785   7.050  0.4750  0.7018 -0.2857
31233SOL    HW294278   8.895   7.848   6.934 -1.2379  0.2040  0.4896
31234SOL     OW94279   4.605   6.360   4.912 -0.1540  0.1579  0.5909
31234SOL    HW194280   4.680   6.326   4.961 -0.8882 -1.0904  0.8806
31234SOL    HW294281   4.644   6.402   4.836  0.8219 -1.8386 -0.0942
31235SOL     OW94282   4.925   6.957   0.929 -0.5251 -0.5593 -0.0708
31235SOL    HW194283   4.921   6.900   0.853 -1.6153 -0.8701  0.2059
31235SOL    HW294284   4.857   6.925   0.988 -0.5797  0.4766  0.4687
31236SOL     OW94285   2.811   4.709   3.352  0.0742 -0.2832 -0.2364
31236SOL    HW194286   2.821   4.769   3.426 -0.9579 -0.0210 -0.2910
31236SOL    HW294287   2.898   4.671   3.339  0.4954  0.4251  0.4641
31237SOL     OW94288   7.020   9.555   3.178 -1.1198 -0.3103  0.6413
31237SOL    HW194289   7.002   9.467   3.210 -0.6307 -0.3592  0.7877
31237SOL    HW294290   6.935   9.587   3.147 -1.4476 -0.5585  1.2544
31238SOL     OW94291   1.473   6.378   1.621  0.0520 -0.2275 -0.1917
31238SOL    HW194292   1.557   6.356   1.580 -0.2760  0.0959 -1.0410
31238SOL    HW294293   1.421   6.298   1.615  0.0566 -0.2240 -0.2681
31239SOL     OW94294   4.008   8.299   8.052  0.0929 -0.5030 -0.3212
31239SOL    HW194295   4.061   8.375   8.076  0.6542 -0.9351 -0.1753
31239SOL    HW294296   4.055   8.224   8.089  0.4445 -1.0948 -1.8869
31240SOL     OW94297   3.396   1.927   6.635 -0.1740  0.0203 -0.0718
31240SOL    HW194298   3.324   1.965   6.685  0.9962  1.5647  0.5056
31240SOL    HW294299   3.403   1.981   6.557  0.0446 -0.4513 -0.3849
31241SOL     OW94300   8.343   2.397   2.788  0.1148 -0.0405 -0.2463
31241SOL    HW194301   8.383   2.313   2.812 -0.6411 -0.6005 -0.8969
31241SOL    HW294302   8.365   2.455   2.861  1.0611 -0.6610 -0.0064
31242SOL     OW94303   3.530   0.294   0.605  0.2258  0.4637 -0.2717
31242SOL    HW194304   3.445   0.268   0.570 -0.2884  2.8097 -1.0009
31242SOL    HW294305   3.588   0.292   0.529  0.4998  0.1386 -0.0543
31243SOL     OW94306   6.293   9.313   9.318  0.3413  0.5870  0.2138
31243SOL    HW194307   6.248   9.386   9.360 -1.5477  0.4743 -1.4918
31243SOL    HW294308   6.361   9.288   9.381 -1.8933  0.8181  2.9258
31244SOL     OW94309   5.802   2.488   1.223 -0.2301  0.1929 -0.2143
31244SOL    HW194310   5.823   2.546   1.150  1.3139 -0.6385 -0.4640
31244SOL    HW294311   5.887   2.455   1.253 -1.0453 -1.8408  0.0105
31245SOL     OW94312   2.798   3.430   0.650 -0.2833 -0.3440  0.0746
31245SOL    HW194313   2.709   3.421   0.618 -0.2992 -1.1633  0.3310
31245SOL    HW294314   2.794   3.504   0.711 -0.4409  0.6421 -1.0852
31246SOL     OW94315   4.834   7.069   2.915  1.0314 -0.0638 -0.1741
31246SOL    HW194316   4.760   7.052   2.973  1.3296  1.1033  0.5842
31246SOL    HW294317   4.854   6.984   2.876 -0.6156 -0.4286 -0.2995
31247SOL     OW94318   5.813   2.596   4.428  0.5392  0.0886  0.3089
31247SOL    HW194319   5.763   2.579   4.348  1.2922 -0.0178 -0.1508
31247SOL    HW294320   5.753   2.573   4.499 -0.1708  0.2613 -0.2181
31248SOL     OW94321   1.301   1.983   1.009  0.1317  0.1481 -0.5997
31248SOL    HW194322   1.374   1.965   1.069 -0.5062 -0.1229  0.1107
31248SOL    HW294323   1.224   1.982   1.065 -0.4460  0.1992 -1.3855
31249SOL     OW94324   3.069   8.175   3.333  0.3552 -0.0956  0.6832
31249SOL    HW194325   3.026   8.094   3.362  0.7622 -0.8603 -0.7378
31249SOL    HW294326   3.119   8.149   3.256  1.0918  1.3770  0.6303
31250SOL     OW94327   4.889   8.775   5.248  0.2021 -0.1888 -0.9592
31250SOL    HW194328   4.971   8.809   5.210  0.9043  0.2551  0.8558
31250SOL    HW294329   4.910   8.684   5.272  0.0613 -0.1695 -0.7692
31251SOL     OW94330   9.573   9.208   6.533 -0.1501  0.3756  0.1380
31251SOL    HW194331   9.596   9.127   6.487  2.2188  0.0583  1.7013
31251SOL    HW294332   9.653   9.233   6.579 -2.1169  0.9722  3.5854
31252SOL     OW94333   0.151   3.847   5.402 -0.4052 -0.1642 -0.2023
31252SOL    HW194334   0.076   3.816   5.353  0.6194  1.5011 -3.0895
31252SOL    HW294335   0.208   3.770   5.411 -0.2530 -0.4011 -2.5248
31253SOL     OW94336   4.947   3.201   0.122  0.0973  0.1416  0.2920
31253SOL    HW194337   4.861   3.166   0.145  0.7968 -1.5456  0.4844
31253SOL    HW294338   4.946   3.208   0.027 -0.7717  1.6175  0.3830
31254SOL     OW94339   9.562   8.410   9.459  0.6045 -0.0097 -0.3937
31254SOL    HW194340   9.512   8.404   9.377 -0.2993 -0.2306  0.1552
31254SOL    HW294341   9.528   8.488   9.502 -0.2584 -0.8918  0.6014
31255SOL     OW94342   7.525   7.656   7.080  0.1953  0.3907 -0.1861
31255SOL    HW194343   7.477   7.737   7.097  0.2303 -0.0201  2.1095
31255SOL    HW294344   7.469   7.587   7.113 -0.1272 -0.6671 -2.7177
31256SOL     OW94345   6.397   1.902   7.972 -0.6583  0.5534  0.2095
31256SOL    HW194346   6.386   1.966   7.902  0.8623  0.7395  0.1213
31256SOL    HW294347   6.360   1.821   7.936  1.3275  0.2859 -1.3776
31257SOL     OW94348   4.072   5.181   9.064  0.1316  0.3646  0.8007
31257SOL    HW194349   4.061   5.105   9.006  1.6688  0.5050  0.2775
31257SOL    HW294350   4.041   5.150   9.149  0.4541 -0.7793  0.5326
31258SOL     OW94351   1.306   2.660   5.084 -0.4060 -0.6360 -0.7720
31258SOL    HW194352   1.310   2.744   5.129 -0.6978 -0.4617 -1.0727
31258SOL    HW294353   1.379   2.662   5.022  0.9027 -1.4451  0.6517
31259SOL     OW94354   9.957   5.050   8.454  0.6595  0.0355  0.2917
31259SOL    HW194355   9.955   4.974   8.511 -1.7498 -0.4409 -0.3418
31259SOL    HW294356   9.904   5.025   8.378 -0.3960  2.3924  0.1621
31260SOL     OW94357   8.726   4.451   5.952  0.3963  0.3709  0.0709
31260SOL    HW194358   8.636   4.451   5.983  0.5965  0.8344  0.6550
31260SOL    HW294359   8.779   4.463   6.031  0.9680  0.1817 -0.2757
31261SOL     OW94360   1.698   0.619   0.191 -1.0068 -0.4470 -0.2101
31261SOL    HW194361   1.692   0.622   0.286 -0.0102  0.5547 -0.1590
31261SOL    HW294362   1.643   0.691   0.161 -0.9338 -0.4599 -0.3779
31262SOL     OW94363   1.491   6.940   8.104  0.0957 -0.1336 -0.5377
31262SOL    HW194364   1.537   6.871   8.056 -1.1742 -2.6769  1.6924
31262SOL    HW294365   1.402   6.908   8.112 -0.5977  1.9075  0.4157
31263SOL     OW94366   5.910   5.017   9.644 -0.1572  0.1581  0.3077
31263SOL    HW194367   5.965   5.093   9.624 -0.8678  0.3697 -0.9345
31263SOL    HW294368   5.821   5.050   9.639 -0.5245 -0.9654 -1.2664
31264SOL     OW94369   9.731   9.691   1.879  0.0486 -0.0970 -0.5210
31264SOL    HW194370   9.735   9.617   1.939  0.8463  0.7966  0.5694
31264SOL    HW294371   9.675   9.661   1.807  0.9614 -2.0105 -0.4896
31265SOL     OW94372   7.148   2.591   7.512  0.0832  0.5698 -0.2272
31265SOL    HW194373   7.227   2.564   7.464  0.5018  2.1037 -0.4310
31265SOL    HW294374   7.132   2.519   7.573  1.5569  0.1612 -0.2774
31266SOL     OW94375   4.181   6.783   0.159 -0.3895 -0.3776  0.1998
31266SOL    HW194376   4.243   6.716   0.188  1.9106  0.8521 -1.6589
31266SOL    HW294377   4.186   6.782   0.064 -2.8832  0.1673 -0.0246
31267SOL     OW94378   8.126   1.898   5.742  0.5838 -0.0592 -0.1741
31267SOL    HW194379   8.073   1.942   5.808  0.4918  0.2206 -0.4294
31267SOL    HW294380   8.071   1.827   5.709  0.8173 -0.5119  0.4002
31268SOL     OW94381   2.140   2.342   7.363 -0.6973  0.3977  0.2713
31268SOL    HW194382   2.170   2.269   7.309  1.9114  0.4946  1.4016
31268SOL    HW294383   2.046   2.346   7.348 -0.5423 -1.4943 -1.8506
31269SOL     OW94384   6.790   3.340   8.165 -0.2403 -0.4467  0.3867
31269SOL    HW194385   6.724   3.394   8.208 -0.0501  0.4720 -0.4222
31269SOL    HW294386   6.759   3.333   8.074  1.8892  1.9948 -0.6482
31270SOL     OW94387   2.361   1.872   4.097  0.1421 -0.3790 -0.0544
31270SOL    HW194388   2.401   1.833   4.175  0.5705 -1.5853 -0.8523
31270SOL    HW294389   2.284   1.918   4.131 -1.4907 -3.4268  0.7929
31271SOL     OW94390   4.592   2.892   4.344  0.1815  0.1951  0.1533
31271SOL    HW194391   4.504   2.929   4.354  0.2333  0.2237  0.5228
31271SOL    HW294392   4.648   2.969   4.332  0.0306  0.1273 -1.0893
31272SOL     OW94393   2.883   3.755   7.841  0.8282  0.8140  0.3085
31272SOL    HW194394   2.927   3.800   7.769  1.0682  1.3409  0.7829
31272SOL    HW294395   2.918   3.666   7.838 -0.2755  0.3776 -1.1676
31273SOL     OW94396   7.042   4.758   7.399 -0.5457  0.8467 -0.3961
31273SOL    HW194397   7.077   4.684   7.349 -0.6220  0.5476 -0.0185
31273SOL    HW294398   7.101   4.765   7.474  0.4431  2.2334 -1.2754
31274SOL     OW94399   0.899   0.738   6.137  0.5966  0.4498  0.2376
31274SOL    HW194400   0.806   0.719   6.153  0.2622  2.2962  0.7005
31274SOL    HW294401   0.905   0.834   6.142  2.7457  0.3169  1.4337
31275SOL     OW94402   5.787   4.574   2.840  0.5239 -0.2588  0.1772
31275SOL    HW194403   5.741   4.657   2.853 -0.2227 -0.7320  0.6567
31275SOL    HW294404   5.824   4.580   2.752  0.8350  0.7449  0.3639
31276SOL     OW94405   9.584   8.662   2.537 -0.0265  0.3136  0.4148
31276SOL    HW194406   9.587   8.667   2.632  2.3592 -1.5173  0.5285
31276SOL    HW294407   9.657   8.717   2.508 -0.3448  0.3511 -0.3342
31277SOL     OW94408   0.334   8.093   4.309 -0.5465  0.0962 -0.0042
31277SOL    HW194409   0.289   8.020   4.267  0.4047  1.4050 -3.7051
31277SOL    HW294410   0.286   8.170   4.279  0.9533  1.1974  0.3114
31278SOL     OW94411   3.869   1.010   4.310  0.4159  0.2256 -0.0737
31278SOL    HW194412   3.912   0.929   4.340 -0.6557  0.3939  2.1104
31278SOL    HW294413   3.925   1.080   4.342 -0.7980  0.4120  1.8108
31279SOL     OW94414   5.074   0.129   5.127  0.1418 -0.2821 -0.6386
31279SOL    HW194415   5.165   0.101   5.135  0.1558 -0.3137 -0.9036
31279SOL    HW294416   5.061   0.189   5.200 -0.3571 -2.2027  0.9471
31280SOL     OW94417   7.872   7.690   8.777  0.3151  0.1115 -0.3691
31280SOL    HW194418   7.844   7.738   8.699 -0.1673  2.4074  1.1224
31280SOL    HW294419   7.934   7.748   8.820  0.0347 -0.7840  1.3323
31281SOL     OW94420   7.293   7.753   4.796  0.1787 -0.0577  0.5023
31281SOL    HW194421   7.239   7.698   4.853  0.9775 -0.6466  0.7181
31281SOL    HW294422   7.252   7.746   4.710 -0.5674  0.1812  0.8312
31282SOL     OW94423   3.342   6.322   7.177 -0.2002 -0.0079  0.3519
31282SOL    HW194424   3.412   6.317   7.243 -0.5381  0.4415  0.7516
31282SOL    HW294425   3.300   6.407   7.193  0.5526  0.7240 -1.2927
31283SOL     OW94426   4.124   5.815   9.158  0.3091  0.7848 -0.1269
31283SOL    HW194427   4.187   5.885   9.141  0.0446  1.2984  0.9451
31283SOL    HW294428   4.126   5.803   9.253  0.1279 -0.4645 -0.2654
31284SOL     OW94429   2.848   9.819   7.276  0.2655  0.3843 -0.2665
31284SOL    HW194430   2.883   9.899   7.315  1.8786 -1.2030  1.8289
31284SOL    HW294431   2.923   9.759   7.273 -1.4990 -2.0774  1.2392
31285SOL     OW94432   2.681   8.252   0.876 -0.4186 -0.3111 -0.0804
31285SOL    HW194433   2.756   8.290   0.831 -0.2077 -0.5199  0.0939
31285SOL    HW294434   2.618   8.324   0.884 -0.3593 -0.2117 -0.4873
31286SOL     OW94435   3.006   8.151   0.910  0.4002  0.2337  0.2025
31286SOL    HW194436   2.948   8.126   0.982 -0.7201  1.6147 -0.1708
31286SOL    HW294437   3.063   8.218   0.948  1.3852 -0.6858  0.3997
31287SOL     OW94438   9.585   5.117   0.144 -0.4771 -0.3246  0.4954
31287SOL    HW194439   9.496   5.154   0.145 -0.0354  0.8656 -0.9058
31287SOL    HW294440   9.612   5.122   0.052  1.1215 -0.4739  0.9290
31288SOL     OW94441   7.321   4.775   8.089  0.6286 -0.0482 -0.2137
31288SOL    HW194442   7.332   4.858   8.135  0.5899 -0.7591  1.1196
31288SOL    HW294443   7.368   4.788   8.006  1.7252  0.8714  0.5124
31289SOL     OW94444   4.986   4.681   8.725  0.5450 -0.2121  0.3380
31289SOL    HW194445   5.004   4.710   8.815  0.1306  0.6248  0.1603
31289SOL    HW294446   4.906   4.726   8.701 -0.9054 -2.5653  0.4957
31290SOL     OW94447   2.653   9.118   7.325 -0.2355  0.3222  0.0248
31290SOL    HW194448   2.564   9.087   7.305 -0.6832  1.4666  0.1694
31290SOL    HW294449   2.672   9.081   7.412  0.7093 -2.5276 -1.2758
31291SOL     OW94450   5.661   9.886   2.511  0.3732  0.1050  0.3727
31291SOL    HW194451   5.651   9.858   2.603  0.0895 -0.3660  0.2008
31291SOL    HW294452   5.613   9.969   2.506  0.0962 -0.0408  0.5669
31292SOL     OW94453   5.654   6.258   4.293 -0.1109  0.0578  0.0762
31292SOL    HW194454   5.592   6.285   4.225 -0.3122 -3.5386 -1.3858
31292SOL    HW294455   5.731   6.230   4.244  1.1151  0.6345  1.6223
31293SOL     OW94456   6.028   7.335   3.485  0.2592  0.5722 -0.5902
31293SOL    HW194457   5.952   7.297   3.529  1.3341 -1.8700 -0.6749
31293SOL    HW294458   6.042   7.280   3.408  3.1655 -0.2811  0.4075
31294SOL     OW94459   7.321   5.318   8.619 -0.1502 -0.0717  0.0422
31294SOL    HW194460   7.372   5.392   8.584 -2.5117  1.1935 -1.0242
31294SOL    HW294461   7.363   5.241   8.582  1.5555  0.8209  0.0125
31295SOL     OW94462   9.531   2.528   4.469 -0.0361  0.2908 -0.1076
31295SOL    HW194463   9.456   2.493   4.421 -0.3757 -0.4566  0.9158
31295SOL    HW294464   9.535   2.620   4.443 -0.8617  0.1684 -0.7322
31296SOL     OW94465   0.850   0.774   5.364 -0.4417 -0.1407  0.0423
31296SOL    HW194466   0.860   0.809   5.276  0.7359  1.4743  0.7611
31296SOL    HW294467   0.913   0.702   5.369  0.6441  0.7710  0.0168
31297SOL     OW94468   5.167   3.982   6.345  0.2142  0.1020  0.4038
31297SOL    HW194469   5.082   3.938   6.336  0.5783 -0.7804  1.0636
31297SOL    HW294470   5.231   3.913   6.325  0.7816  0.8835 -0.5711
31298SOL     OW94471   8.043   8.736   5.715  0.3562  0.1077 -0.1724
31298SOL    HW194472   8.084   8.727   5.628 -0.7067  0.8484 -0.7719
31298SOL    HW294473   7.949   8.740   5.696  0.1463  0.8421  0.9742
31299SOL     OW94474   1.896   7.049   2.694  0.1304 -0.1101  0.5023
31299SOL    HW194475   1.987   7.037   2.668  0.1939  2.4589 -0.7568
31299SOL    HW294476   1.852   7.083   2.616 -2.0142 -1.5475  0.9956
31300SOL     OW94477   6.793   8.350   1.000  0.5189 -0.5396 -0.0903
31300SOL    HW194478   6.830   8.278   1.051  0.0186 -1.0812 -0.4911
31300SOL    HW294479   6.726   8.310   0.945  0.6492  0.1347 -0.7612
31301SOL     OW94480   2.760   8.510   5.076 -0.2561  0.5311 -0.1001
31301SOL    HW194481   2.732   8.577   5.014 -1.3093 -0.8945 -1.2609
31301SOL    HW294482   2.824   8.457   5.027 -0.2545  0.0612  0.4038
31302SOL     OW94483   7.088   5.011   1.421  0.5123 -0.2880  0.3535
31302SOL    HW194484   7.086   4.953   1.497  2.2288  0.2100  0.8392
31302SOL    HW294485   7.103   4.952   1.347  1.5533 -0.5713  0.7610
31303SOL     OW94486   4.099   6.373   8.847 -0.1063 -0.3882 -0.8243
31303SOL    HW194487   4.012   6.379   8.886  0.0104 -0.2108 -0.5859
31303SOL    HW294488   4.147   6.312   8.904 -0.2553 -0.9560 -1.2970
31304SOL     OW94489   1.858   7.611   1.786  0.4314 -0.1504  0.0922
31304SOL    HW194490   1.830   7.677   1.850 -0.8663 -1.3498  0.8105
31304SOL    HW294491   1.837   7.650   1.701  0.2706  0.6200  0.4706
31305SOL     OW94492   3.679   7.404   7.177 -0.1667  0.0219  0.0972
31305SOL    HW194493   3.656   7.365   7.093  0.4557  0.6842 -0.3896
31305SOL    HW294494   3.715   7.331   7.228  1.0235 -0.0686 -0.8122
31306SOL     OW94495   6.326   0.680   1.594 -0.1725  0.7538 -0.1255
31306SOL    HW194496   6.304   0.770   1.569  1.1810  0.6690 -1.8384
31306SOL    HW294497   6.355   0.686   1.685 -0.1266  2.0547 -0.2060
31307SOL     OW94498   9.854   3.158   0.135  0.3247  0.5199  0.0366
31307SOL    HW194499   9.913   3.083   0.134 -0.2401  0.0766 -0.4751
31307SOL    HW294500   9.868   3.198   0.221 -0.7061 -1.2511  1.0894
31308SOL     OW94501   1.767   5.652   8.644 -0.0301  0.1836 -0.3714
31308SOL    HW194502   1.735   5.572   8.686  0.2158  0.4510  0.3514
31308SOL    HW294503   1.851   5.669   8.687  0.3055  0.3798 -1.0997
31309SOL     OW94504   7.640   5.706   9.233  0.0244  0.2570  0.2740
31309SOL    HW194505   7.587   5.668   9.164 -0.3189  3.9911 -1.8087
31309SOL    HW294506   7.728   5.713   9.196  0.5344 -0.2422  1.3350
31310SOL     OW94507   0.213   0.461   0.992 -0.6923 -0.1404 -0.1634
31310SOL    HW194508   0.261   0.543   0.998 -0.2223 -0.4863  1.2024
31310SOL    HW294509   0.266   0.399   1.041 -2.1085 -0.7409  0.6604
31311SOL     OW94510   5.461   3.181   3.997  0.3800  0.2962  0.2842
31311SOL    HW194511   5.498   3.093   3.997 -1.1530 -0.3815 -0.4775
31311SOL    HW294512   5.386   3.176   3.938  0.2146  2.1025  0.2808
31312SOL     OW94513   3.379   7.334   6.883  0.0130 -0.7580 -0.3218
31312SOL    HW194514   3.413   7.423   6.882 -1.3871 -0.1618  1.1757
31312SOL    HW294515   3.285   7.343   6.896 -0.0627 -2.4406  0.7217
31313SOL     OW94516   6.400   3.179   3.543 -0.6918 -0.0105 -0.1181
31313SOL    HW194517   6.319   3.183   3.594 -0.1882  1.2252  0.6245
31313SOL    HW294518   6.404   3.089   3.511 -2.2016 -0.1680  0.0837
31314SOL     OW94519   6.491   1.551   3.572 -0.5766  0.3511 -0.2840
31314SOL    HW194520   6.559   1.484   3.560 -0.1813  0.7983 -0.5792
31314SOL    HW294521   6.411   1.510   3.540 -0.7639 -0.7167  1.3978
31315SOL     OW94522   2.512   0.400   9.102  0.1690 -0.6640 -0.1057
31315SOL    HW194523   2.559   0.478   9.132 -0.5499 -0.3889  0.3572
31315SOL    HW294524   2.562   0.369   9.027  1.2057 -0.5203  0.5007
31316SOL     OW94525   6.418   0.733   7.831 -0.6138  0.0897  0.1292
31316SOL    HW194526   6.508   0.707   7.851 -0.0776 -1.3018 -3.4127
31316SOL    HW294527   6.375   0.738   7.917  2.3053 -1.1629  1.8016
31317SOL     OW94528   1.462   4.581   7.889  0.2857  0.5528 -0.3607
31317SOL    HW194529   1.516   4.605   7.814 -0.1807  0.0351 -0.8700
31317SOL    HW294530   1.383   4.634   7.881  0.1483  0.3520 -0.3526
31318SOL     OW94531   8.637   2.328   5.243  0.0112 -0.3080 -0.3017
31318SOL    HW194532   8.713   2.273   5.262  0.7413  1.0239  0.7988
31318SOL    HW294533   8.645   2.347   5.149  2.1940  1.3790  0.1189
31319SOL     OW94534   3.710   0.523   9.642  0.4801  0.3577 -0.1143
31319SOL    HW194535   3.671   0.449   9.688  1.8583 -1.1099 -1.1560
31319SOL    HW294536   3.803   0.518   9.664  0.4436  2.6146  0.8234
31320SOL     OW94537   3.171   3.384   5.889  0.4091  0.3969 -0.2375
31320SOL    HW194538   3.204   3.425   5.809 -1.7632  0.8074 -0.9921
31320SOL    HW294539   3.092   3.338   5.861  0.0370 -0.1193  1.5447
31321SOL     OW94540   0.792   3.951   1.040  0.8165 -0.2088 -0.1864
31321SOL    HW194541   0.741   4.030   1.059  0.0773 -0.3719 -1.3852
31321SOL    HW294542   0.839   3.972   0.959  2.0241 -0.3679  0.4559
31322SOL     OW94543   8.080   4.487   0.627 -0.1538  0.6949  0.0614
31322SOL    HW194544   8.010   4.523   0.683 -1.3801  1.1867 -1.6837
31322SOL    HW294545   8.034   4.456   0.549  1.2560 -1.8918  0.1686
31323SOL     OW94546   6.384   2.386   8.825  0.4264  0.0440 -0.0355
31323SOL    HW194547   6.326   2.436   8.883  0.9869 -1.5593  2.0727
31323SOL    HW294548   6.325   2.339   8.767 -0.1389  2.1678 -1.2781
31324SOL     OW94549   5.886   1.312   5.396  0.1878  0.8222 -0.1605
31324SOL    HW194550   5.801   1.327   5.436 -1.2897 -1.5389 -2.1039
31324SOL    HW294551   5.874   1.333   5.303  1.1478 -1.1595 -0.8086
31325SOL     OW94552   9.764   2.565   6.189 -0.1042  0.2110  0.3893
31325SOL    HW194553   9.719   2.524   6.116  0.5190  0.3520 -0.0824
31325SOL    HW294554   9.808   2.641   6.151 -2.6262  2.3884  1.5214
31326SOL     OW94555   0.790   2.437   8.219 -0.1479 -0.7499  0.1374
31326SOL    HW194556   0.814   2.530   8.216 -0.2982 -0.6900  0.7469
31326SOL    HW294557   0.695   2.436   8.207 -0.0111 -0.9147 -1.1098
31327SOL     OW94558   2.076   7.043   5.737  0.5920  0.6632 -0.6936
31327SOL    HW194559   2.155   7.009   5.779  0.4286  1.2213  0.1001
31327SOL    HW294560   2.064   6.989   5.659  0.7759 -0.5601  0.0979
31328SOL     OW94561   9.895   4.343   6.619 -0.1558 -0.1305  0.7605
31328SOL    HW194562   9.952   4.412   6.653  0.8486 -0.0170 -1.0242
31328SOL    HW294563   9.910   4.269   6.678  1.7123 -0.0277  0.4692
31329SOL     OW94564   5.485   8.310   0.053 -0.2851  0.2041  0.4770
31329SOL    HW194565   5.462   8.371   0.124  0.5168  0.2203  0.7238
31329SOL    HW294566   5.400   8.279   0.021 -0.7526  1.8998 -0.0615
31330SOL     OW94567   4.873   3.598   5.494 -0.0629  0.2931  1.0427
31330SOL    HW194568   4.930   3.612   5.418 -0.2814  0.1111  0.8467
31330SOL    HW294569   4.858   3.504   5.496 -0.4307  0.3497  1.0394
31331SOL     OW94570   3.235   4.767   9.273 -0.0537  0.4993 -0.4928
31331SOL    HW194571   3.197   4.745   9.358  0.6779  3.1863  0.6706
31331SOL    HW294572   3.307   4.705   9.261 -0.5827 -0.3295  0.5283
31332SOL     OW94573   9.148   3.804   9.738  0.2281 -0.3628 -0.4796
31332SOL    HW194574   9.238   3.837   9.741 -0.6667  2.3088 -0.1115
31332SOL    HW294575   9.130   3.773   9.827  0.7863 -1.0048 -0.5832
31333SOL     OW94576   9.800   9.303   4.156 -0.3389  0.0596  0.1532
31333SOL    HW194577   9.837   9.371   4.212  0.3355 -0.2736  0.1354
31333SOL    HW294578   9.707   9.321   4.153 -0.2109  0.7866  0.4141
31334SOL     OW94579   5.300   5.236   9.704  0.6871  0.4862  0.2793
31334SOL    HW194580   5.343   5.151   9.700 -0.8654 -0.4071  1.4600
31334SOL    HW294581   5.371   5.298   9.725  2.1234 -0.2053 -2.1749
31335SOL     OW94582   6.386   9.238   5.495  0.9513  0.6459  0.5242
31335SOL    HW194583   6.330   9.213   5.421  0.4580  1.5066  0.5925
31335SOL    HW294584   6.475   9.226   5.463  0.7404 -0.2621  0.2414
31336SOL     OW94585   2.811   9.709   0.847 -0.0963  0.1593 -0.3871
31336SOL    HW194586   2.785   9.673   0.932  0.3222 -3.2760 -1.5670
31336SOL    HW294587   2.907   9.701   0.846  0.2723  3.3313  0.0224
31337SOL     OW94588   1.258   8.087   6.306 -0.5885 -0.2874 -0.5814
31337SOL    HW194589   1.207   8.122   6.379  0.2225  2.1605 -1.1103
31337SOL    HW294590   1.282   7.998   6.334 -1.9122 -0.1217  1.2652
31338SOL     OW94591   6.388   9.054   3.498  0.3505  0.1599  0.3157
31338SOL    HW194592   6.300   9.090   3.510 -0.4969 -1.8774  0.5155
31338SOL    HW294593   6.444   9.109   3.553 -0.9682  0.8250  1.0343
31339SOL     OW94594   3.432   9.499   7.400 -0.0966  0.3211 -0.0673
31339SOL    HW194595   3.518   9.505   7.443  0.5610 -1.3613 -1.0619
31339SOL    HW294596   3.417   9.587   7.366  1.2900  0.6333  0.0535
31340SOL     OW94597   8.836   2.482   4.302  0.2359 -0.2302 -0.0930
31340SOL    HW194598   8.850   2.548   4.233 -0.8366 -0.0012 -0.1195
31340SOL    HW294599   8.828   2.533   4.382  1.5538 -0.5040  0.2310
31341SOL     OW94600   3.702   2.100   1.485  0.6500 -0.2209 -0.7212
31341SOL    HW194601   3.693   2.149   1.403  0.6699  2.1949  0.6086
31341SOL    HW294602   3.755   2.157   1.540 -0.5899 -1.0987  1.4842
31342SOL     OW94603   9.770   7.876   0.492 -0.0383 -0.0117  0.4763
31342SOL    HW194604   9.729   7.860   0.577 -0.9759 -0.1876  0.0034
31342SOL    HW294605   9.700   7.915   0.439  0.5738  0.2232 -0.1730
31343SOL     OW94606   9.659   3.400   2.537 -0.0238 -0.3100 -0.0328
31343SOL    HW194607   9.580   3.454   2.541 -0.1524 -0.5985  2.2303
31343SOL    HW294608   9.731   3.462   2.537 -0.2059 -0.0951  0.7087
31344SOL     OW94609   7.040   8.102   5.385  0.1738  0.5561  0.4461
31344SOL    HW194610   7.104   8.163   5.348  0.5514  0.0730  0.2956
31344SOL    HW294611   6.959   8.153   5.391 -0.1233  0.4062 -1.7904
31345SOL     OW94612   9.446   7.657   4.205 -0.2624 -0.4007  0.1810
31345SOL    HW194613   9.357   7.641   4.238  0.4867 -2.1562  1.5373
31345SOL    HW294614   9.497   7.675   4.284  0.7484 -0.2623 -0.4942
31346SOL     OW94615   8.021   8.880   0.287 -0.5644  0.0397  0.2001
31346SOL    HW194616   8.068   8.856   0.367 -1.2279  2.5915  1.4806
31346SOL    HW294617   7.939   8.918   0.318 -0.6891  1.4378 -1.6674
31347SOL     OW94618   1.478   1.310   5.963 -0.2635  0.1554  0.4000
31347SOL    HW194619   1.546   1.355   5.913 -0.7282 -0.0726 -0.4600
31347SOL    HW294620   1.520   1.287   6.046  0.5924  0.3397  0.0288
31348SOL     OW94621   9.258   9.457   8.700  0.4150  0.2241  0.1322
31348SOL    HW194622   9.266   9.477   8.607  1.2263 -1.1127 -0.1119
31348SOL    HW294623   9.316   9.519   8.743 -0.0797  0.9503 -0.2283
31349SOL     OW94624   4.140   7.036   7.727  0.8059  0.0269  0.0332
31349SOL    HW194625   4.080   6.979   7.680  1.0900  0.4047 -0.8072
31349SOL    HW294626   4.139   7.003   7.817  1.0005 -1.3297 -0.4436
31350SOL     OW94627   2.137   3.991   1.107  0.2999  0.3789 -0.4528
31350SOL    HW194628   2.118   3.926   1.174  0.9074  1.8641  1.2580
31350SOL    HW294629   2.188   3.943   1.041  1.0132 -0.8068  0.9029
31351SOL     OW94630   2.896   2.359   2.528 -0.3342  0.1867  0.1912
31351SOL    HW194631   2.827   2.371   2.462  0.7828  0.1239 -1.0290
31351SOL    HW294632   2.872   2.420   2.598 -1.3488  0.5461 -0.4323
31352SOL     OW94633   0.043   1.435   8.656  0.3744  0.1329 -0.2719
31352SOL    HW194634  -0.050   1.414   8.658  0.3396  0.3566  0.5373
31352SOL    HW294635   0.082   1.381   8.726  0.3065  2.5580  1.7588
31353SOL     OW94636   3.383   1.040   3.568  0.1350  0.2072 -0.1237
31353SOL    HW194637   3.366   1.116   3.624  0.3112 -0.6916  1.1891
31353SOL    HW294638   3.305   0.985   3.577  1.0439 -0.9724  1.0064
31354SOL     OW94639   6.223   9.561   1.712 -0.4556 -0.2151  0.0262
31354SOL    HW194640   6.213   9.581   1.619  1.9495  0.4436 -0.1397
31354SOL    HW294641   6.258   9.641   1.751  1.6286 -1.4610  0.8778
31355SOL     OW94642   4.253   0.561   1.939  0.1543 -0.0332 -0.2280
31355SOL    HW194643   4.327   0.553   1.879  0.3326 -0.3831  0.0351
31355SOL    HW294644   4.180   0.523   1.892  0.3289 -0.4514 -0.1647
31356SOL     OW94645   3.662   1.791   7.858  0.6276 -0.8123  0.3333
31356SOL    HW194646   3.746   1.799   7.903  0.4984 -1.7531  0.7644
31356SOL    HW294647   3.685   1.764   7.769  0.7535 -2.5971  0.8574
31357SOL     OW94648   8.368   1.203   1.449 -0.7431 -0.3228 -0.1230
31357SOL    HW194649   8.447   1.255   1.463 -1.1032 -0.1553  1.5141
31357SOL    HW294650   8.314   1.258   1.392 -1.2185  1.3081  1.7679
31358SOL     OW94651   6.215   5.374   1.804 -0.0559 -0.2757  0.0231
31358SOL    HW194652   6.147   5.437   1.827  1.3167  1.1046  0.4560
31358SOL    HW294653   6.263   5.414   1.732  0.1113 -1.3764 -0.5083
31359SOL     OW94654   1.073   7.042   6.536  0.0928 -0.2669  0.1139
31359SOL    HW194655   1.085   6.949   6.516 -1.4433 -0.9917  2.2083
31359SOL    HW294656   1.005   7.071   6.475 -2.4394 -1.6757  2.0888
31360SOL     OW94657   1.353   0.407   0.563  0.2245  0.4341 -0.6025
31360SOL    HW194658   1.434   0.371   0.599  0.0259 -0.4288 -0.9905
31360SOL    HW294659   1.291   0.334   0.567 -1.7384  1.9972  3.2109
31361SOL     OW94660   9.376   4.346   8.024 -0.1432  0.4371  0.4708
31361SOL    HW194661   9.416   4.285   8.087  0.0763  0.3138  0.2159
31361SOL    HW294662   9.386   4.432   8.064  1.2445  0.5236 -0.0094
31362SOL     OW94663   7.303   9.278   6.686 -0.0972  0.9498  0.7220
31362SOL    HW194664   7.310   9.183   6.685 -0.9618  0.6739 -3.8776
31362SOL    HW294665   7.388   9.308   6.718  0.2380 -1.2961  2.1980
31363SOL     OW94666   6.237   7.440   8.306  0.2505 -0.2036 -0.0124
31363SOL    HW194667   6.302   7.504   8.335 -0.6134  0.4509  0.5552
31363SOL    HW294668   6.288   7.370   8.265  1.2480  0.6816 -0.3338
31364SOL     OW94669   2.786   0.043   6.716  0.1454 -0.0022 -0.3500
31364SOL    HW194670   2.698   0.079   6.703  0.6355  1.2942 -0.1926
31364SOL    HW294671   2.783  -0.042   6.672 -1.6886 -0.7628  1.0671
31365SOL     OW94672   5.621   4.807   6.003  0.1036 -0.2619 -0.0819
31365SOL    HW194673   5.557   4.836   5.938 -0.0816 -2.8468 -1.1615
31365SOL    HW294674   5.631   4.713   5.986  2.0497 -0.4805  1.9316
31366SOL     OW94675   4.307   7.820   0.518 -1.1353 -0.2787 -0.4337
31366SOL    HW194676   4.356   7.874   0.579 -1.7364  0.9539 -0.9893
31366SOL    HW294677   4.325   7.730   0.544 -1.1635  0.2103  1.3624
31367SOL     OW94678   5.742   5.083   7.946  0.0906 -0.1800 -0.0161
31367SOL    HW194679   5.702   5.162   7.909 -0.1087  0.4621  1.4899
31367SOL    HW294680   5.835   5.106   7.957 -0.1968  0.3347  1.5844
31368SOL     OW94681   8.786   6.486   0.702 -0.8021 -0.5093  0.0537
31368SOL    HW194682   8.720   6.423   0.674 -0.5649 -0.3668 -0.8539
31368SOL    HW294683   8.859   6.432   0.733 -0.7616 -0.6816 -0.3373
31369SOL     OW94684   8.906   1.484   6.408  0.4416 -0.5355  0.6240
31369SOL    HW194685   8.855   1.495   6.488  0.5073  0.3461  0.5563
31369SOL    HW294686   8.941   1.571   6.390  0.6099 -0.7720 -0.2358
31370SOL     OW94687   4.764   1.228   9.792  0.0298  0.6058  0.4487
31370SOL    HW194688   4.681   1.249   9.749 -0.0100  1.0726  0.7419
31370SOL    HW294689   4.740   1.206   9.882  0.1226 -0.2696  0.2691
31371SOL     OW94690   0.918   6.634   1.395  0.2356  0.3696  0.5105
31371SOL    HW194691   0.849   6.579   1.433 -0.5808  0.7537 -0.3622
31371SOL    HW294692   0.995   6.577   1.394 -0.1211 -0.1493  1.2898
31372SOL     OW94693   8.754   3.314   0.802 -0.0554 -0.2227  0.2610
31372SOL    HW194694   8.768   3.409   0.807 -1.1063 -0.0363 -0.1639
31372SOL    HW294695   8.815   3.285   0.734 -0.7024  0.3691 -0.5960
31373SOL     OW94696   0.623   6.887   8.608 -0.2875 -0.3683 -0.0434
31373SOL    HW194697   0.551   6.950   8.607  0.2516  0.2648  0.2458
31373SOL    HW294698   0.584   6.806   8.643 -0.1436  0.9254  3.5856
31374SOL     OW94699   0.999   6.277   3.553  0.2480 -0.0647 -0.4446
31374SOL    HW194700   1.007   6.285   3.648  2.2823  2.2320 -0.6965
31374SOL    HW294701   0.983   6.184   3.538 -0.1413 -0.4873  2.1331
31375SOL     OW94702   1.665   1.535   6.919 -0.5710  0.1645  0.2229
31375SOL    HW194703   1.672   1.495   7.006 -0.9030  0.4990  0.4030
31375SOL    HW294704   1.627   1.621   6.934  0.1702  0.5659 -0.1686
31376SOL     OW94705   0.671   6.915   6.562  0.4175 -0.2235 -0.1660
31376SOL    HW194706   0.647   6.977   6.493  1.4137 -1.0136 -1.2549
31376SOL    HW294707   0.587   6.882   6.594 -0.1253  1.4019  0.2100
31377SOL     OW94708   8.031   1.361   5.118 -0.0207  0.8326 -0.3782
31377SOL    HW194709   8.089   1.418   5.169 -1.2812  2.9178 -1.1199
31377SOL    HW294710   8.044   1.389   5.028  1.7669 -2.4210 -1.2845
31378SOL     OW94711   1.761   4.426   5.269  0.3230 -0.1375  0.0829
31378SOL    HW194712   1.798   4.350   5.315  0.3650 -0.1545  0.0214
31378SOL    HW294713   1.678   4.395   5.234  0.4690 -0.2373 -0.1788
31379SOL     OW94714   2.975   3.193   3.745  0.1848 -0.7635 -0.2755
31379SOL    HW194715   2.970   3.197   3.840 -0.4247  0.0803 -0.3320
31379SOL    HW294716   2.926   3.113   3.722  0.2481 -0.9148  0.1118
31380SOL     OW94717   5.525   5.193   1.061 -0.2257  0.2627  0.2485
31380SOL    HW194718   5.430   5.196   1.069 -0.3890 -1.1484 -0.8003
31380SOL    HW294719   5.552   5.284   1.056 -1.4958  0.6896  0.7408
31381SOL     OW94720   3.515   1.662   3.779 -0.2167 -0.0315  0.3817
31381SOL    HW194721   3.436   1.622   3.815 -0.3484  0.4487  0.6218
31381SOL    HW294722   3.511   1.754   3.805  0.9042 -0.1988  1.2418
31382SOL     OW94723   0.306   1.576   1.417 -0.3194  0.9902 -0.0097
31382SOL    HW194724   0.270   1.584   1.506  0.3889  0.9412  0.2867
31382SOL    HW294725   0.249   1.513   1.374  0.7616 -0.8802  1.1828
31383SOL     OW94726   0.847   9.513   6.719 -0.2706 -0.6723 -0.2026
31383SOL    HW194727   0.890   9.494   6.636  0.8932 -0.0235  0.2316
31383SOL    HW294728   0.754   9.493   6.703 -0.2048  0.1937 -1.8925
31384SOL     OW94729   0.854   4.231   2.900 -0.0635  0.1887  0.1588
31384SOL    HW194730   0.760   4.228   2.915 -0.0294  0.6848  0.5003
31384SOL    HW294731   0.883   4.141   2.912 -0.8430 -0.4671 -2.4230
31385SOL     OW94732   6.512   2.917   2.347 -0.1461  0.5037 -0.0365
31385SOL    HW194733   6.487   2.991   2.292 -0.4781  0.0269 -0.5300
31385SOL    HW294734   6.437   2.904   2.405 -1.5424 -1.5177 -2.1289
31386SOL     OW94735   0.961   7.635   6.384  0.9632 -0.3773  0.5426
31386SOL    HW194736   1.005   7.552   6.406  0.6998  0.1134  3.3142
31386SOL    HW294737   0.874   7.626   6.423  0.4145  0.6627 -0.4102
31387SOL     OW94738   6.661   5.466   5.117  0.2755  0.1885  0.9411
31387SOL    HW194739   6.659   5.415   5.198 -1.4421 -1.4493 -0.0415
31387SOL    HW294740   6.577   5.513   5.116 -1.1219 -2.1128 -1.1601
31388SOL     OW94741   6.291   9.393   6.567  0.0916  0.2697 -0.2240
31388SOL    HW194742   6.296   9.436   6.482  4.1006 -0.7987 -0.7067
31388SOL    HW294743   6.277   9.300   6.546  3.8190 -0.4768 -0.0980
31389SOL     OW94744   0.878   6.729   6.524  0.5436 -0.1891 -0.1149
31389SOL    HW194745   0.811   6.794   6.545 -0.3453 -0.9179 -0.5769
31389SOL    HW294746   0.851   6.651   6.573  2.3563  0.1501  1.5570
31390SOL     OW94747   3.281   9.575   1.153 -0.0227  1.0841  0.8098
31390SOL    HW194748   3.328   9.544   1.076  0.4124  0.2826  1.3823
31390SOL    HW294749   3.234   9.652   1.123 -0.0309  0.6598 -0.3145
31391SOL     OW94750   0.363   9.518   0.116 -0.5248  0.0809 -0.0269
31391SOL    HW194751   0.343   9.426   0.133  0.4266  0.2643  2.4554
31391SOL    HW294752   0.289   9.566   0.152  0.7094  0.4001  2.2515
31392SOL     OW94753   6.072   6.082   3.296  0.0098 -0.1281 -0.1038
31392SOL    HW194754   6.112   6.056   3.213 -1.1322 -0.3190 -0.6153
31392SOL    HW294755   6.116   6.164   3.320  2.0288 -1.2859  0.3465
31393SOL     OW94756   1.963   2.673   2.801 -0.0698 -0.4057  0.3331
31393SOL    HW194757   1.944   2.736   2.870  0.5192  0.8670 -0.6132
31393SOL    HW294758   1.923   2.592   2.831  2.1614 -0.5889  3.2881
31394SOL     OW94759   0.726   6.717   3.254  0.4854  0.7237 -0.3776
31394SOL    HW194760   0.672   6.784   3.296  1.1307  0.3072  1.1786
31394SOL    HW294761   0.738   6.650   3.322  1.3385 -0.1128 -1.3255
31395SOL     OW94762   9.391   5.949   1.880  0.4711  0.7570 -0.2088
31395SOL    HW194763   9.341   5.914   1.954 -0.8211 -0.0849 -1.4313
31395SOL    HW294764   9.421   6.035   1.910  1.4752 -0.2468  1.9047
31396SOL     OW94765   8.068   3.239   8.239  0.2705  0.6561  0.2790
31396SOL    HW194766   8.146   3.242   8.294  0.0297 -1.8342  0.8302
31396SOL    HW294767   8.086   3.303   8.170  2.6719  0.3637  0.5455
31397SOL     OW94768   6.007   2.321   2.550 -1.0169 -0.5017  0.0835
31397SOL    HW194769   6.056   2.402   2.538 -3.4088  0.8088 -1.5853
31397SOL    HW294770   6.055   2.275   2.619  1.7771  1.1977 -0.5283
31398SOL     OW94771   1.126   5.307   3.711 -0.6065  0.9935  0.4176
31398SOL    HW194772   1.200   5.251   3.732 -1.3863  0.2303  1.2258
31398SOL    HW294773   1.051   5.249   3.711 -1.2376  1.7817 -0.2294
31399SOL     OW94774   9.348   9.498   0.972  0.4573  0.5915  0.6130
31399SOL    HW194775   9.411   9.431   0.998  0.3693  0.3984  0.3432
31399SOL    HW294776   9.297   9.516   1.051  1.0108  0.9287  0.8961
31400SOL     OW94777   1.476   4.478   2.728  0.1438 -0.1558  0.5271
31400SOL    HW194778   1.500   4.434   2.809  0.4897 -0.2185  0.3892
31400SOL    HW294779   1.520   4.429   2.659  1.1064  0.8218  0.4309
31401SOL     OW94780   7.177   6.511   1.999 -0.5525 -0.8131  0.1111
31401SOL    HW194781   7.206   6.424   1.971 -1.5523 -1.1077 -0.0524
31401SOL    HW294782   7.106   6.533   1.938 -0.9644 -0.3028  0.7582
31402SOL     OW94783   6.473   6.575   4.818 -0.4504 -0.3740 -0.5614
31402SOL    HW194784   6.407   6.529   4.766 -1.0618 -0.9656  0.6876
31402SOL    HW294785   6.459   6.544   4.908  0.7775  0.3687 -0.0811
31403SOL     OW94786   9.636   1.248   0.691  0.3116  0.0743 -0.7777
31403SOL    HW194787   9.625   1.294   0.608 -0.5838 -0.2745 -0.8681
31403SOL    HW294788   9.678   1.165   0.667 -0.9727 -0.5295 -1.0680
31404SOL     OW94789   7.339   6.637   9.733  0.7129  0.7509 -0.5970
31404SOL    HW194790   7.320   6.635   9.827 -0.5028  0.1805 -0.8285
31404SOL    HW294791   7.396   6.562   9.718  0.3673  0.4435 -0.4034
31405SOL     OW94792   4.971   9.072   8.913  0.0169 -0.0431 -0.0818
31405SOL    HW194793   5.044   9.092   8.854  0.8012  1.3485  1.2764
31405SOL    HW294794   4.982   8.979   8.934  1.6240  0.2123  0.3603
31406SOL     OW94795   6.059   8.591   2.615 -0.1909 -0.2452  0.1082
31406SOL    HW194796   6.085   8.560   2.702  0.3791 -3.0103 -0.9567
31406SOL    HW294797   5.973   8.551   2.601  0.4762 -1.2784 -1.2428
31407SOL     OW94798   8.770   0.844   1.505  0.1833 -0.2742  0.4493
31407SOL    HW194799   8.858   0.879   1.493 -0.3192  0.9864  0.2304
31407SOL    HW294800   8.727   0.858   1.420 -0.0661 -1.4234  0.3610
31408SOL     OW94801   0.212   3.576   0.878  0.0931  0.2134 -0.4775
31408SOL    HW194802   0.178   3.496   0.917 -0.7155  0.8849  0.2454
31408SOL    HW294803   0.291   3.549   0.831 -0.4898 -1.0912 -0.7356
31409SOL     OW94804   9.333   0.416   1.729  0.1274  0.2662  0.1526
31409SOL    HW194805   9.418   0.378   1.707  0.3196  0.0313  1.2778
31409SOL    HW294806   9.271   0.369   1.672  0.6074 -0.3619  0.1396
31410SOL     OW94807   2.832   3.406   2.414  0.0744 -0.3719  0.2529
31410SOL    HW194808   2.764   3.416   2.480 -0.2244 -1.6080  0.1554
31410SOL    HW294809   2.851   3.313   2.413  0.0684 -0.3909 -1.4186
31411SOL     OW94810   8.098   0.614   7.341  0.0013  0.1689  0.0301
31411SOL    HW194811   8.163   0.626   7.411 -0.3593 -2.0453  0.8108
31411SOL    HW294812   8.100   0.521   7.322 -2.6986  0.0764 -0.1516
31412SOL     OW94813   3.576   6.485   0.656 -0.6271 -0.1729  0.2923
31412SOL    HW194814   3.563   6.390   0.657 -0.0031 -0.2547  1.1493
31412SOL    HW294815   3.513   6.518   0.720 -1.8507  0.1521 -1.0103
31413SOL     OW94816   1.127   5.915   2.178  1.0962  0.0141 -0.5139
31413SOL    HW194817   1.107   5.857   2.252 -0.2570  0.1392 -0.7483
31413SOL    HW294818   1.190   5.978   2.213 -0.8381  1.1858  1.1069
31414SOL     OW94819   5.200   0.947   0.205  0.5637  0.3189  0.0067
31414SOL    HW194820   5.267   1.014   0.196  2.1757 -1.3415 -1.0407
31414SOL    HW294821   5.151   0.951   0.123  1.1492 -0.2581 -0.3805
31415SOL     OW94822   9.600   0.338   5.644  0.1771 -0.4731  0.1090
31415SOL    HW194823   9.664   0.310   5.710  1.1453  0.6156 -0.3407
31415SOL    HW294824   9.570   0.424   5.675 -0.9845 -0.9042  0.2400
31416SOL     OW94825   9.022   9.413   7.212  0.2452  0.2271 -0.0744
31416SOL    HW194826   8.983   9.498   7.235  1.1604  0.7634 -0.4688
31416SOL    HW294827   8.952   9.367   7.166 -0.5274  0.4407  0.8557
31417SOL     OW94828   2.804   0.134   9.758 -0.1265 -0.0857 -0.5950
31417SOL    HW194829   2.870   0.159   9.694 -0.6899  0.0604 -1.1355
31417SOL    HW294830   2.826   0.044   9.782  0.7106  0.2223 -0.1843
31418SOL     OW94831   4.537   9.429   5.326  0.4196  0.0399 -0.2206
31418SOL    HW194832   4.543   9.345   5.372  1.7505 -0.3374 -1.0020
31418SOL    HW294833   4.608   9.482   5.364  0.1582  0.4836 -0.3470
31419SOL     OW94834   4.204   3.646   8.589 -0.0231 -0.1734  0.0290
31419SOL    HW194835   4.270   3.714   8.605 -0.0040 -0.1246 -0.2541
31419SOL    HW294836   4.127   3.675   8.638  0.4119 -0.6259  1.0056
31420SOL     OW94837   8.055   4.270   6.987  0.7642 -0.1188  0.2453
31420SOL    HW194838   8.032   4.244   6.898  0.6169  0.0048  0.2473
31420SOL    HW294839   7.975   4.259   7.038  1.3814 -2.3274  0.8600
31421SOL     OW94840   9.761   1.394   5.084  0.8511 -0.1844  0.4004
31421SOL    HW194841   9.726   1.427   5.166  2.7196 -0.8176  1.5011
31421SOL    HW294842   9.848   1.434   5.077  1.1839 -1.0484 -0.7036
31422SOL     OW94843   3.344   5.950   6.919 -0.1402 -0.3511 -0.1093
31422SOL    HW194844   3.376   5.903   6.996 -1.3701 -2.3475 -0.7553
31422SOL    HW294845   3.358   6.043   6.940  1.6728 -0.9340  1.5221
31423SOL     OW94846   0.098   1.941   5.545 -0.8687 -0.2258  0.8769
31423SOL    HW194847   0.127   1.871   5.487 -1.0441  1.1853 -1.0249
31423SOL    HW294848   0.073   1.897   5.626 -0.7313 -2.3050 -0.1538
31424SOL     OW94849   5.892   4.080   0.841 -0.0453  0.5420  0.5031
31424SOL    HW194850   5.871   4.122   0.925 -1.0619 -2.6076  1.9697
31424SOL    HW294851   5.972   4.030   0.858  0.8281  1.3499 -1.0134
31425SOL     OW94852   6.082   7.802   6.620 -0.7341  0.3326  0.7243
31425SOL    HW194853   6.048   7.717   6.590  0.5225  0.5798 -1.6207
31425SOL    HW294854   6.067   7.801   6.715  0.2585 -3.0136  0.9912
31426SOL     OW94855   7.246   6.265   1.874 -0.3611  0.1011 -0.0649
31426SOL    HW194856   7.337   6.275   1.845 -0.2495 -0.2020  0.1661
31426SOL    HW294857   7.252   6.213   1.955 -0.6993  0.5687  0.2670
31427SOL     OW94858   1.007   8.731   9.417 -0.0525  0.4791  0.0880
31427SOL    HW194859   1.031   8.646   9.380  1.9868  0.7765  0.6147
31427SOL    HW294860   0.924   8.715   9.461 -0.4187 -0.8852 -1.0217
31428SOL     OW94861   6.614   5.884   4.173  0.4521  0.0908  0.1209
31428SOL    HW194862   6.621   5.801   4.220 -0.3588 -0.3133 -0.4498
31428SOL    HW294863   6.524   5.886   4.142  0.7570  0.6995 -0.7556
31429SOL     OW94864   1.087   2.061   7.459  0.1245  0.6151 -0.0705
31429SOL    HW194865   1.088   2.157   7.453 -1.8449  0.9693  3.1488
31429SOL    HW294866   1.178   2.038   7.476  0.7314  1.8014 -1.4190
31430SOL     OW94867   8.226   6.805   4.111  0.0363  0.5493  0.2748
31430SOL    HW194868   8.213   6.711   4.097  0.2849  0.3988  0.9987
31430SOL    HW294869   8.320   6.815   4.122  0.2259  1.1401 -1.4991
31431SOL     OW94870   6.656   7.745   7.408  0.2357 -0.2231 -0.2372
31431SOL    HW194871   6.654   7.656   7.443  0.2658 -0.1261  0.0181
31431SOL    HW294872   6.716   7.741   7.333 -1.1933 -0.8167 -1.3754
31432SOL     OW94873   2.191   9.205   9.001 -0.4001 -0.0966  0.1500
31432SOL    HW194874   2.154   9.292   9.016 -2.1771 -0.8993  0.8177
31432SOL    HW294875   2.264   9.199   9.063 -1.9341  0.0008  2.0893
31433SOL     OW94876   7.292   1.954   5.209  0.4042  0.1631  0.3323
31433SOL    HW194877   7.306   2.000   5.126  0.9019  0.3629  0.5194
31433SOL    HW294878   7.357   1.884   5.208 -0.0819 -0.2897  0.2300
31434SOL     OW94879   0.525   8.909   3.873 -0.0557 -0.4996  0.5037
31434SOL    HW194880   0.602   8.900   3.817  0.6263  0.0837  1.3199
31434SOL    HW294881   0.499   9.000   3.863  0.2070 -0.3269  1.2815
31435SOL     OW94882   9.045   6.446   9.014  0.0974 -0.5055  0.1765
31435SOL    HW194883   9.030   6.536   8.983  0.8105 -0.4424 -0.0137
31435SOL    HW294884   9.064   6.396   8.934  2.0491 -0.3237  0.4736
31436SOL     OW94885   9.899   9.886   5.066  0.4848  0.0059 -0.0947
31436SOL    HW194886   9.853   9.897   4.984 -0.5311  2.3863  0.7021
31436SOL    HW294887   9.846   9.824   5.116  0.6823 -0.8246 -0.8861
31437SOL     OW94888   6.856   7.252   9.208  0.0976 -0.0310 -0.4355
31437SOL    HW194889   6.952   7.251   9.198  0.2180 -1.2249  0.5178
31437SOL    HW294890   6.824   7.294   9.129  1.5037  2.5617  0.2227
31438SOL     OW94891   4.748   7.157   0.666  0.4997  0.1676 -0.0894
31438SOL    HW194892   4.696   7.177   0.744 -1.9532 -0.5611 -1.4029
31438SOL    HW294893   4.781   7.068   0.683  0.1911  0.1083  0.2431
31439SOL     OW94894   0.352   8.424   3.351  0.3151  0.4039  0.3187
31439SOL    HW194895   0.345   8.372   3.271  0.0238  0.8337  0.0566
31439SOL    HW294896   0.427   8.481   3.336  1.5940 -0.9884  1.2313
31440SOL     OW94897   1.626   9.233   1.710  0.0157 -0.2939  0.3873
31440SOL    HW194898   1.548   9.180   1.726  0.3846 -0.4160  1.9764
31440SOL    HW294899   1.632   9.290   1.787  1.3805 -0.1444  0.1871
31441SOL     OW94900   9.120   7.461   1.696  1.2922  0.1366  0.1909
31441SOL    HW194901   9.081   7.418   1.619 -0.8662  1.8073  0.2648
31441SOL    HW294902   9.213   7.438   1.691  1.0037 -0.8593 -2.2077
31442SOL     OW94903   6.860   9.108   4.651  0.0912 -0.4703 -1.2152
31442SOL    HW194904   6.766   9.124   4.644  0.2046  1.3711  0.7321
31442SOL    HW294905   6.901   9.193   4.635  1.3226 -0.8635 -0.3343
31443SOL     OW94906   3.135   0.880   4.488  0.2998 -0.2365 -0.4033
31443SOL    HW194907   3.100   0.814   4.548 -0.7049  0.8157  0.2289
31443SOL    HW294908   3.131   0.839   4.402 -0.7404 -0.8310 -0.0885
31444SOL     OW94909   5.875   3.002   5.782 -0.0533 -0.2873 -0.2337
31444SOL    HW194910   5.854   2.970   5.870 -0.1216  0.2342 -0.0585
31444SOL    HW294911   5.945   2.944   5.752 -0.9869 -1.3535 -0.3924
31445SOL     OW94912   2.640   7.046   2.857  0.8869 -0.2901 -0.1072
31445SOL    HW194913   2.549   7.018   2.869  1.1273 -0.0824  2.8698
31445SOL    HW294914   2.687   6.965   2.836  0.3396 -0.8086  0.6007
31446SOL     OW94915   7.675   3.330   7.890 -0.0345 -0.3664 -0.1601
31446SOL    HW194916   7.679   3.370   7.803 -1.0974  0.2811  0.0666
31446SOL    HW294917   7.697   3.402   7.950  1.0649 -0.9031  0.0921
31447SOL     OW94918   6.694   6.992   3.976  0.0253  0.0656 -0.1692
31447SOL    HW194919   6.677   6.901   4.003  2.0212  0.0458  1.2269
31447SOL    HW294920   6.703   7.040   4.058 -0.7802  1.5192 -0.8918
31448SOL     OW94921   2.638   4.042   0.130 -0.2241  1.0851  0.7362
31448SOL    HW194922   2.727   4.030   0.098 -0.5551  0.9226 -0.1907
31448SOL    HW294923   2.617   4.133   0.111 -0.0871  1.2619  1.4158
31449SOL     OW94924   9.289   2.884   0.954  0.1029  0.4433  0.2178
31449SOL    HW194925   9.380   2.882   0.981  0.5687 -0.1758 -1.3071
31449SOL    HW294926   9.244   2.825   1.014  0.7870  0.3698  0.6612
31450SOL     OW94927   8.005   5.727   5.719 -0.0779  0.0187  0.1619
31450SOL    HW194928   8.002   5.698   5.628 -2.0830 -1.7284  0.7086
31450SOL    HW294929   7.969   5.816   5.716 -2.4989 -0.8994 -0.5386
31451SOL     OW94930   7.815   2.392   5.178  0.4396 -0.0195 -0.5548
31451SOL    HW194931   7.856   2.430   5.100  1.5969  2.0869  0.9624
31451SOL    HW294932   7.820   2.298   5.164  3.2878  0.1940 -1.7333
31452SOL     OW94933   9.074   5.283   3.773  0.0372  0.4303 -0.2495
31452SOL    HW194934   9.007   5.348   3.794  1.5549  1.7063  0.8650
31452SOL    HW294935   9.060   5.213   3.837 -1.4584 -0.2980 -1.3090
31453SOL     OW94936   7.842   1.940   8.839 -0.4286  0.0338  0.2279
31453SOL    HW194937   7.920   1.885   8.847 -0.1753  0.3909  0.2338
31453SOL    HW294938   7.769   1.881   8.858 -0.0019  0.4081  3.7172
31454SOL     OW94939   5.081   8.963   9.517 -0.0528  0.0946 -0.0768
31454SOL    HW194940   5.056   8.904   9.589 -0.7175  1.0920  0.5322
31454SOL    HW294941   5.063   9.051   9.551  2.4958  0.7845 -0.3253
31455SOL     OW94942   8.139   7.154   9.738  0.0004  0.9560 -0.1322
31455SOL    HW194943   8.072   7.138   9.804 -0.0584  1.2733 -0.1142
31455SOL    HW294944   8.090   7.177   9.659  0.0609  0.3041 -0.3655
31456SOL     OW94945   3.179   6.993   6.127  0.1641 -0.5397  0.3344
31456SOL    HW194946   3.208   7.004   6.217  0.4168  0.6878  0.1236
31456SOL    HW294947   3.257   6.964   6.079  0.2252 -0.4480  0.3778
31457SOL     OW94948   6.300   5.501   1.558  0.4180  0.7965  0.1408
31457SOL    HW194949   6.293   5.584   1.511 -1.4096  1.7475  1.9844
31457SOL    HW294950   6.385   5.506   1.603  0.2501  1.7333  0.3673
31458SOL     OW94951   2.043   1.963   7.087 -0.1880  0.0669 -0.0792
31458SOL    HW194952   1.982   1.900   7.049  0.1851 -1.5623  1.8487
31458SOL    HW294953   2.129   1.934   7.057 -0.0773  0.1830  0.1237
31459SOL     OW94954   9.237   8.009   1.163  0.4252  0.0483  0.0482
31459SOL    HW194955   9.177   7.990   1.235  1.1877 -0.5764  0.5337
31459SOL    HW294956   9.278   7.925   1.143 -0.1691  0.0967 -1.5015
31460SOL     OW94957   1.276   1.875   2.782  0.1611  0.4630 -0.6227
31460SOL    HW194958   1.335   1.891   2.709 -0.0324 -0.9050 -1.1218
31460SOL    HW294959   1.194   1.847   2.741 -0.2291  0.5032  0.1033
31461SOL     OW94960   5.134   0.602   8.690 -0.4105  0.2123  0.2002
31461SOL    HW194961   5.198   0.532   8.677 -1.3728 -0.4601 -1.2094
31461SOL    HW294962   5.049   0.557   8.692 -0.8990  1.1250  1.5946
31462SOL     OW94963   9.001   3.619   4.494  0.2378 -0.6020 -0.0628
31462SOL    HW194964   8.991   3.606   4.588  0.4805  1.7525  0.3599
31462SOL    HW294965   8.946   3.696   4.475  1.8553  0.2751 -1.4188
31463SOL     OW94966   9.656   0.647   8.848  0.2177 -0.1906  0.6123
31463SOL    HW194967   9.706   0.692   8.915  0.0596 -0.6680  1.0659
31463SOL    HW294968   9.588   0.599   8.897  0.1390 -0.5971  0.1221
31464SOL     OW94969   4.685   5.328   2.040 -0.5893  0.2843 -0.2098
31464SOL    HW194970   4.659   5.242   2.010  0.6846 -0.0813 -0.3368
31464SOL    HW294971   4.749   5.311   2.109 -1.3807  1.1271  0.7719
31465SOL     OW94972   4.348   9.301   3.242  0.1544 -0.6079  0.0107
31465SOL    HW194973   4.433   9.318   3.201  0.2318 -0.6495  0.1503
31465SOL    HW294974   4.323   9.385   3.281 -1.1120  0.1335 -2.2333
31466SOL     OW94975   2.795   5.158   4.609 -0.9932 -0.4568  0.1066
31466SOL    HW194976   2.847   5.188   4.683 -1.0379  0.6449 -0.2887
31466SOL    HW294977   2.857   5.154   4.536 -1.0463 -1.0841  0.0922
31467SOL     OW94978   3.173   6.264   1.055 -0.1394 -0.4709 -0.2008
31467SOL    HW194979   3.228   6.295   1.127  1.0244  0.1195 -1.3179
31467SOL    HW294980   3.099   6.325   1.053  0.4697  0.2688 -0.3049
31468SOL     OW94981   2.895   6.699   6.936  0.5620  0.6556  0.2221
31468SOL    HW194982   2.955   6.625   6.947  1.1254  1.2205  1.0735
31468SOL    HW294983   2.866   6.692   6.845 -0.2888 -1.2625  0.5797
31469SOL     OW94984   6.458   7.129   5.998 -0.7126 -0.3360 -0.4396
31469SOL    HW194985   6.372   7.136   6.041 -0.6875 -0.3067 -0.3932
31469SOL    HW294986   6.497   7.050   6.036 -0.0533  0.5300  0.7495
31470SOL     OW94987   4.356   8.662   5.315 -0.1942  0.1619  0.2372
31470SOL    HW194988   4.418   8.682   5.245  1.0762 -0.3182  1.1871
31470SOL    HW294989   4.274   8.644   5.270  0.5815 -0.1210 -1.1231
31471SOL     OW94990   8.705   9.909   7.632 -0.4088  0.0332 -0.5804
31471SOL    HW194991   8.646   9.959   7.689  0.4804  0.9821 -0.4694
31471SOL    HW294992   8.742   9.842   7.689 -0.4065  0.2458 -0.3319
31472SOL     OW94993   8.369   0.039   4.327  0.0718 -0.3464 -0.2744
31472SOL    HW194994   8.365   0.132   4.351 -0.0058 -0.7511  1.4125
31472SOL    HW294995   8.461   0.025   4.303  1.4297 -0.8718  4.3686
31473SOL     OW94996   6.082   4.747   8.844  0.7916  0.4138  0.5425
31473SOL    HW194997   6.136   4.824   8.826 -0.4380  1.6326  1.8136
31473SOL    HW294998   5.996   4.770   8.808  0.8634 -1.1698 -0.7386
31474SOL     OW94999   1.269   1.787   0.816 -0.5549  0.5382  0.2575
31474SOL    HW195000   1.352   1.742   0.801  0.0911  1.6149  0.4243
31474SOL    HW295001   1.290   1.854   0.881 -1.4024  1.2280 -0.1482
31475SOL     OW95002   8.153   9.133   9.291  0.0581 -0.0367  0.3717
31475SOL    HW195003   8.154   9.079   9.371 -2.7610  0.8300  1.1138
31475SOL    HW295004   8.124   9.219   9.321 -3.4685 -0.2939 -1.8051
31476SOL     OW95005   1.179   8.529   1.166 -0.1425  0.1912 -0.6832
31476SOL    HW195006   1.202   8.616   1.200 -0.4673  0.3328 -0.8236
31476SOL    HW295007   1.178   8.473   1.244  0.1160  0.3040 -0.5985
31477SOL     OW95008   7.482   7.268   7.892  0.1656 -0.3237 -0.0083
31477SOL    HW195009   7.535   7.287   7.815  0.0437 -2.1030 -0.5700
31477SOL    HW295010   7.546   7.239   7.958  0.0235 -1.4287 -0.3387
31478SOL     OW95011   6.997   1.392   3.406 -0.0329 -0.4568 -0.0854
31478SOL    HW195012   6.941   1.409   3.482  0.8062  3.5360 -0.1151
31478SOL    HW295013   6.948   1.428   3.332  1.2152  0.3178 -0.5726
31479SOL     OW95014   9.151   9.083   7.246 -0.3128  0.2581 -0.0146
31479SOL    HW195015   9.065   9.043   7.261  0.2206 -0.8574  0.1473
31479SOL    HW295016   9.160   9.083   7.150 -0.0929 -0.5393 -0.0058
31480SOL     OW95017   2.469   6.117   2.809 -0.3681  0.0368  0.2055
31480SOL    HW195018   2.373   6.113   2.804 -0.6375  2.3791  1.7363
31480SOL    HW295019   2.493   6.183   2.744  0.1122  0.1483  0.4935
31481SOL     OW95020   8.125   3.022   6.019 -0.0652 -0.5340  0.3517
31481SOL    HW195021   8.190   3.068   5.967 -1.1567  0.6103 -0.0639
31481SOL    HW295022   8.042   3.040   5.975 -0.7189 -1.6532  1.0613
31482SOL     OW95023   2.027   1.748   7.909 -1.1358 -0.1793  0.0657
31482SOL    HW195024   2.039   1.672   7.852  1.7788  0.1997  0.0203
31482SOL    HW295025   2.001   1.818   7.849 -1.3637 -0.5650 -0.2881
31483SOL     OW95026   0.988   4.318   9.359 -0.5505  0.2827 -1.2430
31483SOL    HW195027   1.068   4.290   9.402 -0.3039  1.5501 -0.8276
31483SOL    HW295028   0.935   4.356   9.429 -1.1668  0.1964 -1.6498
31484SOL     OW95029   4.240   4.588   2.131  0.6020 -0.2455 -0.2244
31484SOL    HW195030   4.269   4.600   2.221  2.2252 -1.1080 -0.6023
31484SOL    HW295031   4.285   4.509   2.101 -0.3013 -0.2651 -1.6357
31485SOL     OW95032   0.276   1.784   9.096  1.1805 -0.3081 -0.0613
31485SOL    HW195033   0.370   1.797   9.111  0.9482 -0.1596  1.3473
31485SOL    HW295034   0.236   1.797   9.182 -0.0670 -1.0471 -0.5127
31486SOL     OW95035   3.018   7.526   2.528  0.1817 -0.6175  0.4082
31486SOL    HW195036   3.047   7.443   2.566 -0.6060 -1.1709 -0.1743
31486SOL    HW295037   3.091   7.586   2.543  0.9704 -1.5518  0.3841
31487SOL     OW95038   0.328   1.072   3.331  0.0381 -0.5859  0.5956
31487SOL    HW195039   0.389   0.999   3.335  0.2499 -0.4435 -0.0149
31487SOL    HW295040   0.260   1.049   3.395  0.6384 -0.8157  1.1637
31488SOL     OW95041   5.914   7.951   4.803 -0.4827 -0.4362  0.1821
31488SOL    HW195042   5.980   7.962   4.872 -0.7114 -0.9191  0.4820
31488SOL    HW295043   5.938   7.869   4.759 -1.6026 -1.2896  1.1092
31489SOL     OW95044   7.049   9.410   7.781  0.6882  0.1245  0.0854
31489SOL    HW195045   7.065   9.408   7.875  1.1737 -0.6890 -0.0114
31489SOL    HW295046   7.051   9.503   7.759 -1.6835  0.5438  1.2526
31490SOL     OW95047   5.788   1.446   2.504 -0.4163  0.2408  0.2931
31490SOL    HW195048   5.869   1.476   2.546  2.5123 -2.3711 -2.8928
31490SOL    HW295049   5.772   1.511   2.436 -0.7668  0.5165  0.6346
31491SOL     OW95050   0.252   4.362   4.101 -0.1414 -0.5722 -0.2560
31491SOL    HW195051   0.242   4.391   4.191  0.7558  0.5401 -0.4926
31491SOL    HW295052   0.342   4.329   4.096  0.2976  0.6722 -1.0689
31492SOL     OW95053   5.628   4.246   2.688 -0.6189  0.0200 -0.3775
31492SOL    HW195054   5.635   4.166   2.637  0.3782 -0.6113  0.6917
31492SOL    HW295055   5.717   4.260   2.722 -0.6188  1.9134 -1.0241
31493SOL     OW95056   2.021   2.429   1.468 -0.4969  0.3149  0.2972
31493SOL    HW195057   2.094   2.489   1.483  0.5090 -0.5036 -1.1486
31493SOL    HW295058   2.019   2.373   1.547 -1.2227  1.9389  1.4919
31494SOL     OW95059   0.537   5.195   2.988  0.0082 -0.2072  0.4237
31494SOL    HW195060   0.536   5.285   2.954  2.3057 -0.4873 -0.5675
31494SOL    HW295061   0.628   5.179   3.011 -0.8425 -1.3076  3.4989
31495SOL     OW95062   3.222   0.010   2.460  0.8344 -0.0449 -0.3361
31495SOL    HW195063   3.206  -0.043   2.382  1.0579 -1.9435  0.8368
31495SOL    HW295064   3.293   0.069   2.435 -0.6988  1.0850 -2.2796
31496SOL     OW95065   4.981   4.537   5.372  0.4975 -0.1770  0.2910
31496SOL    HW195066   4.946   4.449   5.386 -1.5087  0.7354  1.3154
31496SOL    HW295067   5.060   4.523   5.319 -0.2840 -2.4982 -0.3685
31497SOL     OW95068   8.386   9.176   3.937 -0.3264  0.6852  0.4911
31497SOL    HW195069   8.442   9.166   3.860 -0.8972  1.7066 -0.0760
31497SOL    HW295070   8.439   9.142   4.009  0.5841  0.5855 -0.1957
31498SOL     OW95071   0.064   1.996   7.249  0.0291 -0.2714 -0.6008
31498SOL    HW195072   0.045   2.031   7.162  3.8379 -0.3992 -1.6697
31498SOL    HW295073   0.097   1.908   7.233  0.8390 -0.2965  0.9790
31499SOL     OW95074   4.540   8.630   5.775  0.5846 -0.1852 -0.4008
31499SOL    HW195075   4.510   8.615   5.686  1.9153  0.2199 -0.9319
31499SOL    HW295076   4.523   8.547   5.820 -1.0438 -0.0612 -0.7335
31500SOL     OW95077   4.496   0.620   6.374 -0.0531  0.1887  0.2168
31500SOL    HW195078   4.411   0.663   6.380  0.3443  1.0513 -0.1900
31500SOL    HW295079   4.559   0.692   6.377  0.5954 -0.2696 -1.5118
31501SOL     OW95080   7.429   5.745   3.606 -0.3285  0.2013 -0.0927
31501SOL    HW195081   7.452   5.652   3.601 -1.4023 -0.3440  3.0339
31501SOL    HW295082   7.366   5.758   3.535  0.2572 -1.2732 -0.9295
31502SOL     OW95083   8.454   0.500   7.778 -0.5076  0.2247  0.5482
31502SOL    HW195084   8.479   0.545   7.697 -0.4981 -0.7555 -0.0111
31502SOL    HW295085   8.493   0.553   7.848  2.0762 -0.5347 -0.2211
31503SOL     OW95086   8.609   6.390   0.068  0.1346  0.3245 -0.3032
31503SOL    HW195087   8.545   6.382  -0.002  0.0275  0.3804 -0.2102
31503SOL    HW295088   8.688   6.422   0.024  0.6468 -1.4237 -0.7247
31504SOL     OW95089   9.163   6.661   7.076  0.1844  0.2005 -0.4178
31504SOL    HW195090   9.181   6.754   7.060  2.1976 -0.1209 -0.2457
31504SOL    HW295091   9.067   6.654   7.072 -0.0867  2.4689  0.6425
31505SOL     OW95092   6.330   5.985   0.884  0.3120  0.1025  0.4187
31505SOL    HW195093   6.364   6.069   0.917  0.5628  0.4000 -0.5812
31505SOL    HW295094   6.240   6.004   0.860  0.5255  0.2297 -0.3050
31506SOL     OW95095   3.247   7.167   2.311 -0.2441  0.9561 -0.3867
31506SOL    HW195096   3.223   7.225   2.239  0.7138  1.1870 -0.5451
31506SOL    HW295097   3.320   7.212   2.354 -1.0082  0.9731  0.9356
31507SOL     OW95098   6.912   8.396   8.095  0.3560 -0.6379  0.0225
31507SOL    HW195099   6.880   8.393   8.005  0.5601  1.6110 -0.1858
31507SOL    HW295100   6.993   8.446   8.090  0.3967 -0.5205  1.4484
31508SOL     OW95101   5.526   3.168   7.682 -0.0379  0.2886 -0.2625
31508SOL    HW195102   5.479   3.093   7.717  1.3776 -0.7281 -0.4568
31508SOL    HW295103   5.607   3.131   7.646 -0.2932  1.6015 -2.3552
31509SOL     OW95104   5.967   9.603   2.906 -0.1777 -0.0664 -0.0306
31509SOL    HW195105   6.027   9.557   2.848 -2.6781 -1.2148 -1.9005
31509SOL    HW295106   5.939   9.680   2.856 -0.1577  0.5692  0.8964
31510SOL     OW95107   0.574   6.945   8.995 -0.2460  0.5798  0.5344
31510SOL    HW195108   0.645   6.881   9.003 -1.3027 -0.5589  1.3558
31510SOL    HW295109   0.501   6.904   9.042 -0.9471  2.4417  1.1537
31511SOL     OW95110   0.934   1.597   3.386 -0.2036  0.3787  0.8068
31511SOL    HW195111   0.868   1.530   3.372  0.3404 -0.6687  2.8996
31511SOL    HW295112   0.886   1.680   3.384 -1.5514 -0.3460  2.0991
31512SOL     OW95113   3.207   4.491   9.440 -0.1725  0.5142 -0.3574
31512SOL    HW195114   3.111   4.492   9.441 -0.2059  0.0836  2.3227
31512SOL    HW295115   3.229   4.405   9.405 -0.8239 -0.1459  0.8041
31513SOL     OW95116   2.400   3.870   3.048  0.3757 -0.5313 -0.1476
31513SOL    HW195117   2.474   3.812   3.064  1.8907  1.0911 -0.9510
31513SOL    HW295118   2.407   3.939   3.114 -0.1805 -0.1524 -0.4636
31514SOL     OW95119   5.828   0.937   3.661 -0.3976 -0.1790 -0.1247
31514SOL    HW195120   5.792   0.907   3.578  0.1299 -0.5443 -0.2277
31514SOL    HW295121   5.837   1.032   3.651 -3.4703  0.3158  0.7216
31515SOL     OW95122   8.164   9.779   3.770  0.4102 -0.1511  0.3542
31515SOL    HW195123   8.252   9.784   3.733  0.3160  0.6328  0.2313
31515SOL    HW295124   8.161   9.850   3.834 -0.3587  0.2500 -0.1194
31516SOL     OW95125   3.467   2.311   4.481 -0.7248 -0.6442  0.1159
31516SOL    HW195126   3.503   2.228   4.450 -0.7562 -0.3178 -0.8090
31516SOL    HW295127   3.449   2.295   4.574  1.8328 -0.7947  0.6512
31517SOL     OW95128   2.541   0.302   5.922 -0.8243  0.2260  0.1689
31517SOL    HW195129   2.453   0.337   5.935 -0.3732  0.7338  2.2172
31517SOL    HW295130   2.595   0.377   5.898 -0.6376  0.2341  0.5949
31518SOL     OW95131   1.761   4.638   8.298 -0.1082 -0.1146  0.6118
31518SOL    HW195132   1.747   4.677   8.384  0.4894  0.6584  0.3726
31518SOL    HW295133   1.841   4.680   8.265 -0.0639 -0.7449 -0.1213
31519SOL     OW95134   8.332   1.465   4.366  0.1460  0.2630 -0.1958
31519SOL    HW195135   8.300   1.535   4.309  2.1201  0.6166 -0.9665
31519SOL    HW295136   8.282   1.475   4.447 -2.2300  0.1968 -1.5883
31520SOL     OW95137   3.100   8.451   1.944 -0.0966  0.0361  0.0233
31520SOL    HW195138   3.103   8.509   2.020 -1.6907 -1.4500  1.3256
31520SOL    HW295139   3.183   8.404   1.946  0.6670  1.3320 -0.3044
31521SOL     OW95140   5.788   6.515   6.215  0.2565 -0.2713  0.5595
31521SOL    HW195141   5.734   6.440   6.240  0.8676 -1.0662 -0.4155
31521SOL    HW295142   5.869   6.504   6.264  0.1215  0.0740  0.8604
31522SOL     OW95143   4.077   2.789   5.197  0.4864 -0.3716  0.7700
31522SOL    HW195144   3.981   2.784   5.195  0.5455 -1.5562  0.1004
31522SOL    HW295145   4.105   2.758   5.111  1.4942 -0.7754  1.2229
31523SOL     OW95146   2.053   0.688   3.796  0.1788  0.3544 -0.2799
31523SOL    HW195147   2.128   0.631   3.778  0.3355  0.7666 -0.9967
31523SOL    HW295148   2.023   0.716   3.709 -0.7753  0.2399  0.0013
31524SOL     OW95149   1.648   4.321   2.582  0.3361 -0.1084  0.7157
31524SOL    HW195150   1.704   4.344   2.656  1.2046 -0.7301  0.2783
31524SOL    HW295151   1.698   4.254   2.535 -1.0332 -1.0920  0.6161
31525SOL     OW95152   8.857   9.594   2.310 -0.7031  0.0403 -0.1604
31525SOL    HW195153   8.803   9.599   2.390 -1.2181 -1.3252 -0.4042
31525SOL    HW295154   8.946   9.582   2.342 -1.0193 -1.4459  0.2252
31526SOL     OW95155   2.961   1.249   9.940  0.2541  0.2210 -0.4621
31526SOL    HW195156   3.046   1.287   9.919  1.3682 -2.1311 -0.4980
31526SOL    HW295157   2.900   1.291   9.878  1.7045  0.6400 -1.6588
31527SOL     OW95158   6.003   0.615   6.093 -0.1003  0.3003  0.5372
31527SOL    HW195159   5.947   0.586   6.021 -1.1811  1.8528  0.7064
31527SOL    HW295160   6.011   0.539   6.150  0.0679 -0.6995 -0.7890
31528SOL     OW95161   5.927   1.989   8.509 -0.4338 -0.5727  0.3770
31528SOL    HW195162   5.900   1.904   8.543 -0.6134 -1.0810 -0.9676
31528SOL    HW295163   5.971   1.969   8.427  0.4393  0.5697  0.5472
31529SOL     OW95164   2.446   6.150   8.000 -0.3643  0.1766 -0.2881
31529SOL    HW195165   2.476   6.069   8.040  1.4905  0.7377 -0.4469
31529SOL    HW295166   2.422   6.206   8.074 -0.9407 -0.2391 -0.1528
31530SOL     OW95167   0.806   5.045   9.881  0.1525 -0.4742  0.0653
31530SOL    HW195168   0.790   4.966   9.829 -1.7002 -0.3346  0.3555
31530SOL    HW295169   0.897   5.068   9.862 -0.3370 -0.5649 -2.9142
31531SOL     OW95170   4.643   8.663   7.153 -0.4217 -0.5941  0.3558
31531SOL    HW195171   4.658   8.754   7.130 -1.7254  0.0343  1.7541
31531SOL    HW295172   4.562   8.640   7.106 -0.0281 -1.0825 -0.0925
31532SOL     OW95173   1.927   6.447   9.690 -0.5766  0.5735 -0.3043
31532SOL    HW195174   1.974   6.397   9.757  0.4333 -1.0544 -2.1332
31532SOL    HW295175   1.836   6.448   9.720 -0.3514 -1.0985  0.5395
31533SOL     OW95176   4.300   1.936   3.443 -0.1517  0.7704 -0.0759
31533SOL    HW195177   4.209   1.929   3.471  0.3496  0.2504  1.5538
31533SOL    HW295178   4.327   1.845   3.428  0.7937  0.6573  1.9703
31534SOL     OW95179   8.218   3.470   5.092 -0.0273  0.1524  0.3164
31534SOL    HW195180   8.267   3.496   5.170  0.9084  2.6769 -1.0151
31534SOL    HW295181   8.138   3.521   5.096  0.9652  1.9552 -1.3768
31535SOL     OW95182   3.603   5.652   0.385  0.7028  0.3929  0.3255
31535SOL    HW195183   3.568   5.609   0.306 -0.6331  1.1231  0.4909
31535SOL    HW295184   3.562   5.738   0.386  1.7107  0.8918  1.1416
31536SOL     OW95185   9.860   1.544   8.952 -0.3340  0.2089  0.2933
31536SOL    HW195186   9.922   1.479   8.985  0.2735  0.6476  0.0469
31536SOL    HW295187   9.775   1.500   8.953 -0.0135 -0.4086  0.6217
31537SOL     OW95188   5.886   0.404   9.680 -0.0578 -0.6062  0.2820
31537SOL    HW195189   5.792   0.398   9.693 -0.2040 -1.3636 -0.9303
31537SOL    HW295190   5.923   0.404   9.768 -1.2171  0.4948  0.7870
31538SOL     OW95191   5.866   9.233   7.359 -0.2011 -0.3464  0.2638
31538SOL    HW195192   5.863   9.143   7.327  1.9703 -0.3608 -0.0538
31538SOL    HW295193   5.922   9.279   7.296 -0.5849  1.0161  0.8843
31539SOL     OW95194   6.680   4.259   9.169  0.6086 -0.2425 -0.4261
31539SOL    HW195195   6.691   4.305   9.085 -0.9040  0.7067 -0.1381
31539SOL    HW295196   6.591   4.279   9.196  0.4900 -1.9391  0.6025
31540SOL     OW95197   9.861   0.307   9.281 -0.2101 -0.2889  0.1272
31540SOL    HW195198   9.954   0.331   9.283 -0.3218  0.2091 -0.3330
31540SOL    HW295199   9.820   0.367   9.344  0.0065 -1.5870  1.5491
31541SOL     OW95200   8.516   3.441   0.202  0.3236  0.7901 -0.0024
31541SOL    HW195201   8.426   3.438   0.170 -0.7080  2.4806  2.4225
31541SOL    HW295202   8.524   3.365   0.259  0.5584  0.4466 -0.4899
31542SOL     OW95203   5.654   2.744   3.053  0.6940 -0.1129  0.2145
31542SOL    HW195204   5.577   2.687   3.045  1.5723 -1.8968  3.0777
31542SOL    HW295205   5.719   2.704   2.995  0.2281 -0.0265 -0.3707
31543SOL     OW95206   7.316   3.355   8.649 -0.1716  0.3646 -0.0154
31543SOL    HW195207   7.280   3.371   8.737  0.0438  1.6097 -0.1251
31543SOL    HW295208   7.256   3.399   8.590 -0.6605 -1.0110 -0.5713
31544SOL     OW95209   8.344   1.356   3.958 -0.1884  0.1655 -0.3126
31544SOL    HW195210   8.437   1.353   3.977 -0.3317  1.2030  0.6309
31544SOL    HW295211   8.337   1.400   3.874  0.0653  2.4854  0.8127
31545SOL     OW95212   3.817   7.257   2.877  0.1320 -0.3362 -0.3126
31545SOL    HW195213   3.885   7.195   2.905 -0.7770 -0.1138  2.7414
31545SOL    HW295214   3.751   7.253   2.945 -1.3153  1.9568 -1.4492
31546SOL     OW95215   7.779   2.906   8.340 -0.1067  0.3927  0.6142
31546SOL    HW195216   7.732   2.922   8.422  0.3760 -0.1977  1.0169
31546SOL    HW295217   7.777   2.989   8.294 -1.7322  0.3312  0.5274
31547SOL     OW95218   8.847   2.536   2.999  0.6519 -0.2730  0.0437
31547SOL    HW195219   8.902   2.552   2.922  0.8508  0.1633  0.2728
31547SOL    HW295220   8.829   2.623   3.035  2.1587 -0.5403  1.6047
31548SOL     OW95221   1.066   1.807   3.895  0.4327  0.1048 -0.3031
31548SOL    HW195222   1.002   1.837   3.830  0.9317  0.4711 -0.6382
31548SOL    HW295223   1.067   1.712   3.887 -0.4737  0.0554  0.0976
31549SOL     OW95224   5.787   8.351   5.934 -0.0942  0.6688 -0.3279
31549SOL    HW195225   5.701   8.380   5.903 -1.6247 -1.6642  1.4157
31549SOL    HW295226   5.793   8.383   6.024  2.1894  3.1831 -1.2072
31550SOL     OW95227   2.515   7.682   4.621 -0.1269 -0.4113  0.1082
31550SOL    HW195228   2.465   7.651   4.696 -0.7186  0.5677  0.1322
31550SOL    HW295229   2.542   7.602   4.575  0.9383 -1.0570  1.7740
31551SOL     OW95230   0.775   7.548   0.447  0.5310 -0.4115 -0.2424
31551SOL    HW195231   0.819   7.584   0.523  0.5690 -1.3682  0.2116
31551SOL    HW295232   0.682   7.562   0.464  0.6039  1.2461 -1.0143
31552SOL     OW95233   8.057   1.053   5.333  0.3637  0.4176  0.0321
31552SOL    HW195234   8.115   1.100   5.273 -1.1828  3.2266  0.5270
31552SOL    HW295235   8.073   1.095   5.418  0.6549 -1.7113  1.0794
31553SOL     OW95236   3.672   8.057   5.775 -0.2159  0.2504  0.1773
31553SOL    HW195237   3.650   7.969   5.807 -1.3911  0.3273 -0.3722
31553SOL    HW295238   3.759   8.074   5.811 -0.2421 -0.8745  0.8326
31554SOL     OW95239   1.145   0.347   8.814  0.3716 -0.2902  0.3227
31554SOL    HW195240   1.137   0.396   8.896 -0.0102  0.3481 -0.0839
31554SOL    HW295241   1.197   0.270   8.837 -0.5884 -0.6482  1.3807
31555SOL     OW95242   7.749   0.917   2.048  0.4431 -0.3001  0.0247
31555SOL    HW195243   7.806   0.877   1.983 -0.3201 -0.5155 -0.5301
31555SOL    HW295244   7.736   1.006   2.016  2.2671  0.4982  1.3391
31556SOL     OW95245   4.410   8.864   4.825  0.3934  0.3540  0.0184
31556SOL    HW195246   4.439   8.819   4.746 -0.9309  0.0295 -0.3060
31556SOL    HW295247   4.490   8.900   4.863  1.0699  0.4380 -1.4124
31557SOL     OW95248   5.845   5.332   2.171 -0.0188  0.4621  0.0415
31557SOL    HW195249   5.929   5.375   2.185 -0.1130  0.3663  0.9893
31557SOL    HW295250   5.829   5.284   2.252 -0.8924  0.3112 -0.2051
31558SOL     OW95251   4.877   0.362   3.717  0.3485 -0.1810  0.2978
31558SOL    HW195252   4.802   0.352   3.660  0.3977 -0.0231  0.2062
31558SOL    HW295253   4.841   0.361   3.806  0.3005 -0.7128  0.2788
31559SOL     OW95254   4.818   9.837   1.407 -0.4717  0.0699  0.1734
31559SOL    HW195255   4.905   9.801   1.393  0.0407  0.3166  2.3382
31559SOL    HW295256   4.760   9.761   1.408 -0.6373  0.0368 -3.0717
31560SOL     OW95257   2.516   3.833   5.523  0.0115 -0.0073 -0.0723
31560SOL    HW195258   2.444   3.881   5.564  0.1570  0.1542 -0.0047
31560SOL    HW295259   2.590   3.844   5.584 -0.3783 -1.6543  0.7827
31561SOL     OW95260   1.858   1.330   1.795 -0.2352  0.1199 -0.3172
31561SOL    HW195261   1.907   1.303   1.874 -1.6483 -1.6003  0.0387
31561SOL    HW295262   1.910   1.295   1.723  1.1741  1.8713 -0.2189
31562SOL     OW95263   9.972   9.140   4.569 -0.0060  0.4146  0.5051
31562SOL    HW195264   9.940   9.120   4.657  1.0057  1.7370  1.2147
31562SOL    HW295265  10.010   9.058   4.538 -0.3326 -0.0551  1.3129
31563SOL     OW95266   1.944   9.171   9.812  0.4217 -0.2042 -0.3949
31563SOL    HW195267   1.961   9.088   9.855 -2.1724 -0.6079 -0.0386
31563SOL    HW295268   1.913   9.229   9.881  1.8627  1.0219 -0.7017
31564SOL     OW95269   5.930   9.125   7.813  0.4794  0.0173 -0.4543
31564SOL    HW195270   5.838   9.151   7.801  0.3631  0.2907  0.8459
31564SOL    HW295271   5.978   9.181   7.752 -0.1046  0.8482 -0.1799
31565SOL     OW95272   0.976   6.723   1.646  0.7531  0.4652 -0.4548
31565SOL    HW195273   0.974   6.691   1.556 -1.3669 -2.2886  0.4224
31565SOL    HW295274   1.044   6.670   1.688  0.2939  0.2535  0.0269
31566SOL     OW95275   6.145   4.042   0.342 -0.1914 -0.2933 -0.1930
31566SOL    HW195276   6.148   4.132   0.376  0.3758  1.0019 -3.3587
31566SOL    HW295277   6.233   4.027   0.308 -0.4914 -1.8130 -0.3547
31567SOL     OW95278   6.331   5.313   7.585  0.0267  0.1800  0.0372
31567SOL    HW195279   6.326   5.238   7.526 -0.7295  0.9021 -0.8601
31567SOL    HW295280   6.329   5.389   7.527  0.0108  0.8996  0.9597
31568SOL     OW95281   0.194   4.250   8.159 -0.7109 -0.3770 -0.2838
31568SOL    HW195282   0.200   4.156   8.142 -1.0995 -0.6795  1.1421
31568SOL    HW295283   0.219   4.260   8.250 -0.2948  0.9661 -0.5200
31569SOL     OW95284   4.498   9.989   9.949  0.0930  0.1448  0.6254
31569SOL    HW195285   4.415  10.030   9.923  0.1681 -0.0864 -0.0096
31569SOL    HW295286   4.474   9.903   9.981  0.1770 -0.4197 -0.7372
31570SOL     OW95287   1.873   5.869   0.423  0.6962 -0.2617 -0.8332
31570SOL    HW195288   1.953   5.841   0.379  0.3804 -1.7349 -0.5116
31570SOL    HW295289   1.802   5.846   0.362  0.2782 -2.0791  0.2706
31571SOL     OW95290   3.854   9.016   7.630 -0.1165 -0.3172  0.6814
31571SOL    HW195291   3.937   8.974   7.650  0.3378 -0.1421 -0.7307
31571SOL    HW295292   3.868   9.108   7.652  1.0759  0.2825 -2.1181
31572SOL     OW95293   7.316   3.213   3.912  0.5192  0.6958 -0.1265
31572SOL    HW195294   7.383   3.200   3.845  0.7867  1.1915  0.0464
31572SOL    HW295295   7.327   3.304   3.940 -0.4339  0.8867 -0.3345
31573SOL     OW95296   5.825   6.755   3.857  0.5516  0.0157 -0.3040
31573SOL    HW195297   5.877   6.833   3.868  1.3677 -0.3754 -1.2563
31573SOL    HW295298   5.827   6.737   3.763  1.2853 -1.7477  0.0135
31574SOL     OW95299   8.321   6.275   7.466  0.0449  0.3468  0.3656
31574SOL    HW195300   8.332   6.190   7.508  0.4120  2.0178  4.1257
31574SOL    HW295301   8.384   6.276   7.395  0.9007 -2.0550  1.0014
31575SOL     OW95302   0.130   1.752   1.064  0.7718  0.4158 -0.4840
31575SOL    HW195303   0.059   1.797   1.109  0.6836 -0.4900  0.3360
31575SOL    HW295304   0.207   1.767   1.119  1.7414  3.0005 -2.3241
31576SOL     OW95305   0.990   5.392   6.692  0.2067  0.0844  0.6673
31576SOL    HW195306   0.935   5.367   6.766  1.2220  0.4510  1.5826
31576SOL    HW295307   0.933   5.443   6.635 -1.0044 -1.5044  0.4058
31577SOL     OW95308   8.292   4.491   7.721 -0.5908  0.1820  0.2359
31577SOL    HW195309   8.341   4.572   7.739  2.3551 -1.7774  1.8165
31577SOL    HW295310   8.234   4.482   7.796  0.0191  0.1940  0.7211
31578SOL     OW95311   5.528   1.054   6.229  0.1877  0.0531 -0.2172
31578SOL    HW195312   5.564   1.034   6.143 -1.3154  1.1480 -1.1659
31578SOL    HW295313   5.478   1.135   6.216  1.0626  1.0316  2.0153
31579SOL     OW95314   8.623   8.908   2.118  0.2735  0.0183  0.3164
31579SOL    HW195315   8.660   8.985   2.163 -1.4866  1.1256 -0.0298
31579SOL    HW295316   8.605   8.939   2.029  0.0028 -0.9530  0.0273
31580SOL     OW95317   8.168   5.229   2.629 -0.4401 -0.0499  0.0996
31580SOL    HW195318   8.136   5.171   2.698 -1.4074 -0.2115 -0.4705
31580SOL    HW295319   8.245   5.184   2.594 -0.6529 -0.5577  0.2680
31581SOL     OW95320   5.752   0.583   5.289 -0.3034 -0.5521  0.0166
31581SOL    HW195321   5.718   0.669   5.313  0.2824 -0.5553  0.9161
31581SOL    HW295322   5.845   0.587   5.312 -0.4833 -1.7629  1.0295
31582SOL     OW95323   1.335   7.711   7.803 -0.2648  0.3850  0.6213
31582SOL    HW195324   1.400   7.675   7.863 -1.8189 -1.2936  1.3927
31582SOL    HW295325   1.368   7.689   7.716 -0.0878 -1.0031  1.0156
31583SOL     OW95326   8.685   7.005   6.771  0.6639 -0.0084 -0.1830
31583SOL    HW195327   8.653   6.918   6.746 -1.4689  0.9991 -1.1114
31583SOL    HW295328   8.716   6.993   6.861 -0.3731 -1.5518  0.0127
31584SOL     OW95329   1.818   9.832  -0.018  0.3894  0.0090  0.5322
31584SOL    HW195330   1.757   9.821   0.055  1.2797  1.5757  1.5504
31584SOL    HW295331   1.889   9.772   0.000 -0.0461 -0.6290  0.1889
31585SOL     OW95332   1.829   4.364   9.656  0.1044  0.4623 -0.8387
31585SOL    HW195333   1.882   4.442   9.674 -0.3714  0.5024  0.5123
31585SOL    HW295334   1.870   4.295   9.708 -0.0308  0.0273 -1.3047
31586SOL     OW95335   7.900   8.770   9.716  0.0515  0.3895 -0.3644
31586SOL    HW195336   7.851   8.694   9.747 -0.0860  0.3353 -0.7119
31586SOL    HW295337   7.872   8.841   9.774  0.0784  0.2076 -0.1266
31587SOL     OW95338   4.506   9.748   2.774  0.0329  0.2034 -0.1918
31587SOL    HW195339   4.516   9.723   2.682  1.5112 -0.2510  0.0592
31587SOL    HW295340   4.433   9.695   2.806  1.8988 -2.5972 -0.1649
31588SOL     OW95341   2.637   4.325   3.252  0.4552  0.4259  0.1449
31588SOL    HW195342   2.631   4.402   3.195 -1.4578 -1.5239 -2.5013
31588SOL    HW295343   2.591   4.352   3.332  0.0480  2.1166 -0.6006
31589SOL     OW95344   3.923   5.827   2.802 -0.0043  0.2383 -0.1357
31589SOL    HW195345   3.901   5.770   2.875 -0.3290  1.2659  0.6043
31589SOL    HW295346   3.978   5.895   2.840 -0.2181  0.8182 -0.8269
31590SOL     OW95347   8.768   7.167   4.961 -0.5580 -0.1422  0.0571
31590SOL    HW195348   8.789   7.258   4.941  0.3999 -0.2708  0.3788
31590SOL    HW295349   8.835   7.117   4.915 -1.3955 -0.7201 -0.5491
31591SOL     OW95350   7.338   0.033   3.382  0.1215  0.4033 -0.0925
31591SOL    HW195351   7.303   0.103   3.436 -1.1830 -0.2465 -0.0429
31591SOL    HW295352   7.283   0.034   3.303 -0.2574 -0.8732  0.1328
31592SOL     OW95353   8.378   8.499   5.980 -0.3463  0.3814 -0.0260
31592SOL    HW195354   8.375   8.456   5.895  2.4647 -1.0718  0.4934
31592SOL    HW295355   8.317   8.572   5.972 -1.1147 -0.4521 -2.8418
31593SOL     OW95356   0.879   2.487   6.653  0.0566  0.1702  0.0884
31593SOL    HW195357   0.922   2.528   6.728  2.0554 -0.5776 -0.5809
31593SOL    HW295358   0.819   2.424   6.692  0.8989 -0.0489  1.0835
31594SOL     OW95359   0.556   8.496   5.100  0.6090  0.2106 -0.3321
31594SOL    HW195360   0.529   8.409   5.131 -0.9386  0.0619 -1.9398
31594SOL    HW295361   0.522   8.556   5.166 -0.4040 -0.2588 -0.4126
31595SOL     OW95362   4.430   7.171   5.713 -0.2399 -0.2629 -0.5849
31595SOL    HW195363   4.407   7.249   5.663  0.5073  1.8812  2.1561
31595SOL    HW295364   4.518   7.149   5.684 -1.2800 -1.5892 -3.0044
31596SOL     OW95365   9.700   5.017   5.951  0.1829 -0.2120  0.4147
31596SOL    HW195366   9.792   4.999   5.969  0.0455 -1.2074  0.2334
31596SOL    HW295367   9.664   5.047   6.034  0.7804  0.6848  0.3547
31597SOL     OW95368   4.477   4.142   4.455  0.5114  0.5146  0.1248
31597SOL    HW195369   4.542   4.138   4.525 -0.2578  0.6469  0.8634
31597SOL    HW295370   4.453   4.050   4.440  1.3726  0.3990 -0.6526
31598SOL     OW95371   0.901   6.144   2.142  0.4781  0.2216 -0.5239
31598SOL    HW195372   0.949   6.141   2.059  2.4033 -1.9614  0.5340
31598SOL    HW295373   0.969   6.147   2.209 -0.8567 -1.5156  1.0305
31599SOL     OW95374   5.508   9.086   4.417 -0.1543 -0.4560 -0.0833
31599SOL    HW195375   5.583   9.051   4.465 -0.2038  2.2012  2.2321
31599SOL    HW295376   5.434   9.073   4.477 -0.2555  2.7804  0.6769
31600SOL     OW95377   8.948   8.404   8.013  0.2935 -0.0967 -0.2562
31600SOL    HW195378   9.008   8.341   7.972  1.3242  0.2035  0.7603
31600SOL    HW295379   8.867   8.395   7.962  0.4289 -2.1704 -0.2151
31601SOL     OW95380   2.070   3.271   1.149 -0.2027  0.0868 -0.1184
31601SOL    HW195381   2.127   3.213   1.199  0.1623  0.1714 -0.4332
31601SOL    HW295382   2.099   3.261   1.058  0.7195  1.7013 -0.0386
31602SOL     OW95383   5.949   4.716   6.298 -0.4281 -0.2842  0.0731
31602SOL    HW195384   5.875   4.756   6.343  0.9006  1.0180  1.1921
31602SOL    HW295385   6.004   4.682   6.368  0.7857  0.1567 -0.6350
31603SOL     OW95386   1.429   8.612   6.565  0.7361 -0.1001 -0.3776
31603SOL    HW195387   1.509   8.645   6.607  0.6244  0.6536 -0.7477
31603SOL    HW295388   1.400   8.684   6.510 -0.2300 -0.3496 -0.2055
31604SOL     OW95389   9.847   1.412   6.126  0.1660  0.0156  0.2467
31604SOL    HW195390   9.890   1.368   6.053  1.1793  1.3206  0.0236
31604SOL    HW295391   9.917   1.433   6.187 -0.7330 -1.5882  1.9397
31605SOL     OW95392   6.373   2.511   4.658  0.0508  0.1251 -0.3637
31605SOL    HW195393   6.397   2.450   4.588  0.1129  1.3525 -1.4556
31605SOL    HW295394   6.452   2.519   4.711  0.9578  1.3486 -1.8183
31606SOL     OW95395   8.022   4.097   8.998  0.2102  0.0825 -0.3935
31606SOL    HW195396   8.042   4.155   8.925 -0.2661 -0.1815 -0.7386
31606SOL    HW295397   7.927   4.107   9.011  0.3869  0.6268  0.6172
31607SOL     OW95398   4.811   5.810   4.311  0.0250  0.6998  0.4084
31607SOL    HW195399   4.851   5.854   4.236 -1.9318  0.4064 -0.8695
31607SOL    HW295400   4.801   5.719   4.283 -3.6507  1.1864 -0.3802
31608SOL     OW95401   8.871   5.458   3.593  0.2512  0.2872 -0.6635
31608SOL    HW195402   8.844   5.405   3.669  0.4433  0.5672 -0.3975
31608SOL    HW295403   8.866   5.397   3.519 -0.0083  0.0295 -0.4383
31609SOL     OW95404   4.539   4.934   1.356  0.2453 -0.4881  0.5064
31609SOL    HW195405   4.525   4.938   1.261 -0.8244 -0.3932  0.6585
31609SOL    HW295406   4.626   4.970   1.369  0.0141  0.4337 -0.3542
31610SOL     OW95407   7.917   9.000   7.685 -0.1980  0.2932 -0.6059
31610SOL    HW195408   7.905   9.092   7.662 -0.4687  0.0799 -1.3474
31610SOL    HW295409   7.828   8.966   7.695 -0.2400 -0.5733 -3.2037
31611SOL     OW95410   7.248   6.738   5.327  0.2580 -0.2374 -0.1793
31611SOL    HW195411   7.262   6.764   5.419 -1.9572  0.6711 -0.0362
31611SOL    HW295412   7.328   6.765   5.283  0.7168  0.8207  1.2014
31612SOL     OW95413   4.825   1.580   3.424  0.1496  0.0496  0.2178
31612SOL    HW195414   4.777   1.629   3.491  1.4435 -0.5578  1.6587
31612SOL    HW295415   4.877   1.517   3.474 -0.6300 -2.0831 -1.4881
31613SOL     OW95416   6.260   0.531   2.391  0.0381 -0.9039  0.1897
31613SOL    HW195417   6.335   0.510   2.335  0.3384 -0.6152  0.4824
31613SOL    HW295418   6.193   0.562   2.330 -0.0787 -1.7898 -0.1491
31614SOL     OW95419   0.060   7.091   6.148  0.3613  0.1797  0.0967
31614SOL    HW195420  -0.027   7.069   6.113 -0.0163 -0.3667  1.3299
31614SOL    HW295421   0.101   7.007   6.165  0.2018  0.4105  1.7518
31615SOL     OW95422   2.247   6.872   8.875 -0.1880  0.5110  0.3500
31615SOL    HW195423   2.256   6.805   8.942 -1.6458 -1.5292 -1.3811
31615SOL    HW295424   2.165   6.851   8.830  0.1270  2.4989 -1.3153
31616SOL     OW95425   9.009   9.145   6.093  0.2620  0.0283 -0.5052
31616SOL    HW195426   8.915   9.131   6.104  0.6149 -1.1692  1.6418
31616SOL    HW295427   9.026   9.126   6.001 -1.6429  0.7061 -1.0423
31617SOL     OW95428   8.649   9.610   4.971 -0.3006 -0.0516 -0.0200
31617SOL    HW195429   8.585   9.581   4.906 -0.0438 -0.0133 -0.2981
31617SOL    HW295430   8.686   9.690   4.933  1.1472 -1.0039 -0.7126
31618SOL     OW95431   6.988   4.409   6.388 -0.2136 -0.5342  0.9126
31618SOL    HW195432   6.980   4.504   6.383  0.6165 -0.4176  1.6010
31618SOL    HW295433   6.901   4.376   6.364  0.1591  0.2921 -2.0094
31619SOL     OW95434   8.770   7.836   6.813 -0.3397  0.1876  0.3426
31619SOL    HW195435   8.770   7.921   6.768 -1.2447 -0.2039 -0.4228
31619SOL    HW295436   8.722   7.778   6.755 -0.1351 -0.7483  1.0815
31620SOL     OW95437   5.012   2.276   3.367  0.2693 -0.1412  0.4011
31620SOL    HW195438   5.098   2.278   3.409  0.9920  0.5373 -1.0186
31620SOL    HW295439   5.031   2.261   3.274 -1.2312 -1.1705  0.2172
31621SOL     OW95440   7.776   7.168   8.141  0.4336 -0.1800 -0.7002
31621SOL    HW195441   7.793   7.237   8.077  1.0579 -0.2417 -0.6066
31621SOL    HW295442   7.752   7.091   8.089  0.0804  0.0072 -0.8178
31622SOL     OW95443   3.917   9.185   6.425  0.7044  0.4588  0.3299
31622SOL    HW195444   3.910   9.167   6.519  0.0697 -1.6488 -0.0921
31622SOL    HW295445   3.841   9.241   6.406  1.4479  1.8486  1.2341
31623SOL     OW95446   2.158   2.596   6.549  0.1038  0.3025  0.3046
31623SOL    HW195447   2.205   2.569   6.470 -0.1177  1.0092 -0.0748
31623SOL    HW295448   2.191   2.538   6.617 -0.1506 -0.7312 -0.4254
31624SOL     OW95449   6.286   0.518   5.196 -0.2816  0.2898  0.4893
31624SOL    HW195450   6.310   0.604   5.231  1.0205 -0.8290  2.5031
31624SOL    HW295451   6.369   0.477   5.174 -0.9203 -0.2716 -1.0122
31625SOL     OW95452   3.273   9.088   5.827  0.0896  0.0346 -0.0178
31625SOL    HW195453   3.207   9.023   5.850  0.5395 -0.5861 -0.4727
31625SOL    HW295454   3.339   9.080   5.895 -1.1802  2.0016  1.5821
31626SOL     OW95455   6.756   8.311   4.331 -0.4805 -0.8464  0.6463
31626SOL    HW195456   6.791   8.395   4.299 -3.8639  0.3420 -0.3985
31626SOL    HW295457   6.757   8.319   4.426  3.7836 -1.8011  0.8900
31627SOL     OW95458   5.786   3.949   9.645  0.1159 -0.4261 -0.3296
31627SOL    HW195459   5.811   3.858   9.655  0.5432 -0.1602  1.3395
31627SOL    HW295460   5.844   3.997   9.705 -0.1995  0.9172 -1.0623
31628SOL     OW95461   1.209   5.709   3.864 -0.1636  0.1566 -0.3341
31628SOL    HW195462   1.139   5.668   3.814  1.1126 -1.2890 -1.0205
31628SOL    HW295463   1.225   5.792   3.820 -0.8951  0.1214 -0.6684
31629SOL     OW95464   4.598   6.001   1.305  0.1878 -0.0098  0.0867
31629SOL    HW195465   4.669   5.951   1.344  0.2176 -0.7736 -0.9270
31629SOL    HW295466   4.588   6.077   1.362 -0.6314 -1.7058  2.3723
31630SOL     OW95467   0.548   4.271   3.209 -0.5320 -0.7840 -0.2015
31630SOL    HW195468   0.587   4.267   3.296  1.8309  1.1381 -1.0520
31630SOL    HW295469   0.481   4.203   3.209  0.0995 -1.5228  2.7504
31631SOL     OW95470   7.145   2.713   3.613 -0.0701 -0.3333 -0.2865
31631SOL    HW195471   7.165   2.798   3.574 -0.2377 -0.1788 -0.0376
31631SOL    HW295472   7.051   2.703   3.602  0.0529 -0.8210 -0.9764
31632SOL     OW95473   2.334   0.091   7.209 -0.6664  0.1020  0.1531
31632SOL    HW195474   2.415   0.048   7.183  0.5646  0.3559  3.1963
31632SOL    HW295475   2.269   0.021   7.210  0.4260 -0.9631  1.2837
31633SOL     OW95476   4.669   9.087   3.300 -0.2281  0.4711  0.4048
31633SOL    HW195477   4.593   9.084   3.357  0.2457 -0.1758  1.0138
31633SOL    HW295478   4.635   9.070   3.212 -0.5549 -1.6299  0.9044
31634SOL     OW95479   9.008   4.843   5.474 -0.1167  0.1957 -0.4901
31634SOL    HW195480   9.092   4.848   5.519 -0.6751  1.0484  0.5116
31634SOL    HW295481   8.973   4.757   5.499 -1.3062  1.3810  2.4947
31635SOL     OW95482   8.115   1.347   3.056  0.3866  0.1532  0.5764
31635SOL    HW195483   8.025   1.314   3.060  0.5411 -0.8398 -2.1661
31635SOL    HW295484   8.111   1.423   2.999  1.0346  1.2687  1.9605
31636SOL     OW95485   2.448   5.770   4.860 -0.2294 -0.0787  0.7239
31636SOL    HW195486   2.370   5.825   4.856 -0.6776 -0.7733 -0.3243
31636SOL    HW295487   2.517   5.823   4.820 -1.2321 -1.1620 -2.7606
31637SOL     OW95488   7.006   2.731   4.203 -0.3826 -0.0800 -0.1409
31637SOL    HW195489   6.940   2.768   4.144 -0.3250 -0.0573 -0.1910
31637SOL    HW295490   7.001   2.637   4.188 -1.0632 -0.1560  0.5437
31638SOL     OW95491   7.671   0.224   1.410 -0.1885  0.5434  0.5876
31638SOL    HW195492   7.757   0.203   1.447  0.6474  1.1962 -0.8505
31638SOL    HW295493   7.683   0.214   1.315 -1.2425  2.1708  0.2408
31639SOL     OW95494   2.847   0.468   2.244 -0.0561 -0.0384 -0.3402
31639SOL    HW195495   2.900   0.421   2.180 -0.5724 -1.1430  0.0218
31639SOL    HW295496   2.908   0.491   2.315 -0.2419 -2.3273  0.6309
31640SOL     OW95497   3.203   3.379   3.797 -0.1956  0.2415 -0.7750
31640SOL    HW195498   3.137   3.316   3.771  0.9639 -1.5087  0.2605
31640SOL    HW295499   3.178   3.405   3.886 -0.6399  1.2682 -1.1746
31641SOL     OW95500   8.877   7.544   3.300  0.0668  0.3546 -0.4808
31641SOL    HW195501   8.782   7.534   3.305  0.2092 -0.7449  0.3516
31641SOL    HW295502   8.911   7.478   3.359  1.3551  0.9821 -0.4927
31642SOL     OW95503   9.603   5.258   8.212 -0.2306  0.3657 -0.1224
31642SOL    HW195504   9.630   5.173   8.178 -1.9741  0.6971 -2.6501
31642SOL    HW295505   9.670   5.319   8.181  0.1131  0.1682  0.2194
31643SOL     OW95506   9.537   6.254   5.304  0.0898  0.3091 -0.1739
31643SOL    HW195507   9.545   6.199   5.225  1.6259  0.4079 -0.1045
31643SOL    HW295508   9.553   6.193   5.376 -0.3199  0.4293  0.0201
31644SOL     OW95509   8.100   1.059   2.752  0.1388  0.0094  0.2188
31644SOL    HW195510   8.115   0.972   2.716  0.8943  0.9897 -2.0035
31644SOL    HW295511   8.006   1.062   2.770  0.1048 -1.2412  0.3401
31645SOL     OW95512   7.454   8.259   0.736  0.5701  0.4339 -0.4005
31645SOL    HW195513   7.435   8.187   0.675 -0.2801  1.4155 -1.3237
31645SOL    HW295514   7.368   8.292   0.762  0.9219  2.2645 -1.3930
31646SOL     OW95515   1.518   5.710   6.054  0.0727 -0.0343 -0.1924
31646SOL    HW195516   1.437   5.665   6.077 -0.8849  0.5169 -2.2699
31646SOL    HW295517   1.505   5.738   5.964  2.8246 -0.4378 -0.7952
31647SOL     OW95518   5.795   1.815   7.975  0.3480 -0.0602 -0.1917
31647SOL    HW195519   5.817   1.874   7.903  0.2640 -1.5545 -1.5188
31647SOL    HW295520   5.872   1.760   7.985 -0.2675 -0.9728 -0.3210
31648SOL     OW95521   7.137   1.349   7.768 -0.2321 -0.6635  0.5882
31648SOL    HW195522   7.197   1.423   7.768  2.4152 -2.6938  0.4694
31648SOL    HW295523   7.095   1.353   7.855 -0.3049  1.0278  0.5110
31649SOL     OW95524   1.224   2.685   8.710 -0.5384  0.5385  0.2091
31649SOL    HW195525   1.299   2.742   8.693 -0.1998  0.2727  0.7607
31649SOL    HW295526   1.179   2.726   8.784 -0.1048 -0.0660  0.8279
31650SOL     OW95527   0.064   2.977   2.836 -0.4771 -0.4606 -0.0117
31650SOL    HW195528   0.099   2.927   2.909  0.5059 -1.4556 -1.1268
31650SOL    HW295529  -0.003   2.921   2.798 -0.5807 -0.1955 -0.2242
31651SOL     OW95530   6.983   2.879   0.512 -0.2951  0.1761 -0.0935
31651SOL    HW195531   6.919   2.808   0.512 -2.0492  1.6604 -1.4242
31651SOL    HW295532   7.029   2.871   0.429  0.9137 -0.5396  0.6103
31652SOL     OW95533   3.824   7.478   4.296 -0.2288  0.4091 -0.4254
31652SOL    HW195534   3.809   7.407   4.233  1.8894  0.8186 -1.4746
31652SOL    HW295535   3.810   7.437   4.382  0.0909 -1.0601 -1.0448
31653SOL     OW95536   1.039   9.959   7.381 -0.2638 -0.3752 -0.1588
31653SOL    HW195537   1.090  10.017   7.437 -1.4941  0.8137 -0.1958
31653SOL    HW295538   1.024   9.881   7.434  1.4199 -0.6868 -0.1000
31654SOL     OW95539   9.135   8.493   6.095 -0.3301  0.1069  0.4240
31654SOL    HW195540   9.103   8.583   6.084 -0.3935  0.0118 -0.2125
31654SOL    HW295541   9.086   8.442   6.030  2.1489  0.2042 -1.6766
31655SOL     OW95542   3.117   1.697   4.261 -0.4676 -0.3343 -0.8266
31655SOL    HW195543   3.085   1.613   4.227 -2.7573 -0.5214  1.4544
31655SOL    HW295544   3.090   1.761   4.196 -1.3032 -1.0729 -1.2258
31656SOL     OW95545   7.345   2.129   7.228  0.3308  0.0970 -0.5371
31656SOL    HW195546   7.276   2.164   7.172  2.8459  1.0561 -3.2888
31656SOL    HW295547   7.299   2.104   7.308 -3.0698  1.2596 -1.8959
31657SOL     OW95548   8.268   1.540   8.554 -0.4678 -0.5768 -0.1314
31657SOL    HW195549   8.329   1.602   8.595 -1.8268  0.1020  0.9505
31657SOL    HW295550   8.323   1.467   8.526  0.8899  0.1829  0.4538
31658SOL     OW95551   9.296   8.582   2.497 -0.1473  0.0552  0.8440
31658SOL    HW195552   9.334   8.552   2.579  2.4943  0.5153 -0.1004
31658SOL    HW295553   9.315   8.676   2.495 -0.4748  0.1124 -0.1528
31659SOL     OW95554   6.420   5.763   7.034 -0.0152  0.2427 -0.2708
31659SOL    HW195555   6.443   5.692   7.094 -0.4355  0.3896  0.0793
31659SOL    HW295556   6.342   5.731   6.988  0.0747  0.2870 -0.4524
31660SOL     OW95557   0.815   3.069   8.786 -0.2356 -0.3530 -0.3593
31660SOL    HW195558   0.813   2.978   8.817  0.3318 -0.5341 -0.8392
31660SOL    HW295559   0.729   3.083   8.748 -0.4896 -0.5381  0.1372
31661SOL     OW95560   7.233   5.887   8.753  0.0102  0.2071  0.4729
31661SOL    HW195561   7.314   5.905   8.800  0.9820  0.2244 -1.1437
31661SOL    HW295562   7.259   5.826   8.684 -1.4567 -0.1760  0.2314
31662SOL     OW95563   0.363   5.873   4.028 -0.4008 -0.3400 -0.1954
31662SOL    HW195564   0.301   5.800   4.033  0.3237 -0.8788  2.7884
31662SOL    HW295565   0.448   5.831   4.020 -0.0895  0.2300  0.1234
31663SOL     OW95566   7.751   1.660   3.503 -0.1659  0.3595  0.5503
31663SOL    HW195567   7.693   1.731   3.530 -0.2772  0.2369  0.6333
31663SOL    HW295568   7.806   1.699   3.435  1.0941  1.0843  1.9381
31664SOL     OW95569   4.067   2.374   9.020  0.0939  0.3936 -0.5064
31664SOL    HW195570   3.986   2.370   8.969  1.8969  0.6967 -3.6626
31664SOL    HW295571   4.078   2.467   9.038  0.4824  0.5455 -1.4590
31665SOL     OW95572   8.327   6.275   8.587  0.3651  0.1431 -0.3133
31665SOL    HW195573   8.374   6.203   8.543 -0.3733 -1.3577  1.2268
31665SOL    HW295574   8.270   6.311   8.520 -0.2392 -1.6321 -0.8155
31666SOL     OW95575   8.490   8.917   0.455 -0.5471 -0.1312  0.1300
31666SOL    HW195576   8.573   8.925   0.503  0.0297  0.7493 -0.9600
31666SOL    HW295577   8.499   8.834   0.407 -1.2689 -1.1921  1.7376
31667SOL     OW95578   2.515   5.048   2.849  0.0560  0.4104  0.4294
31667SOL    HW195579   2.422   5.058   2.871  0.3302 -0.3058  2.1080
31667SOL    HW295580   2.539   5.129   2.805 -1.5416  0.2938 -0.7478
31668SOL     OW95581   6.184   6.732   8.830  0.1946 -0.1801 -0.0729
31668SOL    HW195582   6.184   6.826   8.848  3.1061 -0.1598  0.3824
31668SOL    HW295583   6.122   6.696   8.893 -0.1025  1.3218  0.5498
31669SOL     OW95584   7.181   6.330   2.580 -0.1152 -0.1339  0.0391
31669SOL    HW195585   7.212   6.294   2.663 -1.5153  1.6672  1.4267
31669SOL    HW295586   7.109   6.272   2.554 -0.0696 -0.3473  0.3888
31670SOL     OW95587   2.977   7.155   7.845 -0.4707 -0.1139 -0.3517
31670SOL    HW195588   3.056   7.190   7.803  1.2220 -1.9135  1.1136
31670SOL    HW295589   2.938   7.098   7.779  0.4113 -0.4834 -0.5810
31671SOL     OW95590   1.290   9.354   3.379 -0.0095 -0.1574  0.0659
31671SOL    HW195591   1.215   9.294   3.377 -0.9940  0.9980  0.9834
31671SOL    HW295592   1.337   9.331   3.459 -0.5383  0.4323  0.5620
31672SOL     OW95593   6.251   6.811   3.791 -0.9563 -0.3276  0.6122
31672SOL    HW195594   6.196   6.784   3.719 -0.2314 -0.6473  0.1679
31672SOL    HW295595   6.251   6.907   3.787  0.7534 -0.3248 -1.1554
31673SOL     OW95596   5.182   4.701   0.795  0.7021 -0.0834 -0.0116
31673SOL    HW195597   5.131   4.754   0.856  0.8671 -2.1782  2.0898
31673SOL    HW295598   5.153   4.611   0.811  0.8247 -0.7615 -3.0249
31674SOL     OW95599   9.114   5.749   9.181 -0.1874 -0.0001 -0.5544
31674SOL    HW195600   9.021   5.768   9.191 -0.4434 -0.8628 -1.2146
31674SOL    HW295601   9.119   5.654   9.180  0.8335  0.0180  0.5734
31675SOL     OW95602   8.969   5.556  -0.012 -0.4753  0.4504  0.4462
31675SOL    HW195603   8.922   5.634   0.019 -1.1689  0.1585  0.1599
31675SOL    HW295604   9.030   5.536   0.058  1.4091  2.6083 -0.4360
31676SOL     OW95605   1.283   1.391   8.675 -0.6806  0.5898 -0.0047
31676SOL    HW195606   1.317   1.314   8.630 -0.2676  0.8291 -0.1057
31676SOL    HW295607   1.277   1.365   8.767  0.5815  0.8114  0.1586
31677SOL     OW95608   5.209   4.120   9.291  0.6746  0.0381 -0.4051
31677SOL    HW195609   5.214   4.209   9.254  0.6875  0.1405 -0.1561
31677SOL    HW295610   5.223   4.063   9.216 -1.3863  0.1884 -0.9571
31678SOL     OW95611   4.497   0.079   9.599 -0.0647  0.3460 -0.1093
31678SOL    HW195612   4.434   0.029   9.547  0.6673 -0.8465  0.0856
31678SOL    HW295613   4.516   0.157   9.547 -1.0241  0.2749 -0.5806
31679SOL     OW95614   9.170   8.933   7.578  0.3228 -0.2375  0.3800
31679SOL    HW195615   9.221   8.923   7.497 -0.5449  0.8354 -0.3363
31679SOL    HW295616   9.105   9.000   7.556 -0.8457 -0.9621  1.5280
31680SOL     OW95617   6.687   2.169   1.260 -0.1404 -0.9207  0.1023
31680SOL    HW195618   6.759   2.210   1.211 -1.3655  2.8810  1.1541
31680SOL    HW295619   6.638   2.121   1.193  2.2400 -2.0415 -0.9662
31681SOL     OW95620   3.138   4.795   2.042  0.0380  0.4093 -0.0975
31681SOL    HW195621   3.095   4.791   1.956  1.3898  2.3729 -0.9345
31681SOL    HW295622   3.224   4.834   2.025 -0.0222  1.7948  2.2680
31682SOL     OW95623   4.114   1.012   9.183 -0.0036 -0.0181  0.2870
31682SOL    HW195624   4.199   0.993   9.223  0.2952  0.5456 -0.0675
31682SOL    HW295625   4.050   0.975   9.244  0.3531  2.4305  2.2615
31683SOL     OW95626   0.038   3.040   5.502  0.2110  0.1266 -0.1666
31683SOL    HW195627   0.092   2.962   5.513  0.6732  0.7110  2.2165
31683SOL    HW295628   0.099   3.113   5.508 -0.5739  0.7438  0.7971
31684SOL     OW95629   6.786   8.142   5.436  0.2302 -0.3245 -0.1081
31684SOL    HW195630   6.772   8.208   5.503 -0.2325  1.2278 -1.6525
31684SOL    HW295631   6.710   8.149   5.379  1.9576  0.5581 -2.4867
31685SOL     OW95632   2.368   2.015   3.410  0.1677  0.4542 -0.0180
31685SOL    HW195633   2.422   2.043   3.336  1.0583 -0.0220  0.4420
31685SOL    HW295634   2.310   1.948   3.374  1.5981 -0.8577  0.0009
31686SOL     OW95635   5.943   5.061   7.625 -0.0799 -0.0343 -0.1971
31686SOL    HW195636   6.020   5.045   7.570 -0.8403 -0.1218 -1.2772
31686SOL    HW295637   5.919   4.974   7.658  1.6904  0.2816  2.1709
31687SOL     OW95638   7.175   5.496   4.348  0.3696  0.5549  0.3680
31687SOL    HW195639   7.139   5.573   4.393 -0.6832 -0.2981  1.0223
31687SOL    HW295640   7.113   5.479   4.277  0.6772  0.3841  0.1362
31688SOL     OW95641   7.719   8.845   9.006  0.3968  0.0915 -0.2764
31688SOL    HW195642   7.660   8.848   9.082  0.6392 -0.3617 -0.0702
31688SOL    HW295643   7.742   8.937   8.991  1.0411  0.1083  0.7404
31689SOL     OW95644   8.467   7.111   6.958 -0.5261 -0.1311  0.1835
31689SOL    HW195645   8.373   7.106   6.942 -0.0919 -1.9367 -2.2538
31689SOL    HW295646   8.493   7.022   6.980  0.7962  0.0586 -0.4926
31690SOL     OW95647   7.793   1.557   9.059  0.5433  0.3596  0.2460
31690SOL    HW195648   7.874   1.573   9.108  0.7065  1.1079 -0.2508
31690SOL    HW295649   7.729   1.533   9.126  0.4918  2.3479  0.9748
31691SOL     OW95650   1.920   7.472   9.171 -0.5623  0.1373 -0.0760
31691SOL    HW195651   1.911   7.400   9.233  0.7790  1.1214  1.3475
31691SOL    HW295652   1.995   7.447   9.116 -0.8032 -0.0528 -0.3200
31692SOL     OW95653   5.461   3.641   9.632 -0.3230  0.6272 -0.2005
31692SOL    HW195654   5.412   3.610   9.556 -1.3323 -1.0314  1.0688
31692SOL    HW295655   5.528   3.699   9.594 -2.5913  2.2573 -2.0769
31693SOL     OW95656   5.560   6.023   8.940  0.1906  0.2022  0.2069
31693SOL    HW195657   5.514   6.003   8.859  0.8372 -1.4347  0.2006
31693SOL    HW295658   5.505   5.986   9.009 -0.2130  1.3333  0.5252
31694SOL     OW95659   8.201   6.855   9.758 -0.1826 -0.1307 -0.4021
31694SOL    HW195660   8.165   6.886   9.842  0.0185  2.3101 -1.1475
31694SOL    HW295661   8.259   6.783   9.782  1.6866  1.9706  1.8896
31695SOL     OW95662   9.845   1.310   9.628  0.0531  0.1496  0.0556
31695SOL    HW195663   9.890   1.231   9.658 -0.0724  0.5212  1.2723
31695SOL    HW295664   9.824   1.292   9.536 -1.5320 -1.9473  0.7512
31696SOL     OW95665   5.923   1.359   5.115 -0.0819  0.4109 -0.0286
31696SOL    HW195666   5.897   1.277   5.072  0.4694  0.3478 -0.2514
31696SOL    HW295667   6.019   1.358   5.113  0.0960 -0.6528  3.1735
31697SOL     OW95668   9.836   4.412   4.168  0.3960 -0.2968 -0.1640
31697SOL    HW195669   9.831   4.384   4.077 -4.2580  0.7052 -0.4438
31697SOL    HW295670   9.815   4.334   4.219  3.1573 -0.8992  0.2165
31698SOL     OW95671   3.098   9.040   5.518  0.7834 -0.5076  0.0140
31698SOL    HW195672   3.112   9.047   5.613 -1.5061  0.4524  0.3502
31698SOL    HW295673   3.182   9.067   5.480  2.0537 -1.7449  1.7322
31699SOL     OW95674   3.882   6.101   7.513 -0.4098  0.1758 -0.1607
31699SOL    HW195675   3.940   6.177   7.508  0.9614 -0.8951 -1.4712
31699SOL    HW295676   3.865   6.077   7.421 -0.4930 -1.3210  0.2140
31700SOL     OW95677   7.196   3.902   4.925 -0.4470  0.2006  0.9490
31700SOL    HW195678   7.166   3.971   4.985 -0.1216  1.7193 -0.5602
31700SOL    HW295679   7.242   3.949   4.856  1.8287 -1.7307  1.0388
31701SOL     OW95680   9.370   3.997   6.156  0.6375 -0.4297  0.4616
31701SOL    HW195681   9.464   4.013   6.157  0.5833 -0.0358 -0.0284
31701SOL    HW295682   9.339   4.045   6.078 -0.1169  0.2981  1.1937
31702SOL     OW95683   5.009   9.590   4.937  0.0128  0.0900 -0.0704
31702SOL    HW195684   4.977   9.664   4.987 -1.7064 -0.8402  0.2865
31702SOL    HW295685   5.098   9.576   4.968  0.6015  2.3437 -0.5880
31703SOL     OW95686   5.069   3.754   8.895  0.3053 -0.0361 -0.1720
31703SOL    HW195687   5.054   3.842   8.859 -0.2185  0.0414  0.2305
31703SOL    HW295688   5.009   3.698   8.847 -0.6759  0.1306  0.8335
31704SOL     OW95689   4.479   3.481   6.415 -0.2686 -0.1553 -0.9781
31704SOL    HW195690   4.422   3.456   6.342 -1.9003 -1.9340  0.8171
31704SOL    HW295691   4.437   3.445   6.493  1.2444  1.9374  0.9432
31705SOL     OW95692   9.370   0.169   7.728 -0.2283  0.0181  0.1765
31705SOL    HW195693   9.279   0.187   7.752  0.2738  1.0050  1.4894
31705SOL    HW295694   9.393   0.092   7.780 -0.0308  0.3715  0.6229
31706SOL     OW95695   5.931   7.536   0.253 -0.1707 -0.3652  0.0425
31706SOL    HW195696   5.843   7.569   0.272  0.0634 -0.0434  0.5971
31706SOL    HW295697   5.925   7.442   0.272 -0.0434 -0.1151  1.4308
31707SOL     OW95698   2.984   8.120   5.909  0.1047  0.0412  0.0162
31707SOL    HW195699   2.891   8.135   5.927  0.4971  0.0854  2.2959
31707SOL    HW295700   2.988   8.029   5.880 -0.6239 -0.0901  0.2963
31708SOL     OW95701   9.173   9.818   4.791  0.0864  0.0337  0.1965
31708SOL    HW195702   9.079   9.806   4.778  0.1342  0.7604 -1.1275
31708SOL    HW295703   9.200   9.872   4.716  1.6273 -0.4947  0.3297
31709SOL     OW95704   1.653   3.489   8.439  0.1397 -0.1809 -0.0415
31709SOL    HW195705   1.578   3.548   8.436  1.3152  1.3390 -2.0569
31709SOL    HW295706   1.649   3.449   8.526 -0.3298  3.4224  1.7723
31710SOL     OW95707   8.081   5.565   7.767  0.3213 -0.6312 -0.0119
31710SOL    HW195708   8.126   5.482   7.779  1.1712 -0.0072  1.3407
31710SOL    HW295709   8.015   5.567   7.837 -1.6286 -1.3789 -1.7510
31711SOL     OW95710   5.206   3.438   5.726  0.1359  0.5114  0.5530
31711SOL    HW195711   5.263   3.515   5.728  0.6485  0.1339  1.0298
31711SOL    HW295712   5.261   3.368   5.762  0.2437 -0.4458 -1.3318
31712SOL     OW95713   7.842   3.234   6.797 -0.2526 -0.1201  0.9752
31712SOL    HW195714   7.787   3.279   6.733 -1.1124  0.0898  1.8454
31712SOL    HW295715   7.892   3.170   6.745 -0.0599  0.8550 -0.0634
31713SOL     OW95716   4.719   5.290   4.332  0.0621 -0.3470 -0.6854
31713SOL    HW195717   4.647   5.282   4.394  2.0281 -0.6871  1.7058
31713SOL    HW295718   4.706   5.218   4.270 -0.2150 -2.1404  1.3368
31714SOL     OW95719   8.881   0.383   6.957  0.0294 -0.2947  0.2471
31714SOL    HW195720   8.897   0.311   6.897  1.7431 -1.1911  1.6973
31714SOL    HW295721   8.966   0.401   6.997 -0.7596  1.2238  1.3500
31715SOL     OW95722   5.811   9.148   5.622  0.0920 -0.4243 -0.1361
31715SOL    HW195723   5.743   9.147   5.555 -0.5119  0.2397  0.4460
31715SOL    HW295724   5.888   9.182   5.578 -0.7723  1.7889 -0.0856
31716SOL     OW95725   6.791   6.430   5.300  0.1514 -0.9397  0.6002
31716SOL    HW195726   6.779   6.396   5.388 -0.8919  0.3077  0.9641
31716SOL    HW295727   6.856   6.500   5.310 -1.1520  0.2858  0.6768
31717SOL     OW95728   5.314   4.168   4.039  0.1549 -0.5533  0.4389
31717SOL    HW195729   5.241   4.214   3.998 -0.7540 -0.5135  1.9824
31717SOL    HW295730   5.385   4.232   4.040 -0.6347  0.3532  1.2453
31718SOL     OW95731   0.735   5.009   5.959  0.1761  0.5419  0.6741
31718SOL    HW195732   0.735   4.914   5.945 -0.2148  0.4876  1.0104
31718SOL    HW295733   0.720   5.019   6.053 -0.2188  0.9406  0.5712
31719SOL     OW95734   2.153   7.614   4.887 -0.3820 -0.4774 -0.1655
31719SOL    HW195735   2.161   7.672   4.811 -1.1658  1.2426  0.9869
31719SOL    HW295736   2.078   7.649   4.936  0.7064 -0.8828  1.9211
31720SOL     OW95737   2.726   7.998   8.568  0.8055 -0.0597 -0.4966
31720SOL    HW195738   2.757   7.960   8.650 -0.7718  0.2323  0.2881
31720SOL    HW295739   2.631   8.007   8.581  0.8216  2.0902 -1.4759
31721SOL     OW95740   4.850   8.324   9.162  0.1815 -0.7200 -0.0821
31721SOL    HW195741   4.789   8.292   9.096 -0.6056  3.3385 -1.5935
31721SOL    HW295742   4.936   8.320   9.120  0.0310 -0.3936 -0.4159
31722SOL     OW95743   0.645   9.360   8.460  0.6116 -0.0683 -0.0122
31722SOL    HW195744   0.713   9.311   8.506 -0.4291 -0.4961  1.1362
31722SOL    HW295745   0.603   9.296   8.403  0.9780  0.1242 -0.4997
31723SOL     OW95746   0.401   3.616   4.240 -0.4795 -0.0345 -0.3916
31723SOL    HW195747   0.366   3.583   4.157 -1.1047 -1.9584  0.5723
31723SOL    HW295748   0.443   3.540   4.280 -3.6044 -0.3337  2.8357
31724SOL     OW95749   4.588   9.410   0.936 -0.4747 -0.4055  0.0002
31724SOL    HW195750   4.594   9.494   0.982  0.9623  0.5760 -1.8444
31724SOL    HW295751   4.535   9.428   0.858 -1.3863 -1.5931  0.3107
31725SOL     OW95752   7.326   0.383   3.052 -0.0728  0.1622 -1.1521
31725SOL    HW195753   7.408   0.429   3.032  0.4330 -0.2907 -0.1904
31725SOL    HW295754   7.344   0.337   3.134 -1.0195 -0.6511 -1.3895
31726SOL     OW95755   2.346   8.321   1.136 -0.3611 -0.3714  0.0107
31726SOL    HW195756   2.261   8.339   1.095 -1.1480  0.6083  1.9356
31726SOL    HW295757   2.328   8.324   1.230  1.7193 -0.6612  0.4587
31727SOL     OW95758   4.027   8.747   9.008 -0.3086  0.6071  0.4881
31727SOL    HW195759   4.034   8.771   9.100 -0.2829 -0.4493  0.7791
31727SOL    HW295760   3.938   8.713   8.999 -0.6505  1.6209 -0.1181
31728SOL     OW95761   1.165   1.221   8.260 -0.4631 -0.0839 -0.0409
31728SOL    HW195762   1.220   1.187   8.330 -0.5335 -0.6268 -0.2451
31728SOL    HW295763   1.129   1.143   8.217 -1.2441  0.2582 -0.0313
31729SOL     OW95764   2.260   4.531   8.003  0.7818 -0.1925  0.5073
31729SOL    HW195765   2.292   4.557   7.917  1.8039 -2.3607  0.1619
31729SOL    HW295766   2.167   4.512   7.991  0.8383 -0.1268 -0.0317
31730SOL     OW95767   0.926   4.953   1.125 -0.2125 -0.2464 -0.4809
31730SOL    HW195768   0.911   4.859   1.139  0.1108 -0.0283  1.5997
31730SOL    HW295769   0.865   4.976   1.054 -0.4355 -1.9668 -0.9010
31731SOL     OW95770   4.031   1.687   9.295  0.2071  0.0489 -0.0443
31731SOL    HW195771   3.983   1.762   9.331 -0.5378 -0.8366  0.8784
31731SOL    HW295772   4.100   1.670   9.358  0.1657 -0.2497 -0.0790
31732SOL     OW95773   6.247   3.813   1.196 -0.2656 -1.3613 -0.6326
31732SOL    HW195774   6.155   3.791   1.209 -0.7285 -0.2122 -1.8192
31732SOL    HW295775   6.289   3.784   1.277 -1.8866 -0.6514  0.5293
31733SOL     OW95776   1.725   4.433   9.017 -0.0184  0.2346 -0.0181
31733SOL    HW195777   1.707   4.390   8.933 -0.0750  0.0356  0.0945
31733SOL    HW295778   1.645   4.418   9.068  0.2246 -0.1088  0.2632
31734SOL     OW95779   3.260   1.357   8.070  0.0709  0.1909  0.0918
31734SOL    HW195780   3.261   1.279   8.014  1.1236  1.6958 -2.1764
31734SOL    HW295781   3.352   1.369   8.095  0.4075  2.0552 -1.7607
31735SOL     OW95782   6.200   7.279   4.299 -0.3999  0.2427  0.7652
31735SOL    HW195783   6.166   7.330   4.225 -0.8977 -2.6501 -1.1634
31735SOL    HW295784   6.291   7.307   4.308 -0.6187  1.3581 -0.2670
31736SOL     OW95785   2.304   9.101   6.770  0.1841 -0.4346  0.2641
31736SOL    HW195786   2.228   9.152   6.745 -0.6761  0.2115  3.6612
31736SOL    HW295787   2.378   9.147   6.731 -0.8903  1.0638 -0.0754
31737SOL     OW95788   2.865   5.691   9.469 -0.1909 -0.4537 -0.1818
31737SOL    HW195789   2.942   5.635   9.459 -0.6392 -1.4734  1.5874
31737SOL    HW295790   2.871   5.723   9.559 -0.8631  0.9784 -0.6282
31738SOL     OW95791   2.854   9.162   2.771 -0.3661 -0.3174  0.4883
31738SOL    HW195792   2.917   9.095   2.745 -0.3057  0.2421 -0.9037
31738SOL    HW295793   2.906   9.229   2.815  0.1151  0.2945 -0.9363
31739SOL     OW95794   7.435   1.295   1.434 -0.4955 -0.7126 -0.5085
31739SOL    HW195795   7.420   1.209   1.474  1.4401 -1.4733 -1.2960
31739SOL    HW295796   7.527   1.292   1.406 -0.0400  2.0318  0.4505
31740SOL     OW95797   3.435   4.666   3.105 -0.4656 -0.3202  0.0358
31740SOL    HW195798   3.374   4.712   3.161 -1.4330 -0.5256 -0.8142
31740SOL    HW295799   3.384   4.593   3.068  0.1277 -0.1917 -1.0923
31741SOL     OW95800   0.212   6.691   1.988  0.1157  0.3266 -0.0407
31741SOL    HW195801   0.216   6.723   1.898 -0.1481  0.1100 -0.1286
31741SOL    HW295802   0.265   6.754   2.038 -1.1764  1.4649 -0.0388
31742SOL     OW95803   9.323   1.420   9.507  0.3022 -0.2281 -0.4461
31742SOL    HW195804   9.230   1.429   9.527  0.5157  1.5236 -0.1042
31742SOL    HW295805   9.338   1.479   9.433  1.0009 -1.0858 -1.0149
31743SOL     OW95806   9.583   9.135   4.879 -0.3281 -0.3036  0.4232
31743SOL    HW195807   9.550   9.060   4.830  0.1494  0.1369 -0.6080
31743SOL    HW295808   9.505   9.174   4.920 -0.5488 -1.4683  1.1489
31744SOL     OW95809   9.727   7.807   3.872 -0.2781  0.8862 -0.3821
31744SOL    HW195810   9.735   7.814   3.967 -0.5542  0.6903 -0.3417
31744SOL    HW295811   9.634   7.823   3.854 -0.1874  1.1362 -0.6393
31745SOL     OW95812   5.396   4.936   5.235  0.4440 -0.2992  0.8803
31745SOL    HW195813   5.476   4.987   5.249  0.1014  0.4319  0.2330
31745SOL    HW295814   5.360   4.970   5.153 -1.9189  1.2260  2.4179
31746SOL     OW95815   4.081   9.092   2.679 -0.1412  0.0447 -0.2068
31746SOL    HW195816   4.057   9.080   2.771  3.5061  2.1315  1.2330
31746SOL    HW295817   4.009   9.144   2.642 -0.3051  1.8534  2.4035
31747SOL     OW95818   9.309   9.408   2.683  0.3553 -0.7228  0.1246
31747SOL    HW195819   9.258   9.329   2.669 -0.5171 -0.2878  0.7168
31747SOL    HW295820   9.359   9.420   2.603  0.2527 -1.6917 -0.0889
31748SOL     OW95821   0.194   3.992   8.082 -0.5366 -0.5825 -0.1350
31748SOL    HW195822   0.210   3.924   8.016 -1.6997 -0.5785 -0.4482
31748SOL    HW295823   0.252   3.969   8.154 -1.4336 -2.3812  0.0802
31749SOL     OW95824   4.793   8.446   7.800 -0.0547  0.6037 -0.3499
31749SOL    HW195825   4.851   8.493   7.859 -0.4416 -0.9066  1.3312
31749SOL    HW295826   4.851   8.395   7.743  0.5277 -2.8409  2.8965
31750SOL     OW95827   6.499   9.348   7.594 -0.1592  0.8544  0.4495
31750SOL    HW195828   6.489   9.295   7.515  0.9702  2.3663 -0.7810
31750SOL    HW295829   6.414   9.341   7.638 -0.4956 -0.7963 -0.3946
31751SOL     OW95830   4.603   8.232   8.047  0.4496 -0.5861  0.1069
31751SOL    HW195831   4.581   8.291   7.975 -0.7481 -0.3040  0.6797
31751SOL    HW295832   4.690   8.259   8.075  0.7891 -0.4963 -1.0253
31752SOL     OW95833   5.151   0.539   4.546  0.0161 -0.1490 -0.3415
31752SOL    HW195834   5.174   0.571   4.634  0.9501 -2.2515  0.2441
31752SOL    HW295835   5.123   0.618   4.499  0.7586  1.2625  1.4287
31753SOL     OW95836   9.460   4.516   3.712 -0.5652 -0.1578 -0.3787
31753SOL    HW195837   9.467   4.433   3.666 -2.0451  0.8120 -2.4895
31753SOL    HW295838   9.536   4.567   3.683 -0.1614 -0.4237  0.1973
31754SOL     OW95839   7.192   5.496   5.071 -0.1826 -0.4386 -0.5059
31754SOL    HW195840   7.208   5.587   5.048 -0.2666 -0.3664 -0.2735
31754SOL    HW295841   7.103   5.494   5.105  0.0854 -0.4699  0.2178
31755SOL     OW95842   7.306   3.816   4.383 -0.0560  0.4938 -0.4637
31755SOL    HW195843   7.334   3.814   4.292  0.1969 -0.1245 -0.3810
31755SOL    HW295844   7.359   3.884   4.424  1.4749 -0.7451 -0.2785
31756SOL     OW95845   7.842   9.763   7.320  0.0107  0.5354 -0.2027
31756SOL    HW195846   7.871   9.739   7.232 -0.7778 -1.1646 -0.0350
31756SOL    HW295847   7.835   9.859   7.317 -1.0121  0.4704 -2.3322
31757SOL     OW95848   1.322   9.098   8.148 -0.4668 -0.3777  0.2422
31757SOL    HW195849   1.374   9.113   8.227 -0.8156  1.2870  0.1837
31757SOL    HW295850   1.386   9.071   8.082  0.1193  0.2013  0.5596
31758SOL     OW95851   4.900   2.493   4.566  0.4528  0.2633  0.0661
31758SOL    HW195852   4.826   2.517   4.510  0.5210  1.3923  0.4181
31758SOL    HW295853   4.879   2.533   4.651  0.6823 -0.8236  0.6567
31759SOL     OW95854   3.962   6.952   5.015  0.2099 -0.3335  0.4588
31759SOL    HW195855   3.921   7.017   4.958  1.8541 -0.2876 -0.7387
31759SOL    HW295856   3.891   6.894   5.041 -1.1197  1.3802  0.7899
31760SOL     OW95857   4.508   2.372   3.338  0.2566 -0.5262 -0.2308
31760SOL    HW195858   4.475   2.287   3.311  0.7462 -1.1188  0.9801
31760SOL    HW295859   4.584   2.353   3.393  1.2291  0.7357 -1.0486
31761SOL     OW95860   2.664   3.002   2.259  0.0833 -0.0720  0.0856
31761SOL    HW195861   2.590   2.943   2.267 -0.5563  0.6925 -0.1240
31761SOL    HW295862   2.723   2.957   2.198  0.6333 -1.4954  1.5732
31762SOL     OW95863   8.010   7.972   9.488 -0.3087  0.8007 -0.2380
31762SOL    HW195864   8.102   7.972   9.515  0.5651 -0.9107 -2.7872
31762SOL    HW295865   7.993   8.062   9.461  0.0777  1.5066  1.7594
31763SOL     OW95866   0.952   8.079   5.376 -0.1859  0.0944 -0.5142
31763SOL    HW195867   1.047   8.084   5.382 -0.0706 -1.5624 -0.6215
31763SOL    HW295868   0.934   8.071   5.282 -0.3284 -0.9974 -0.4048
31764SOL     OW95869   6.926   2.478   4.203 -0.4452 -0.1775  0.0951
31764SOL    HW195870   6.930   2.395   4.251  1.8151 -1.6618 -2.4102
31764SOL    HW295871   6.835   2.484   4.173 -0.4398 -2.3133 -0.5080
31765SOL     OW95872   1.171   0.823   4.378 -0.5417  1.1407  0.8008
31765SOL    HW195873   1.087   0.841   4.419 -0.4677  0.0102  1.4976
31765SOL    HW295874   1.207   0.750   4.429  0.0221  0.3851 -0.6163
31766SOL     OW95875   7.133   0.114   4.751 -0.3556  0.1048  0.4047
31766SOL    HW195876   7.209   0.162   4.784 -0.1146 -0.9620  1.4862
31766SOL    HW295877   7.059   0.149   4.801 -0.3856  0.2650  0.2496
31767SOL     OW95878   5.859   4.207   1.101 -0.0477  0.1192 -0.6383
31767SOL    HW195879   5.899   4.133   1.146 -0.2876 -0.6726 -1.6962
31767SOL    HW295880   5.803   4.248   1.167  3.8470  2.5121  1.5678
31768SOL     OW95881   0.144   7.507   6.887  0.5658 -0.3650 -0.1599
31768SOL    HW195882   0.168   7.440   6.823  0.2068  0.2306 -0.9306
31768SOL    HW295883   0.206   7.579   6.871 -0.0150  0.0947 -0.3553
31769SOL     OW95884   1.732   6.841   8.663  0.7748 -0.5217  0.0214
31769SOL    HW195885   1.771   6.925   8.688  0.3856 -0.3001 -0.1146
31769SOL    HW295886   1.655   6.864   8.612  1.4004 -0.9533 -1.1778
31770SOL     OW95887   8.218   4.941   7.817 -0.4236 -0.2587 -0.3199
31770SOL    HW195888   8.125   4.926   7.835 -0.1562 -0.5485  0.9461
31770SOL    HW295889   8.223   4.954   7.723 -1.7789 -0.0105 -0.3741
31771SOL     OW95890   5.865   5.782   7.272 -0.0294  0.0376 -0.9768
31771SOL    HW195891   5.799   5.735   7.222 -0.5880  0.6952 -0.8645
31771SOL    HW295892   5.844   5.764   7.364  0.7637 -0.8513 -0.9435
31772SOL     OW95893   4.954   1.054   8.637  0.0683 -0.1182 -0.1203
31772SOL    HW195894   5.009   0.981   8.607  0.5619  0.6632 -1.1457
31772SOL    HW295895   4.959   1.119   8.567 -0.6145  0.7857  0.6445
31773SOL     OW95896   6.650   7.538   6.231  0.4988 -0.1964  0.9762
31773SOL    HW195897   6.668   7.444   6.239  0.2666 -0.4238 -0.6748
31773SOL    HW295898   6.555   7.544   6.234  0.5472  0.1772  2.4986
31774SOL     OW95899   0.994   9.080   6.883 -0.4421 -0.2371 -0.4701
31774SOL    HW195900   0.922   9.070   6.821  0.9799 -0.8642 -2.1114
31774SOL    HW295901   1.001   8.996   6.927 -1.7260  0.3403  0.9198
31775SOL     OW95902   0.175   8.776   2.943  0.2449 -0.5769 -0.6744
31775SOL    HW195903   0.266   8.753   2.925  0.9344  1.1016  0.4143
31775SOL    HW295904   0.165   8.764   3.037 -0.5395 -0.3684 -0.7234
31776SOL     OW95905   2.442   9.151   4.698  0.7762 -0.4994  0.3222
31776SOL    HW195906   2.528   9.139   4.657  1.8657  0.0324  2.3147
31776SOL    HW295907   2.460   9.207   4.774 -1.6604  1.2646 -0.2879
31777SOL     OW95908   2.173   3.992   7.992  0.0450  0.2534  0.1222
31777SOL    HW195909   2.257   3.948   7.977  0.2495  0.9074 -0.6832
31777SOL    HW295910   2.108   3.933   7.954  0.2078  0.0968  0.0841
31778SOL     OW95911   4.987   5.064   4.260  0.5183 -0.0483  0.0666
31778SOL    HW195912   4.907   5.047   4.309  0.5806  0.1529  0.2412
31778SOL    HW295913   4.958   5.078   4.170  0.4075 -0.4679  0.0311
31779SOL     OW95914   3.273   3.507   1.937  0.2359 -0.0746  0.3123
31779SOL    HW195915   3.362   3.494   1.969  0.6963 -0.8391 -1.1610
31779SOL    HW295916   3.224   3.433   1.971 -0.0705  0.7653  1.7945
31780SOL     OW95917   7.429   7.646   0.405 -0.1345 -0.4653 -0.7440
31780SOL    HW195918   7.379   7.623   0.327 -1.2964 -0.4429 -0.0203
31780SOL    HW295919   7.364   7.679   0.466  0.9433  0.8163 -0.2500
31781SOL     OW95920   6.370   0.203   6.535 -0.0889 -0.1190  0.4465
31781SOL    HW195921   6.394   0.120   6.494 -0.0654  0.4262 -0.7019
31781SOL    HW295922   6.387   0.190   6.628 -0.6018 -1.5703  0.3658
31782SOL     OW95923   0.285   0.179   4.995 -0.1878  0.3550  0.3098
31782SOL    HW195924   0.197   0.215   5.010 -0.2482 -0.1686  1.2745
31782SOL    HW295925   0.286   0.158   4.902 -0.3641  2.2654 -0.1638
31783SOL     OW95926   1.781   7.977   8.472  0.3080  0.4527  0.4678
31783SOL    HW195927   1.793   7.981   8.377 -2.3234 -2.1797 -0.1540
31783SOL    HW295928   1.705   8.032   8.489 -1.4566 -1.7743  0.3546
31784SOL     OW95929   5.895   7.874   1.271  0.2375  0.1534  0.0189
31784SOL    HW195930   5.861   7.930   1.341 -1.3792 -0.9931  0.1869
31784SOL    HW295931   5.837   7.798   1.269  1.4415 -0.8004 -1.2490
31785SOL     OW95932   9.234   2.593   5.242 -0.8504  0.0471  0.3950
31785SOL    HW195933   9.197   2.569   5.327 -1.7607 -0.5778 -0.1556
31785SOL    HW295934   9.227   2.513   5.190  0.5288  0.1657  0.0008
31786SOL     OW95935   8.448   1.013   8.824  0.0146 -0.3342 -0.4634
31786SOL    HW195936   8.395   0.933   8.824 -1.6207  0.7088 -1.0871
31786SOL    HW295937   8.385   1.084   8.814  1.4129  1.0670  0.2048
31787SOL     OW95938   2.956   7.750   4.812 -0.2236  0.1959 -0.1450
31787SOL    HW195939   2.965   7.803   4.892  1.3327 -0.4563  0.1482
31787SOL    HW295940   3.039   7.763   4.765 -1.2692  0.8854 -1.8922
31788SOL     OW95941   4.269   9.210   8.236  0.3013 -0.6200 -0.7322
31788SOL    HW195942   4.217   9.137   8.272 -2.3399  1.4199 -0.0927
31788SOL    HW295943   4.224   9.234   8.155  0.2198  1.1896 -0.1880
31789SOL     OW95944   7.827   9.177   1.632  0.2197  0.2645 -0.5371
31789SOL    HW195945   7.742   9.192   1.673  0.6843 -1.8463  1.4129
31789SOL    HW295946   7.884   9.245   1.668  0.4808 -1.2065  2.0786
31790SOL     OW95947   5.017   7.832   7.070 -0.2496  0.0164  0.6178
31790SOL    HW195948   4.980   7.860   6.987  0.8038 -0.4050 -0.0143
31790SOL    HW295949   4.959   7.761   7.100  0.8440 -1.7177 -1.1270
31791SOL     OW95950   8.077   8.222   6.756 -0.3659  0.2745 -0.7927
31791SOL    HW195951   8.147   8.248   6.695 -0.1918  1.9328  0.0815
31791SOL    HW295952   8.094   8.272   6.835 -1.6409 -0.5093  0.0066
31792SOL     OW95953   1.379   7.190   2.916 -0.8018  0.4408  0.6988
31792SOL    HW195954   1.340   7.240   2.988 -0.6064  1.1511  0.3237
31792SOL    HW295955   1.473   7.208   2.922 -0.9598  2.0904 -0.8783
31793SOL     OW95956   9.345   6.735   5.927  0.4973 -0.3297 -0.3571
31793SOL    HW195957   9.360   6.678   5.852 -1.1769 -0.6048 -0.5164
31793SOL    HW295958   9.277   6.796   5.899  0.3585  0.0390  0.6982
31794SOL     OW95959   6.570   3.733   4.964  0.5555  0.6318 -0.3701
31794SOL    HW195960   6.656   3.718   5.001  0.5073  1.4526  0.1093
31794SOL    HW295961   6.576   3.819   4.923 -0.5457  1.6222  1.3695
31795SOL     OW95962   3.541   0.717   4.452 -0.5285 -0.5077  0.4667
31795SOL    HW195963   3.466   0.686   4.503 -0.2405 -0.1893  1.0954
31795SOL    HW295964   3.596   0.763   4.516 -0.7499  0.9651 -0.3470
31796SOL     OW95965   8.162   9.693   2.590  0.1106 -0.3726 -0.5286
31796SOL    HW195966   8.220   9.757   2.631 -0.4837  0.6215 -1.1873
31796SOL    HW295967   8.093   9.678   2.654  1.5378 -2.2961  0.6654
31797SOL     OW95968   8.428   6.592   0.167  0.9495  0.1336  0.6684
31797SOL    HW195969   8.473   6.665   0.209  3.1020 -0.7908  0.1312
31797SOL    HW295970   8.492   6.520   0.169 -0.6063 -1.3462  0.0281
31798SOL     OW95971   4.913   4.579   2.380  0.4805 -0.1166 -0.0631
31798SOL    HW195972   4.930   4.532   2.462 -0.4972  0.7217  0.6557
31798SOL    HW295973   4.999   4.591   2.341  0.9448 -0.7090  0.7489
31799SOL     OW95974   9.067   0.782   8.193  0.1158 -0.8188 -0.3669
31799SOL    HW195975   9.125   0.859   8.192  0.6363 -1.2194 -1.4173
31799SOL    HW295976   8.985   0.813   8.155  0.0445 -0.5822 -0.0331
31800SOL     OW95977   7.335   9.103   3.645  0.2598 -0.4635 -0.4391
31800SOL    HW195978   7.303   9.093   3.556 -2.3368  0.3876  0.3088
31800SOL    HW295979   7.278   9.170   3.684  1.1127 -1.0181  1.9591
31801SOL     OW95980   9.310   5.156   5.994 -0.1797 -0.2663 -0.4319
31801SOL    HW195981   9.283   5.211   6.068 -0.8381  0.4137 -1.1715
31801SOL    HW295982   9.374   5.209   5.946 -0.4009 -0.3654 -0.8377
31802SOL     OW95983   5.538   8.608   5.826  0.3056 -0.4579  0.2845
31802SOL    HW195984   5.462   8.619   5.883  1.5441  1.2264  1.7000
31802SOL    HW295985   5.501   8.576   5.743 -2.3519  2.9165 -0.0598
31803SOL     OW95986   9.257   8.299   9.489 -0.2311  0.2917 -0.1258
31803SOL    HW195987   9.289   8.367   9.430  0.3139  0.6283  0.5478
31803SOL    HW295988   9.280   8.330   9.576 -0.3574 -0.5571  0.2182
31804SOL     OW95989   4.198   4.233   2.178  0.2466  0.3758  0.4518
31804SOL    HW195990   4.237   4.290   2.112 -0.2132 -0.4705 -0.5777
31804SOL    HW295991   4.117   4.201   2.138 -0.3795  0.3429  1.6827
31805SOL     OW95992   5.364   1.850   0.938 -0.6602 -0.7794  0.3284
31805SOL    HW195993   5.284   1.901   0.918 -0.7017 -1.2935 -0.9232
31805SOL    HW295994   5.337   1.759   0.929  0.0158 -0.9627  0.0768
31806SOL     OW95995   8.888   4.053   0.786  0.0794 -0.2221 -0.8029
31806SOL    HW195996   8.980   4.033   0.772 -0.0609 -2.1045  0.5756
31806SOL    HW295997   8.841   3.999   0.722 -0.1067  0.0831 -0.9281
31807SOL     OW95998   4.285   3.804   4.425  0.3495  0.5437  0.2223
31807SOL    HW195999   4.225   3.742   4.384  0.5923  0.1795  0.4125
31807SOL    HW296000   4.352   3.749   4.465  0.7152  0.9402  0.1587
31808SOL     OW96001   0.589   2.805   6.919  0.0205  0.2493  0.6480
31808SOL    HW196002   0.590   2.717   6.880 -0.0693  0.8885 -0.8374
31808SOL    HW296003   0.608   2.864   6.847  0.9492  1.4178  1.7852
31809SOL     OW96004   3.221   0.268   6.805 -0.2666 -0.2000  0.6280
31809SOL    HW196005   3.212   0.173   6.794 -1.1540  0.0025 -0.5444
31809SOL    HW296006   3.141   0.304   6.767 -1.3935  0.8859  3.7280
31810SOL     OW96007   5.202   3.407   5.300  0.0601 -0.0282  0.4440
31810SOL    HW196008   5.255   3.337   5.261  0.1493 -0.2096  0.8834
31810SOL    HW296009   5.158   3.449   5.226  1.5438  0.7393 -0.0431
31811SOL     OW96010   2.502   7.294   7.130 -0.6922  0.2426 -0.1203
31811SOL    HW196011   2.418   7.250   7.124 -0.6076  0.3019 -2.9227
31811SOL    HW296012   2.567   7.224   7.120 -0.4729  0.5537 -0.8872
31812SOL     OW96013   4.967   9.340   9.316  0.3782 -0.6847 -0.0514
31812SOL    HW196014   5.047   9.287   9.316  0.8973  0.0715  0.9503
31812SOL    HW296015   4.996   9.428   9.342 -0.7196 -0.3151 -0.0283
31813SOL     OW96016   1.822   4.610   6.947 -0.0602 -0.4168  0.2620
31813SOL    HW196017   1.843   4.614   6.854  0.8284  0.1020  0.4722
31813SOL    HW296018   1.891   4.661   6.990  0.3184 -1.7488  1.3293
31814SOL     OW96019   9.556   5.313   0.644  0.5260  0.0276 -0.3466
31814SOL    HW196020   9.605   5.351   0.571  0.0304 -0.7912 -1.1243
31814SOL    HW296021   9.609   5.239   0.673  0.0273 -0.5517 -0.8618
31815SOL     OW96022   2.975   8.851   3.073 -0.7489 -0.4896 -0.5103
31815SOL    HW196023   2.919   8.842   2.996 -3.0068  1.4623  0.7877
31815SOL    HW296024   2.943   8.785   3.134  0.2001 -1.1719 -0.7223
31816SOL     OW96025   2.749   3.981   1.735  0.2536 -0.1281  0.4687
31816SOL    HW196026   2.713   3.942   1.814 -0.4762  0.6988  0.5564
31816SOL    HW296027   2.833   4.019   1.762 -0.1606  0.4678  0.9382
31817SOL     OW96028   5.194   5.079   6.167 -0.3485 -0.4222 -0.5605
31817SOL    HW196029   5.266   5.055   6.227 -0.3728  2.0902  0.5856
31817SOL    HW296030   5.155   5.156   6.206 -1.6883  0.1369 -2.8328
31818SOL     OW96031   2.811   5.579   0.555  0.3802  0.0033  0.6334
31818SOL    HW196032   2.887   5.556   0.501  1.6098  1.3180  1.7456
31818SOL    HW296033   2.846   5.634   0.624 -1.5261  0.2070  1.4964
31819SOL     OW96034   1.759   9.842   3.071  0.6907 -0.1761  0.2615
31819SOL    HW196035   1.824   9.854   3.002  1.2412 -1.3023  0.5552
31819SOL    HW296036   1.682   9.807   3.025  0.7391 -0.0733  0.0991
31820SOL     OW96037   9.718   3.712   6.962  0.1032 -0.1068  0.1362
31820SOL    HW196038   9.757   3.794   6.991 -0.6627  0.2605  0.1552
31820SOL    HW296039   9.790   3.649   6.966  0.5785  0.4465  0.6109
31821SOL     OW96040   2.640   7.257   2.189 -0.2681  0.4517  1.0625
31821SOL    HW196041   2.693   7.193   2.238 -1.0887  0.8521  2.5296
31821SOL    HW296042   2.702   7.298   2.129  0.3947 -1.3284  0.4481
31822SOL     OW96043   4.784   1.157   5.890 -0.1267  0.6464  0.0191
31822SOL    HW196044   4.761   1.218   5.820  0.4373  1.9767  0.9547
31822SOL    HW296045   4.716   1.090   5.887 -0.4824  1.0295 -1.3577
31823SOL     OW96046   5.586   5.197   7.036  0.4133  0.1299 -0.5339
31823SOL    HW196047   5.501   5.155   7.028  0.4804  0.0469 -0.8288
31823SOL    HW296048   5.568   5.279   7.082  0.4401 -0.6997  1.0018
31824SOL     OW96049   4.522   1.091   1.388  0.2547  0.2578 -0.1818
31824SOL    HW196050   4.608   1.126   1.370 -0.1033  0.5088 -1.4754
31824SOL    HW296051   4.534   0.996   1.389  0.4828  0.2806 -0.7173
31825SOL     OW96052   4.320   2.418   7.783 -0.7347  0.2954  0.1746
31825SOL    HW196053   4.411   2.424   7.753 -0.8921  0.0674 -0.3585
31825SOL    HW296054   4.324   2.359   7.859 -0.2172  1.5298  1.1419
31826SOL     OW96055   8.196   4.965   7.551  0.3272 -0.3317  0.2071
31826SOL    HW196056   8.284   4.989   7.523  0.5480 -0.7695  0.5035
31826SOL    HW296057   8.147   5.047   7.550  0.6584 -0.1337 -0.2421
31827SOL     OW96058   4.165   1.884   1.140  0.0098  0.1470 -0.9633
31827SOL    HW196059   4.140   1.946   1.208  0.9386 -1.3421  0.8276
31827SOL    HW296060   4.089   1.827   1.129  0.3942 -0.5757  0.0034
31828SOL     OW96061   5.131   1.131   9.188  0.4497 -0.8168  0.4263
31828SOL    HW196062   5.150   1.205   9.247  0.7804 -0.5736  0.0197
31828SOL    HW296063   5.043   1.149   9.156 -0.2038 -1.5501  1.7250
31829SOL     OW96064   4.892   8.672   8.144  0.0628  0.8077  0.0052
31829SOL    HW196065   4.949   8.627   8.206  0.1980  1.0493  0.0565
31829SOL    HW296066   4.902   8.765   8.164 -0.4840  0.8448  0.1344
31830SOL     OW96067   9.292   9.931   1.917  0.1620 -0.4970 -0.2364
31830SOL    HW196068   9.326   9.925   2.006  0.2233  0.2487 -0.1974
31830SOL    HW296069   9.227  10.001   1.921  1.3911  0.7520 -1.1297
31831SOL     OW96070   2.823   5.924   3.544 -0.2061  0.2556  0.2280
31831SOL    HW196071   2.842   5.836   3.577 -0.0162 -0.1931 -1.0464
31831SOL    HW296072   2.733   5.941   3.572  0.2873  0.3232  1.8753
31832SOL     OW96073   2.246   1.530   2.211 -0.3501 -0.3228  0.2737
31832SOL    HW196074   2.169   1.578   2.241 -0.1295  1.5386 -1.8806
31832SOL    HW296075   2.304   1.529   2.287 -1.2164  1.0520  1.0037
31833SOL     OW96076   2.707   9.299   1.684 -0.0384  1.2177  0.7422
31833SOL    HW196077   2.731   9.321   1.594  4.1656 -0.1245  1.3110
31833SOL    HW296078   2.717   9.380   1.733 -1.4993  1.7539  0.1946
31834SOL     OW96079   6.927   9.175   7.620 -0.2672 -0.1550 -0.0685
31834SOL    HW196080   6.995   9.242   7.610 -0.4423 -0.1923 -1.7789
31834SOL    HW296081   6.958   9.121   7.692  0.5260  1.0013  0.4963
31835SOL     OW96082   6.314   5.994   2.775  0.2179  0.0417  0.3695
31835SOL    HW196083   6.246   5.928   2.763 -0.1440  0.2246  1.3647
31835SOL    HW296084   6.390   5.945   2.806 -0.6181  0.2675  3.0253
31836SOL     OW96085   3.930   9.880   6.404 -0.1733  0.0689  0.3940
31836SOL    HW196086   3.847   9.860   6.448 -1.0998  0.6772 -1.0329
31836SOL    HW296087   3.978   9.798   6.407 -0.9528 -0.3905  0.9429
31837SOL     OW96088   6.125   3.675   4.165  0.2828  0.5020 -0.0182
31837SOL    HW196089   6.137   3.760   4.208  0.5589  1.0364 -1.1273
31837SOL    HW296090   6.195   3.671   4.101  0.6253 -0.8306  0.4122
31838SOL     OW96091   9.052   1.603   7.767  0.2503  0.2120  0.1639
31838SOL    HW196092   9.094   1.527   7.728  1.6658 -0.2686  2.4452
31838SOL    HW296093   9.043   1.580   7.860 -1.7715  1.7731  0.4246
31839SOL     OW96094   5.705   4.374   0.230  0.0913 -0.2453 -0.0497
31839SOL    HW196095   5.701   4.466   0.204  1.4827 -0.4172 -1.0313
31839SOL    HW296096   5.615   4.349   0.248 -0.3428  1.2116 -0.1110
31840SOL     OW96097   5.463   1.031   4.744  0.3947 -0.0384 -0.0325
31840SOL    HW196098   5.368   1.043   4.742  0.3942  0.0599  0.6411
31840SOL    HW296099   5.499   1.119   4.736  0.4475 -0.1334 -1.0425
31841SOL     OW96100   6.640   6.289   2.809  0.7565 -0.4870  0.0993
31841SOL    HW196101   6.634   6.380   2.837 -1.8585 -0.2608 -0.8790
31841SOL    HW296102   6.563   6.277   2.752  1.0371 -3.2968  0.1910
31842SOL     OW96103   7.172   3.155   7.061 -0.4356 -0.7864 -0.5091
31842SOL    HW196104   7.267   3.163   7.061 -0.2200 -0.1144 -5.7637
31842SOL    HW296105   7.140   3.243   7.043 -2.2494 -0.8089  2.0805
31843SOL     OW96106   0.475   9.090   0.119 -0.1011  0.2900  0.1680
31843SOL    HW196107   0.521   9.136   0.189  0.6876  2.3651 -1.6262
31843SOL    HW296108   0.524   9.008   0.108  0.2513  0.3034  1.4532
31844SOL     OW96109   5.815   1.490   1.108 -0.2950 -0.1594  0.2115
31844SOL    HW196110   5.805   1.401   1.076  0.8008  0.0542 -0.8056
31844SOL    HW296111   5.762   1.493   1.188  0.0157 -1.8428  0.5242
31845SOL     OW96112   0.447   8.089   0.206  0.0213 -0.0900  0.1400
31845SOL    HW196113   0.506   8.044   0.145  0.0572  0.8069 -0.5123
31845SOL    HW296114   0.418   8.021   0.266  2.1869 -0.4558  0.8553
31846SOL     OW96115   6.000   5.700   3.591  0.3502  0.3418 -0.2426
31846SOL    HW196116   6.038   5.784   3.567 -1.2043  0.6310 -1.9558
31846SOL    HW296117   6.011   5.645   3.514 -0.3515 -0.3875  0.1506
31847SOL     OW96118   6.512   5.614   5.602  0.3491  0.8796 -0.2523
31847SOL    HW196119   6.422   5.584   5.603  0.8357 -0.6821 -0.6377
31847SOL    HW296120   6.525   5.654   5.688 -0.7905  1.4152 -0.3240
31848SOL     OW96121   9.493   3.259   2.768  0.4103  0.4891  0.0106
31848SOL    HW196122   9.556   3.214   2.825  0.7210  0.2404 -0.5174
31848SOL    HW296123   9.546   3.322   2.719  0.1176  0.8254  0.1230
31849SOL     OW96124   2.628   4.143   2.267 -0.2817 -0.5913 -0.3106
31849SOL    HW196125   2.585   4.229   2.268 -1.0442 -0.9638  0.0926
31849SOL    HW296126   2.712   4.158   2.311 -0.7179 -0.2009  0.4205
31850SOL     OW96127   4.815   2.963   9.395  0.3726 -0.0687 -0.3202
31850SOL    HW196128   4.896   2.959   9.446 -0.3057 -0.3855  0.7744
31850SOL    HW296129   4.841   2.935   9.307  1.4564 -0.1347  0.0046
31851SOL     OW96130   7.351   0.340   5.516 -0.7420 -0.3871  0.0572
31851SOL    HW196131   7.344   0.246   5.534 -1.3149 -0.7365 -1.7521
31851SOL    HW296132   7.264   0.375   5.539 -1.3505 -0.7687 -1.4958
31852SOL     OW96133   2.187   2.965   8.519 -0.6562 -0.1266 -0.1975
31852SOL    HW196134   2.274   2.962   8.558 -0.3961  2.3676 -0.4152
31852SOL    HW296135   2.194   2.910   8.441 -0.4160 -2.9652  1.6946
31853SOL     OW96136   1.801   0.390   0.840  0.5338 -0.5481 -0.5234
31853SOL    HW196137   1.850   0.447   0.898  1.0041 -1.1769 -0.3007
31853SOL    HW296138   1.845   0.306   0.845  0.5340 -0.6434 -1.7199
31854SOL     OW96139   4.126   8.022   2.915 -0.1820  0.0946 -0.2727
31854SOL    HW196140   4.061   7.954   2.897  0.3902 -0.2360 -1.1616
31854SOL    HW296141   4.074   8.097   2.943 -0.8811 -0.4617 -0.0291
31855SOL     OW96142   3.057   0.509   6.072  0.9193 -0.5067 -0.1959
31855SOL    HW196143   2.997   0.439   6.099  0.2756 -1.1017 -2.8773
31855SOL    HW296144   3.144   0.474   6.087  0.5904 -1.2970 -0.0899
31856SOL     OW96145   4.728   2.922   0.096 -0.2225 -0.2082 -0.0767
31856SOL    HW196146   4.787   2.859   0.137  2.3055  0.9288 -1.6988
31856SOL    HW296147   4.708   2.985   0.165  2.0880  0.4255  0.0876
31857SOL     OW96148   3.856   1.781   4.920 -0.6395  0.6155  0.0302
31857SOL    HW196149   3.799   1.857   4.913 -0.1544  1.0573  0.7374
31857SOL    HW296150   3.924   1.796   4.855 -1.0484  0.3294 -0.4701
31858SOL     OW96151   2.521   0.127   3.237  0.2419 -0.0099  0.0020
31858SOL    HW196152   2.574   0.086   3.306  0.2852  0.5146  0.2838
31858SOL    HW296153   2.521   0.220   3.259  0.2934  0.1685 -0.7344
31859SOL     OW96154   9.859   7.991   1.553 -0.1708  0.0709  0.3429
31859SOL    HW196155   9.798   8.060   1.579  0.6319  0.5831  0.8870
31859SOL    HW296156   9.906   8.028   1.478 -2.0257 -1.1526 -1.5505
31860SOL     OW96157   1.536   7.990   3.582  0.0025  0.1753 -0.5046
31860SOL    HW196158   1.495   7.916   3.626  1.5493  0.5592  1.7742
31860SOL    HW296159   1.559   7.957   3.496  1.5887 -2.4190  0.7985
31861SOL     OW96160   3.766   3.802   9.510 -0.1122 -0.5856  0.4974
31861SOL    HW196161   3.698   3.869   9.514 -3.2231 -3.4562  0.2352
31861SOL    HW296162   3.793   3.790   9.601 -1.2267 -0.5505  0.8451
31862SOL     OW96163   7.984   9.919   9.801  0.1214 -0.0123  0.2396
31862SOL    HW196164   8.014   9.869   9.877 -1.6775 -2.7437 -0.7040
31862SOL    HW296165   7.896   9.947   9.823 -0.9261 -1.9270 -1.2050
31863SOL     OW96166   8.133   5.690   2.714 -0.1608 -0.0365 -0.1968
31863SOL    HW196167   8.188   5.611   2.711 -0.4482 -0.2029 -2.5553
31863SOL    HW296168   8.068   5.677   2.646  0.4648  2.6921 -1.4615
31864SOL     OW96169   6.097   1.941   4.689 -0.4390 -0.1832  0.2975
31864SOL    HW196170   6.087   2.024   4.642  1.2353 -0.0686  0.0725
31864SOL    HW296171   6.137   1.882   4.624  1.2982 -0.2190  1.3369
31865SOL     OW96172   9.815   4.495   6.382 -0.2898 -0.1402 -0.6718
31865SOL    HW196173   9.826   4.402   6.406 -0.3850  0.3372  1.4285
31865SOL    HW296174   9.878   4.541   6.437 -0.7606  1.1081 -1.1533
31866SOL     OW96175   7.956   0.619   9.078 -0.2848 -0.3689  0.4230
31866SOL    HW196176   8.039   0.574   9.063 -0.4838 -0.0820 -1.8213
31866SOL    HW296177   7.955   0.636   9.172  1.4939 -1.7070  0.7375
31867SOL     OW96178   8.091   7.523   0.555 -0.4364  0.1157 -0.2126
31867SOL    HW196179   8.021   7.579   0.588  0.1216  0.3895  0.5270
31867SOL    HW296180   8.170   7.576   0.562  0.0309 -0.6166  0.0936
31868SOL     OW96181   0.338   6.307   0.932 -0.5498  0.1228 -0.1269
31868SOL    HW196182   0.431   6.305   0.911 -0.0258  2.0532  1.6325
31868SOL    HW296183   0.294   6.324   0.849  0.8837  1.3831 -0.6587
31869SOL     OW96184   2.141   2.073   2.612  0.5271  0.2237 -0.4528
31869SOL    HW196185   2.138   1.977   2.618  1.2831  0.2354  0.2006
31869SOL    HW296186   2.213   2.099   2.668 -1.1853  1.3721  1.3462
31870SOL     OW96187   9.461   4.108   9.572 -0.4156  0.5765 -0.5120
31870SOL    HW196188   9.368   4.097   9.593 -0.3928  0.3216 -0.5402
31870SOL    HW296189   9.463   4.117   9.476 -0.3665  0.1151 -0.5531
31871SOL     OW96190   5.413   5.420   0.582 -0.4642  0.7094  0.4795
31871SOL    HW196191   5.321   5.441   0.600 -0.9955 -1.3596  0.3592
31871SOL    HW296192   5.442   5.374   0.661  0.1322  0.3259  0.0351
31872SOL     OW96193   2.093   1.921   5.719  0.3931  0.3955  0.2840
31872SOL    HW196194   2.006   1.936   5.756 -0.6325  1.3074 -2.3210
31872SOL    HW296195   2.140   2.003   5.736  0.0374  0.6932 -0.1598
31873SOL     OW96196   0.043   0.875   3.144 -0.6975 -0.3771 -0.4419
31873SOL    HW196197  -0.011   0.797   3.146  0.1822 -1.0590 -1.6937
31873SOL    HW296198   0.008   0.931   3.213 -2.4318 -1.1438 -0.6629
31874SOL     OW96199   9.505   2.082   7.485  0.3554  0.2305 -0.0474
31874SOL    HW196200   9.555   2.026   7.425  1.3192  0.6596  0.3275
31874SOL    HW296201   9.413   2.066   7.463  0.5768 -1.9087  0.4283
31875SOL     OW96202   0.561   7.396   9.907  0.8547  0.0529  0.5145
31875SOL    HW196203   0.608   7.317   9.884  1.3012  0.0826  1.2961
31875SOL    HW296204   0.614   7.468   9.873 -0.3728  0.0134 -1.6984
31876SOL     OW96205   8.432   0.034   8.262 -0.1637 -0.0728  0.2364
31876SOL    HW196206   8.465   0.107   8.210 -2.3474  0.7411 -0.0791
31876SOL    HW296207   8.426   0.068   8.351 -0.9748  0.0772  0.1294
31877SOL     OW96208   6.467   7.809   6.011  0.8119 -0.0990  0.1573
31877SOL    HW196209   6.454   7.776   5.921  0.6415  1.9889 -0.6291
31877SOL    HW296210   6.400   7.763   6.062  0.7210 -1.1145 -0.8261
31878SOL     OW96211   3.591   0.371   4.766 -0.1656 -0.0359  0.4177
31878SOL    HW196212   3.555   0.290   4.730 -0.1639  0.0929  0.1291
31878SOL    HW296213   3.623   0.345   4.853  2.0816 -0.9567 -0.5944
31879SOL     OW96214   5.073   7.695   2.558 -0.2161  0.0838  0.0640
31879SOL    HW196215   5.122   7.686   2.476  1.2668  0.7639  0.8358
31879SOL    HW296216   5.100   7.620   2.610  0.5134  0.7821  0.7255
31880SOL     OW96217   0.401   2.328   0.641  0.0373  0.4011 -0.4056
31880SOL    HW196218   0.415   2.236   0.619 -0.2552 -0.7182  3.4501
31880SOL    HW296219   0.483   2.371   0.615  0.5397 -1.0873 -1.4538
31881SOL     OW96220   2.359   1.642   8.317  0.3786  0.3656  0.3245
31881SOL    HW196221   2.415   1.714   8.348 -0.3622  1.0107  0.1897
31881SOL    HW296222   2.289   1.637   8.381 -0.2149  0.5500 -0.2985
31882SOL     OW96223   6.911   4.915   4.030  0.3071  0.0068  0.1929
31882SOL    HW196224   6.978   4.870   4.082  0.0147 -0.9645 -0.2401
31882SOL    HW296225   6.891   4.854   3.959 -1.7930 -0.2056  0.8983
31883SOL     OW96226   0.580   2.952   5.009  0.0857 -0.8128 -0.2228
31883SOL    HW196227   0.552   2.914   5.092  1.1098 -0.8044  0.1344
31883SOL    HW296228   0.561   3.045   5.017 -4.0383 -1.3223 -1.7414
31884SOL     OW96229   9.900   1.035   3.326  0.0185  0.0706  0.0064
31884SOL    HW196230   9.908   1.032   3.421  0.1483  1.8564  0.0819
31884SOL    HW296231   9.855   1.118   3.308  2.1133  0.9568 -1.5835
31885SOL     OW96232   5.634   3.918   3.391 -0.2171  0.8887  0.7351
31885SOL    HW196233   5.614   3.925   3.484  0.0487  0.5264  0.8238
31885SOL    HW296234   5.580   3.984   3.349  0.5325  1.8779  1.2752
31886SOL     OW96235   9.440   0.678   4.404 -0.2071  0.5488 -0.7520
31886SOL    HW196236   9.433   0.744   4.473 -1.0905  0.4655 -0.7529
31886SOL    HW296237   9.449   0.729   4.324 -1.0534  0.6751 -0.7697
31887SOL     OW96238   1.165   6.803   0.912  0.1931 -0.5496  0.1897
31887SOL    HW196239   1.192   6.712   0.926  1.8697  0.2009  2.3508
31887SOL    HW296240   1.234   6.841   0.858 -1.0084 -0.7518 -1.5718
31888SOL     OW96241   2.843   2.397   5.679  0.2880 -0.2607  0.1748
31888SOL    HW196242   2.800   2.476   5.713  1.0557  0.8652 -1.3137
31888SOL    HW296243   2.795   2.376   5.599  0.0822 -1.3322  0.5693
31889SOL     OW96244   4.320   2.993   4.854 -0.6923  0.1696 -0.2525
31889SOL    HW196245   4.246   2.998   4.914 -0.3818 -0.5011  0.2054
31889SOL    HW296246   4.302   2.916   4.801  0.3458 -0.8473  0.8130
31890SOL     OW96247   2.932   4.332   3.247  0.4623 -0.5398 -0.1320
31890SOL    HW196248   2.839   4.344   3.264  1.0913  2.2545  2.3417
31890SOL    HW296249   2.951   4.243   3.275 -0.6012  0.5561  5.1149
31891SOL     OW96250   8.219   0.920  -0.006 -0.1230  0.2780 -0.3848
31891SOL    HW196251   8.139   0.877   0.025  1.0173 -0.7703  1.2281
31891SOL    HW296252   8.238   0.986   0.062 -1.3879  2.9238 -2.4028
31892SOL     OW96253   3.822   3.772   3.542  0.5537  0.2689  0.8347
31892SOL    HW196254   3.741   3.743   3.499 -1.1011  3.2042  1.6440
31892SOL    HW296255   3.857   3.839   3.483  1.5441  0.1209  1.2505
31893SOL     OW96256   2.623   1.471   6.733 -0.5196  0.8041  0.0341
31893SOL    HW196257   2.673   1.444   6.811  0.4333  1.6005 -0.2805
31893SOL    HW296258   2.564   1.539   6.764  0.0704  1.3320  0.0090
31894SOL     OW96259   6.966   0.224   0.137 -0.1958  0.1179 -0.0410
31894SOL    HW196260   7.046   0.275   0.148  0.5876 -1.2493  0.8484
31894SOL    HW296261   6.957   0.174   0.218 -0.5708 -1.6416 -1.1122
31895SOL     OW96262   5.668   7.873   2.069 -0.0565  0.7433 -0.1481
31895SOL    HW196263   5.744   7.829   2.108  0.0748  0.8103 -0.3242
31895SOL    HW296264   5.685   7.966   2.084  0.4457  0.8356 -1.1448
31896SOL     OW96265   3.585   9.462   0.553  0.3876  0.5234 -0.9575
31896SOL    HW196266   3.622   9.377   0.532  0.8908  0.6653 -0.6619
31896SOL    HW296267   3.518   9.477   0.486 -1.4958 -1.2102  0.4240
31897SOL     OW96268   9.324   0.980   6.693 -0.6455 -0.4018  0.3969
31897SOL    HW196269   9.298   1.062   6.653  1.6925  0.4580  0.4696
31897SOL    HW296270   9.336   0.920   6.619 -3.5522 -1.1500  0.4174
31898SOL     OW96271   7.689   0.905   8.428  0.0920  0.6212 -0.1535
31898SOL    HW196272   7.595   0.923   8.429  0.0350  0.3077  0.2673
31898SOL    HW296273   7.705   0.857   8.509  0.4834  0.0065 -0.5844
31899SOL     OW96274   3.379   1.653   3.461 -0.5936 -0.1122 -0.6088
31899SOL    HW196275   3.399   1.592   3.532 -1.6523 -1.3451 -1.3331
31899SOL    HW296276   3.453   1.715   3.462 -1.1899  0.7485  2.3914
31900SOL     OW96277   2.821   9.113   0.226  0.2345 -0.5575 -0.2306
31900SOL    HW196278   2.840   9.030   0.269  1.1411 -1.0096 -1.4313
31900SOL    HW296279   2.894   9.126   0.165 -1.8094 -0.9155 -3.0025
31901SOL     OW96280   2.942   0.702   4.929  0.1188  0.0324  0.2087
31901SOL    HW196281   2.854   0.738   4.927  0.7771  1.7999  1.1705
31901SOL    HW296282   2.938   0.630   4.992 -0.6936 -0.0598  0.0524
31902SOL     OW96283   6.629   3.342   1.101 -0.2452  0.2441 -0.6869
31902SOL    HW196284   6.593   3.360   1.015 -1.3767  0.0617 -0.2736
31902SOL    HW296285   6.556   3.358   1.161 -0.5737 -2.9482 -0.0529
31903SOL     OW96286   8.420   4.413   3.245 -0.3458  0.1249  0.2055
31903SOL    HW196287   8.478   4.479   3.283  0.5277 -1.4061  1.6779
31903SOL    HW296288   8.354   4.399   3.313 -2.1236  1.3357 -1.1679
31904SOL     OW96289   4.708   8.050   6.058 -0.3724  0.3325 -0.1842
31904SOL    HW196290   4.644   8.109   6.017 -0.0145  0.1378 -1.0507
31904SOL    HW296291   4.655   7.977   6.091 -0.7031  0.6486 -0.0108
31905SOL     OW96292   4.192   7.645   5.781  0.0604  0.4769 -0.1182
31905SOL    HW196293   4.172   7.555   5.754  0.0944  0.2491  0.5972
31905SOL    HW296294   4.110   7.677   5.819  0.5144  0.1621  1.1696
31906SOL     OW96295   8.813   3.912   1.378  0.1373  0.5671  0.2652
31906SOL    HW196296   8.786   3.918   1.470  1.6894  1.9295  0.6681
31906SOL    HW296297   8.808   4.001   1.345  0.3891  0.2184 -0.7572
31907SOL     OW96298   6.720   9.307   4.385 -0.3321 -0.0167  0.4897
31907SOL    HW196299   6.726   9.216   4.356 -0.7969  0.0959  0.0227
31907SOL    HW296300   6.809   9.331   4.410 -0.0947 -0.4065  0.0139
31908SOL     OW96301   9.054   6.756   4.056  0.0680 -0.3738 -0.3000
31908SOL    HW196302   9.098   6.834   4.023 -0.2336  0.5907  1.4468
31908SOL    HW296303   8.998   6.788   4.127  0.2443 -2.2224  0.7527
31909SOL     OW96304   9.379   1.490   9.775  0.0804 -0.1811 -0.4219
31909SOL    HW196305   9.342   1.578   9.785  0.9613  0.2837 -1.0151
31909SOL    HW296306   9.373   1.473   9.681 -0.8004 -1.0958 -0.2117
31910SOL     OW96307   7.308   7.346   2.302 -0.2700 -0.1637 -0.2383
31910SOL    HW196308   7.240   7.360   2.236 -1.6626 -0.5607  1.0515
31910SOL    HW296309   7.384   7.318   2.251 -1.2143 -0.2279 -1.7055
31911SOL     OW96310   3.222   1.411   3.319 -0.0765 -0.5610  0.1538
31911SOL    HW196311   3.273   1.479   3.362  0.5873 -0.0185 -1.4024
31911SOL    HW296312   3.167   1.373   3.388  0.3628  0.7849  1.2668
31912SOL     OW96313   0.590   2.629   9.521  0.0988 -0.4707 -0.2135
31912SOL    HW196314   0.684   2.647   9.518  0.1485 -0.6054  0.4385
31912SOL    HW296315   0.548   2.714   9.506  0.3209 -0.3826 -0.3396
31913SOL     OW96316   6.046   0.753   6.995  0.4575 -0.5440  0.3575
31913SOL    HW196317   6.068   0.846   6.993 -0.4554 -0.3243 -0.5631
31913SOL    HW296318   5.954   0.752   7.021  0.4962 -1.2035  0.4672
31914SOL     OW96319   1.670   4.573   0.630  0.3613  0.1580  0.5104
31914SOL    HW196320   1.588   4.584   0.677 -0.4808 -0.0939 -0.8485
31914SOL    HW296321   1.648   4.518   0.555  2.1579 -1.4970  1.0928
31915SOL     OW96322   4.413   3.427   6.689  0.0010  0.2494  0.0007
31915SOL    HW196323   4.383   3.490   6.755 -1.3192 -0.9684  0.6081
31915SOL    HW296324   4.461   3.361   6.739  0.0913 -0.0059 -0.4209
31916SOL     OW96325   3.271   7.684   2.468 -0.1026 -0.0018 -0.0534
31916SOL    HW196326   3.317   7.601   2.485  0.9927  0.6079  0.0682
31916SOL    HW296327   3.312   7.717   2.388 -0.4008  0.5208  0.0092
31917SOL     OW96328   3.784   2.081   6.960  0.1905 -0.8141 -0.1820
31917SOL    HW196329   3.863   2.110   6.914  2.1842 -3.6804  1.1125
31917SOL    HW296330   3.722   2.059   6.890  1.4195 -0.6982 -1.3546
31918SOL     OW96331   3.481   2.364   9.104 -0.2116  0.0134  0.5746
31918SOL    HW196332   3.570   2.338   9.079 -0.5091  0.8803 -1.6395
31918SOL    HW296333   3.490   2.451   9.141 -0.1023  0.0138  0.5468
31919SOL     OW96334   3.064   1.005   5.619  1.0631 -0.5573  0.3422
31919SOL    HW196335   2.999   0.975   5.682  0.3881 -0.6231 -0.3624
31919SOL    HW296336   3.056   0.943   5.546 -0.7990  1.6168 -1.4420
31920SOL     OW96337   4.980   0.473   5.674  0.3006 -0.2846 -0.1889
31920SOL    HW196338   4.992   0.379   5.660 -0.7731 -0.6581  1.2432
31920SOL    HW296339   4.927   0.501   5.599 -0.1059 -0.9922 -0.1746
31921SOL     OW96340   8.939   9.050   5.175 -0.0648  0.2130  0.1679
31921SOL    HW196341   9.019   9.034   5.125  1.1162  0.3511  1.9361
31921SOL    HW296342   8.880   8.978   5.149  1.6132 -1.4672  0.7830
31922SOL     OW96343   9.966   0.319   8.261  1.0110 -0.0393 -1.1616
31922SOL    HW196344   9.914   0.358   8.190 -1.2606 -2.8505 -1.2742
31922SOL    HW296345  10.030   0.264   8.216  1.0746 -0.0721 -1.0317
31923SOL     OW96346   2.202   4.139   4.501  0.8066 -0.4534 -0.4872
31923SOL    HW196347   2.185   4.170   4.590  0.0614 -1.1427 -0.3765
31923SOL    HW296348   2.144   4.192   4.446 -0.2346 -1.4067 -0.3322
31924SOL     OW96349   6.759   5.724   3.961  0.3310 -0.1076 -0.0045
31924SOL    HW196350   6.681   5.771   3.991 -1.0727 -0.2510 -3.0540
31924SOL    HW296351   6.741   5.632   3.980 -0.2619 -0.1302 -0.6296
31925SOL     OW96352   6.646   0.016   4.168  0.6170  0.4211  0.2331
31925SOL    HW196353   6.652   0.073   4.091 -1.4262 -0.0659 -0.3568
31925SOL    HW296354   6.554   0.022   4.195  0.6525 -1.5510  0.9478
31926SOL     OW96355   4.113   5.660   5.611 -0.6181  0.1082  0.0364
31926SOL    HW196356   4.115   5.755   5.602 -1.4717 -0.0438 -2.3278
31926SOL    HW296357   4.201   5.632   5.585  0.1542  0.2943  2.2592
31927SOL     OW96358   9.336   0.201   7.422  0.1882 -0.1438  0.1239
31927SOL    HW196359   9.356   0.201   7.515  0.7130 -0.6217  0.0120
31927SOL    HW296360   9.281   0.124   7.409  0.7078 -0.4829 -0.0848
31928SOL     OW96361   7.496   8.256   6.100 -0.1728 -0.1530 -0.3077
31928SOL    HW196362   7.426   8.217   6.151 -0.7135 -0.7523 -1.4689
31928SOL    HW296363   7.462   8.340   6.072 -0.1731 -0.1557 -0.3152
31929SOL     OW96364   4.785   9.516   8.495 -0.3717  0.3185 -0.1952
31929SOL    HW196365   4.727   9.585   8.463  0.3253  0.1536 -1.9461
31929SOL    HW296366   4.787   9.451   8.424  0.7153 -0.4288  0.4801
31930SOL     OW96367   0.478   7.511   8.518  0.6577  0.1212 -0.2039
31930SOL    HW196368   0.501   7.423   8.548  0.5015  0.1365 -0.0372
31930SOL    HW296369   0.521   7.520   8.433  0.5530 -0.1704 -0.2862
31931SOL     OW96370   1.878   3.359   9.498 -0.0889  0.6704  0.1214
31931SOL    HW196371   1.971   3.341   9.503  0.1862  1.8841 -0.1731
31931SOL    HW296372   1.842   3.326   9.580  0.9595  2.0770  1.2015
31932SOL     OW96373   6.914   4.614   5.295 -0.0585 -0.6064 -0.1495
31932SOL    HW196374   6.854   4.687   5.280  0.3232  1.0141  4.5780
31932SOL    HW296375   7.000   4.655   5.305  0.3631 -1.7574  1.4578
31933SOL     OW96376   4.887   5.008   6.138  0.1573  0.0995  0.0188
31933SOL    HW196377   4.857   4.944   6.202 -1.0288 -0.3482 -0.9445
31933SOL    HW296378   4.924   5.079   6.191  0.5400 -0.8946  1.1368
31934SOL     OW96379   9.003   4.570   5.178 -0.4491 -0.1097 -0.3050
31934SOL    HW196380   9.042   4.609   5.256  0.6757 -0.0944 -0.8527
31934SOL    HW296381   8.957   4.642   5.136 -2.6645 -0.5114  1.2721
31935SOL     OW96382   0.584   9.606   4.325  0.4575 -0.6693  0.0819
31935SOL    HW196383   0.665   9.640   4.364 -0.0841  0.0510  0.6156
31935SOL    HW296384   0.515   9.650   4.374 -0.2537 -0.6633 -0.9122
31936SOL     OW96385   9.260   9.643   2.792  0.9073 -0.0841  0.2422
31936SOL    HW196386   9.275   9.568   2.735 -0.2966 -0.8730  0.9455
31936SOL    HW296387   9.186   9.689   2.753  0.9779  0.1670  0.4000
31937SOL     OW96388   9.250   3.662   8.132  0.1672 -0.3301  0.6127
31937SOL    HW196389   9.316   3.593   8.117  0.8427  0.1878  1.1251
31937SOL    HW296390   9.197   3.628   8.205 -0.0886 -0.7161  0.2497
31938SOL     OW96391   3.381   6.742   5.603  0.2204  0.3233  0.0769
31938SOL    HW196392   3.306   6.701   5.561  0.0635  0.8535 -0.1734
31938SOL    HW296393   3.373   6.719   5.696 -0.8227  1.2226  0.2233
31939SOL     OW96394   2.026   1.623   4.966 -0.2135  0.6700 -0.7538
31939SOL    HW196395   1.960   1.555   4.951 -0.1858  0.2485  0.8484
31939SOL    HW296396   1.989   1.702   4.926 -1.6860  0.4426  0.0952
31940SOL     OW96397   9.095   5.400   9.502  0.2693 -0.0588 -0.2343
31940SOL    HW196398   9.040   5.459   9.554  0.2415 -0.0224 -0.3041
31940SOL    HW296399   9.072   5.421   9.411 -1.9039 -2.1535 -0.2675
31941SOL     OW96400   1.975   7.197   5.939 -0.4467  0.1652 -0.5074
31941SOL    HW196401   2.043   7.263   5.922  0.1555 -0.3222 -0.0633
31941SOL    HW296402   1.993   7.127   5.877 -1.0630  0.3978 -0.9547
31942SOL     OW96403   5.072   8.353   4.248  0.6959  0.3626  0.1140
31942SOL    HW196404   5.151   8.357   4.194  0.4292  0.7560 -0.2488
31942SOL    HW296405   5.027   8.436   4.233  0.4032  0.3030  0.6140
31943SOL     OW96406   3.840   1.889   0.277  0.1287 -0.1029 -0.2624
31943SOL    HW196407   3.779   1.886   0.351 -0.1986 -0.2246 -0.5360
31943SOL    HW296408   3.803   1.828   0.214  0.1553  0.3473 -0.7200
31944SOL     OW96409   4.554   8.423   1.117 -0.4755 -0.6059  0.0254
31944SOL    HW196410   4.458   8.427   1.119 -0.5281 -0.4985 -1.5297
31944SOL    HW296411   4.575   8.381   1.033  0.8407 -0.6039  0.3332
31945SOL     OW96412   8.394   4.719   7.771  0.0121  0.4439 -0.1413
31945SOL    HW196413   8.476   4.737   7.817 -0.5934  0.3783  0.9859
31945SOL    HW296414   8.331   4.781   7.807 -0.5275  0.2773 -0.7611
31946SOL     OW96415   2.016   9.030   3.361 -0.1976  0.1260 -0.3347
31946SOL    HW196416   1.969   8.996   3.437  1.8088  2.3763  2.1101
31946SOL    HW296417   1.947   9.057   3.301 -2.0726  1.5128  2.2392
31947SOL     OW96418   9.761   3.461   4.469 -0.3702  0.0425 -0.1513
31947SOL    HW196419   9.733   3.545   4.433 -2.5018 -1.0416 -1.2125
31947SOL    HW296420   9.784   3.481   4.560  0.1769  1.9267 -0.6603
31948SOL     OW96421   0.989   2.118   3.089  0.1095  0.4503 -0.5128
31948SOL    HW196422   1.058   2.059   3.061  0.2771  0.1767  0.4431
31948SOL    HW296423   1.019   2.152   3.174 -0.5746  0.9147 -0.4455
31949SOL     OW96424   2.798   3.121   9.426 -0.0830  0.2117  0.4204
31949SOL    HW196425   2.727   3.060   9.447 -0.9271  1.2073  0.5635
31949SOL    HW296426   2.771   3.162   9.344 -0.1683  1.3176  0.9843
31950SOL     OW96427   5.646   6.465   1.244  0.1454  0.5433  0.3046
31950SOL    HW196428   5.670   6.444   1.335 -2.9740 -2.2830  0.6730
31950SOL    HW296429   5.637   6.560   1.243  4.7081  1.2404  1.5782
31951SOL     OW96430   0.485   7.716   3.251  0.3144 -0.0334  0.4289
31951SOL    HW196431   0.528   7.781   3.195  1.3176  1.0372  2.3071
31951SOL    HW296432   0.440   7.768   3.318 -0.1188 -1.2515  1.1178
31952SOL     OW96433   2.410   7.094   9.737  0.6269  0.0767  0.0310
31952SOL    HW196434   2.392   7.073   9.829 -0.2362 -0.8206 -0.3149
31952SOL    HW296435   2.443   7.012   9.700 -2.5747 -0.7731 -1.3035
31953SOL     OW96436   7.421   4.306   3.725 -0.0415  0.1325 -0.1531
31953SOL    HW196437   7.451   4.377   3.783 -3.0074  1.5419 -0.1494
31953SOL    HW296438   7.474   4.315   3.646 -0.7402  2.8066 -0.3915
31954SOL     OW96439   9.893   1.081   3.722  0.6845 -0.1940 -0.1957
31954SOL    HW196440   9.810   1.106   3.763  0.2189  0.4371 -1.4661
31954SOL    HW296441   9.882   0.988   3.702  0.9618 -0.5389  1.1746
31955SOL     OW96442   1.080   0.835   0.390  0.1081 -0.1678  0.1024
31955SOL    HW196443   1.136   0.897   0.343 -0.9125 -0.0600 -1.0378
31955SOL    HW296444   1.109   0.840   0.481  1.2579  0.6247 -0.2887
31956SOL     OW96445   1.612   6.873   9.939 -0.1787  0.3035 -0.1926
31956SOL    HW196446   1.563   6.910   9.866  0.8654 -0.2004 -1.1862
31956SOL    HW296447   1.703   6.881   9.913  0.1547 -1.2633  0.3696
31957SOL     OW96448   8.454   5.397   9.782  0.4803 -0.3977  0.0397
31957SOL    HW196449   8.514   5.338   9.736 -0.7018 -1.1993 -0.5081
31957SOL    HW296450   8.417   5.452   9.714  1.8793  1.3058  0.5974
31958SOL     OW96451   7.454   2.744   4.783  0.0340  0.3108 -0.4218
31958SOL    HW196452   7.408   2.752   4.699  0.1608  1.5908 -0.3913
31958SOL    HW296453   7.386   2.716   4.845 -0.0565 -0.6590 -0.9333
31959SOL     OW96454   8.865   0.724   3.886  0.2043  0.3872 -0.2966
31959SOL    HW196455   8.926   0.652   3.870  0.6903  0.3200  1.6198
31959SOL    HW296456   8.814   0.695   3.961 -1.0949  1.1498 -0.8612
31960SOL     OW96457   4.446   3.032   1.747 -0.4180 -0.6906  0.1825
31960SOL    HW196458   4.392   2.968   1.700 -0.8495 -0.4098  0.2951
31960SOL    HW296459   4.512   3.059   1.683 -0.3731 -1.0717  0.0613
31961SOL     OW96460   0.425   3.352   6.532  0.2991 -0.5510  0.4106
31961SOL    HW196461   0.364   3.396   6.593  0.2611  0.5604 -0.3910
31961SOL    HW296462   0.501   3.332   6.586 -0.5325 -1.4324  1.2973
31962SOL     OW96463   0.753   4.110   9.302  0.2081 -0.0380 -0.6599
31962SOL    HW196464   0.794   4.025   9.316 -0.1899 -0.0576  0.5250
31962SOL    HW296465   0.825   4.167   9.275  0.2222 -1.0671 -2.9848
31963SOL     OW96466   5.045   4.254   0.592  0.5611 -0.6797  0.4200
31963SOL    HW196467   5.031   4.301   0.673  0.3430  1.4038 -0.7673
31963SOL    HW296468   5.125   4.291   0.555 -0.4450 -0.0763 -1.2936
31964SOL     OW96469   0.279   8.375   2.074  0.3142  0.3367 -0.5908
31964SOL    HW196470   0.291   8.280   2.078 -0.2773  0.1476 -2.4146
31964SOL    HW296471   0.201   8.391   2.126 -2.4920 -0.8791 -4.0312
31965SOL     OW96472   1.064   2.586   2.781  0.1557 -0.4372  0.5811
31965SOL    HW196473   1.101   2.499   2.795  0.1308 -0.3576  1.1662
31965SOL    HW296474   1.122   2.645   2.828 -0.5005 -0.2732  1.2088
31966SOL     OW96475   8.609   8.524   0.842 -0.0971  0.2268  0.0378
31966SOL    HW196476   8.570   8.538   0.929  0.9966  0.9124  0.4479
31966SOL    HW296477   8.672   8.454   0.855  1.3514  1.5142  0.2508
31967SOL     OW96478   3.850   7.536   1.760  0.0042  0.0940  0.0694
31967SOL    HW196479   3.842   7.482   1.840  0.2635  2.4497  1.7838
31967SOL    HW296480   3.865   7.472   1.690 -2.8382 -2.3036  1.4124
31968SOL     OW96481   6.112   0.316   6.493  0.1832 -0.3320 -0.2919
31968SOL    HW196482   6.124   0.344   6.583  0.4537  1.2764 -0.8068
31968SOL    HW296483   6.181   0.251   6.479 -0.0353 -0.8022  0.7203
31969SOL     OW96484   8.093   9.873   6.911  0.2154 -0.1398 -0.1272
31969SOL    HW196485   8.009   9.918   6.903 -0.2910 -0.5833  1.9220
31969SOL    HW296486   8.158   9.937   6.884 -0.7556  0.2774 -1.5773
31970SOL     OW96487   4.874   8.812   7.336 -0.0617 -0.0918 -0.0486
31970SOL    HW196488   4.823   8.733   7.316  1.3861 -0.9120 -0.6062
31970SOL    HW296489   4.919   8.791   7.417  1.0570 -0.2191 -0.6851
31971SOL     OW96490   2.239   7.274   6.090 -0.0442  0.0649 -0.0835
31971SOL    HW196491   2.196   7.191   6.066  2.9682 -1.7705  0.3130
31971SOL    HW296492   2.193   7.302   6.169 -1.3816 -1.0384 -0.4203
31972SOL     OW96493   5.705   9.103   0.980  0.0501 -0.4972 -0.7368
31972SOL    HW196494   5.695   9.194   0.952  0.0361 -0.4031 -0.4303
31972SOL    HW296495   5.636   9.056   0.934 -1.9442  0.1470  1.4196
31973SOL     OW96496   4.036   0.989   7.970  0.1047 -0.0839 -0.1416
31973SOL    HW196497   4.066   0.973   7.881 -0.5808 -0.1375 -0.3669
31973SOL    HW296498   4.071   1.076   7.992  0.5470 -0.2105 -0.3372
31974SOL     OW96499   8.505   5.170   1.981  0.5698  0.3452  0.0647
31974SOL    HW196500   8.498   5.191   1.887  0.9121  1.0662  0.1925
31974SOL    HW296501   8.445   5.097   1.994 -0.3085  0.9543 -0.5029
31975SOL     OW96502   0.402   2.195   1.942 -0.8977 -0.0336 -0.2338
31975SOL    HW196503   0.388   2.242   2.024 -0.9395 -0.4922  0.0311
31975SOL    HW296504   0.354   2.244   1.876  1.2434  1.8379 -0.5020
31976SOL     OW96505   7.381   8.861   5.381 -0.1243  0.2455  0.2961
31976SOL    HW196506   7.476   8.848   5.378 -0.1468  0.0787 -2.5372
31976SOL    HW296507   7.348   8.812   5.305 -2.7344 -1.3750  2.3147
31977SOL     OW96508   5.641   1.889   2.913 -0.0934 -0.4605 -0.8448
31977SOL    HW196509   5.567   1.879   2.854 -1.2070  2.2583 -0.1008
31977SOL    HW296510   5.710   1.926   2.859 -0.2476 -0.3614 -0.9751
31978SOL     OW96511   0.951   3.241   7.271 -0.1521  0.1053 -0.4463
31978SOL    HW196512   1.002   3.295   7.211  0.6639  0.2284  0.3404
31978SOL    HW296513   1.009   3.169   7.293  0.2440  0.9977  1.5806
31979SOL     OW96514   2.481   6.313   1.117  0.2036  0.3768 -0.6772
31979SOL    HW196515   2.436   6.232   1.095 -0.4625  0.6384 -0.3184
31979SOL    HW296516   2.546   6.287   1.183 -1.3906  0.4279  0.9931
31980SOL     OW96517   0.538   2.904   8.405 -0.8799 -0.3832  0.1202
31980SOL    HW196518   0.592   2.949   8.340 -1.4976 -0.6792 -0.6093
31980SOL    HW296519   0.578   2.818   8.414 -1.2724 -0.6309 -0.4801
31981SOL     OW96520   6.665   5.692   9.184  0.3660  0.4683 -0.1552
31981SOL    HW196521   6.690   5.627   9.118  2.0624 -0.1888  1.0375
31981SOL    HW296522   6.730   5.762   9.176 -0.7670  1.4902 -0.6653
31982SOL     OW96523   7.746   3.106   6.507 -0.4351  0.1437 -0.3850
31982SOL    HW196524   7.654   3.084   6.491 -0.2057  0.4096 -2.2255
31982SOL    HW296525   7.772   3.048   6.579 -1.9673 -0.0957  0.0066
31983SOL     OW96526   1.405   3.341   9.039  0.0773 -0.8157  0.1596
31983SOL    HW196527   1.338   3.409   9.030 -0.2953 -1.2500 -0.5132
31983SOL    HW296528   1.451   3.342   8.955  0.5144 -0.9271  0.3979
31984SOL     OW96529   0.122   2.750   7.396  0.0928 -0.3278  0.1805
31984SOL    HW196530   0.074   2.767   7.477 -0.3803 -1.0190  0.0558
31984SOL    HW296531   0.054   2.744   7.329  0.3972 -0.7460 -0.0985
31985SOL     OW96532   8.902   8.039   5.012 -0.0592 -0.2456 -0.1691
31985SOL    HW196533   8.929   8.124   5.044 -2.1220  0.5949 -0.4906
31985SOL    HW296534   8.928   8.038   4.920  1.1964 -0.5368  0.1818
31986SOL     OW96535   7.969   6.050   7.297  0.9319  0.4647 -0.4060
31986SOL    HW196536   7.892   6.010   7.338  1.7924 -1.2320 -0.3240
31986SOL    HW296537   7.956   6.144   7.308 -0.7376  0.1984  0.3014
31987SOL     OW96538   4.018   1.110   3.735 -0.0752 -0.2227  0.3759
31987SOL    HW196539   3.971   1.138   3.814 -0.4034  0.1495  0.0565
31987SOL    HW296540   3.951   1.064   3.683  0.5018 -1.7913  0.9772
31988SOL     OW96541   8.487   9.237   8.524  0.4322 -0.0338 -0.0774
31988SOL    HW196542   8.423   9.183   8.477  0.0950 -0.6958  1.1018
31988SOL    HW296543   8.452   9.326   8.520 -0.9999 -0.4931  1.2130
31989SOL     OW96544   0.970   1.881   9.415 -0.2987  1.0103  0.1745
31989SOL    HW196545   1.040   1.864   9.477 -0.9766  0.8708  0.9210
31989SOL    HW296546   0.943   1.794   9.385  1.1579  1.1295 -1.6418
31990SOL     OW96547   0.936   7.880   8.480  0.5539 -0.2926 -0.0433
31990SOL    HW196548   0.998   7.856   8.411  0.1017 -1.1035 -0.1697
31990SOL    HW296549   0.876   7.807   8.486 -0.5680  0.6015 -0.1047
31991SOL     OW96550   9.006   1.819   4.339 -0.4511 -0.2399 -0.1518
31991SOL    HW196551   9.051   1.873   4.405  0.8043 -1.6632  0.2224
31991SOL    HW296552   9.027   1.862   4.256  0.3072  0.0205  0.1564
31992SOL     OW96553   9.073   8.883   9.392 -0.1746  0.3923  0.1360
31992SOL    HW196554   9.071   8.979   9.386  0.2566  0.5351  1.8538
31992SOL    HW296555   8.997   8.860   9.445  0.2256 -0.1359  0.4964
31993SOL     OW96556   7.041   9.171   5.166  0.5034 -0.3564 -0.4450
31993SOL    HW196557   6.992   9.133   5.239  2.1585 -0.5116  0.6402
31993SOL    HW296558   7.065   9.258   5.195  0.8169 -0.2550 -0.9826
31994SOL     OW96559   3.424   2.690   2.860 -0.6860 -0.9262  0.0021
31994SOL    HW196560   3.363   2.761   2.880 -2.1120 -2.0696 -0.0325
31994SOL    HW296561   3.496   2.702   2.922 -1.2955  0.0629  0.5590
31995SOL     OW96562   7.840   9.151   8.939 -0.0325 -0.4112  0.0816
31995SOL    HW196563   7.913   9.142   8.879 -0.0589 -0.4168  0.0509
31995SOL    HW296564   7.874   9.203   9.012 -0.4374  0.8938 -0.6399
31996SOL     OW96565   0.318   0.446   6.528 -0.2668 -0.1528 -0.4236
31996SOL    HW196566   0.363   0.530   6.529 -0.1640 -0.0716 -3.0677
31996SOL    HW296567   0.227   0.468   6.510 -0.3020 -0.5654 -0.7732
31997SOL     OW96568   7.008   8.838   4.647 -0.0733  0.0300  0.2243
31997SOL    HW196569   7.031   8.827   4.739  0.1850  2.0176  0.4202
31997SOL    HW296570   6.964   8.923   4.642  1.4648  0.7881 -1.7363
31998SOL     OW96571   2.696   9.940   2.194 -0.6395  0.2408  0.6707
31998SOL    HW196572   2.766   9.968   2.253 -0.4089  0.4388  0.3143
31998SOL    HW296573   2.723   9.854   2.162  0.4727  1.1500 -1.0177
31999SOL     OW96574   2.035   4.883   0.690  0.1070 -0.3675  0.1566
31999SOL    HW196575   2.076   4.946   0.631 -0.1372  0.9792  1.3828
31999SOL    HW296576   1.948   4.870   0.652 -0.2233  0.8554  0.4400
32000SOL     OW96577   4.195   5.733   7.799  0.4651 -0.3236  0.6353
32000SOL    HW196578   4.153   5.768   7.878 -0.9885  1.2282 -0.7418
32000SOL    HW296579   4.150   5.651   7.782  1.0040 -0.8265  1.5727
32001SOL     OW96580   9.509   5.642   5.908  0.5701  0.1036 -0.1430
32001SOL    HW196581   9.576   5.631   5.976  0.9109 -0.4476 -0.5582
32001SOL    HW296582   9.522   5.568   5.850  0.2599  0.5517 -0.7966
32002SOL     OW96583   2.225   1.920   1.675 -0.5674 -0.3728  0.3256
32002SOL    HW196584   2.260   1.902   1.762 -0.2857 -0.5905  0.1702
32002SOL    HW296585   2.166   1.994   1.687 -0.5538 -0.4234  0.7071
32003SOL     OW96586   0.840   7.136   8.256  0.1625  0.0970 -0.2589
32003SOL    HW196587   0.819   7.167   8.168  0.8119  1.2045 -0.0419
32003SOL    HW296588   0.757   7.101   8.290 -0.0232 -0.6128 -1.4004
32004SOL     OW96589   1.676   5.138   2.221  0.1273 -0.0108 -0.3516
32004SOL    HW196590   1.620   5.195   2.273 -0.5566  1.0936 -2.2179
32004SOL    HW296591   1.620   5.065   2.196  0.8578 -1.3103  1.5935
32005SOL     OW96592   4.542   3.768   9.878 -0.0765 -0.2029 -0.1709
32005SOL    HW196593   4.547   3.863   9.867 -0.8488 -0.2157 -0.6715
32005SOL    HW296594   4.621   3.746   9.928  1.2097  0.4470 -1.8006
32006SOL     OW96595   3.172   6.020   8.551 -0.0973  0.3782 -0.0312
32006SOL    HW196596   3.246   6.033   8.610 -0.7883  0.3405  0.8700
32006SOL    HW296597   3.142   5.930   8.569 -1.3078  0.9080  0.7505
32007SOL     OW96598   1.317   1.081   4.416  0.3964 -0.8720  0.1070
32007SOL    HW196599   1.276   1.163   4.388  0.8841 -0.7147 -0.1682
32007SOL    HW296600   1.257   1.013   4.386  1.3804 -0.7785 -2.3277
32008SOL     OW96601   2.147   3.279   9.572 -0.0155 -0.2746  0.1116
32008SOL    HW196602   2.210   3.336   9.528  0.8236 -0.1514  1.4039
32008SOL    HW296603   2.174   3.190   9.548 -0.2171 -0.1855 -0.4568
32009SOL     OW96604   5.153   7.056   8.702 -0.7557  0.0316  0.2907
32009SOL    HW196605   5.136   6.968   8.736 -0.5672  0.7846  2.4754
32009SOL    HW296606   5.248   7.067   8.712 -0.5386 -0.0346 -1.3900
32010SOL     OW96607   4.028   4.887   3.232  0.1405  0.0773  0.0677
32010SOL    HW196608   4.017   4.796   3.257 -2.7196  0.3347  0.1319
32010SOL    HW296609   3.995   4.891   3.142 -1.3763  1.2628  0.6166
32011SOL     OW96610   5.052   2.958  -0.021  0.2548 -0.5657 -0.0152
32011SOL    HW196611   5.090   2.977   0.065  1.8488 -0.5141 -0.6885
32011SOL    HW296612   5.089   2.873  -0.044  0.2610 -0.3392 -0.8676
32012SOL     OW96613   5.349   9.985   2.808 -0.4771 -0.3843 -0.0883
32012SOL    HW196614   5.314   9.929   2.877 -1.7035  0.6032  0.1177
32012SOL    HW296615   5.433   9.944   2.785 -0.3278 -1.0767  1.5414
32013SOL     OW96616   0.009   5.816   4.924  0.2299 -0.0191 -0.0280
32013SOL    HW196617   0.018   5.721   4.934  1.6605  0.3496  3.9709
32013SOL    HW296618   0.024   5.831   4.831  1.6436 -3.5568 -0.5592
32014SOL     OW96619   4.423   6.429   2.457  0.0645  0.4334  0.0072
32014SOL    HW196620   4.508   6.421   2.500 -0.5586 -1.1141  1.0845
32014SOL    HW296621   4.408   6.343   2.417 -1.4710  0.2744  0.8423
32015SOL     OW96622   0.070   6.418   5.129  0.3016  0.2561 -0.0438
32015SOL    HW196623   0.031   6.337   5.162  0.2370  0.1766 -0.3052
32015SOL    HW296624  -0.001   6.459   5.079  1.1074 -0.8902 -2.2685
32016SOL     OW96625   6.341   9.307   2.779  0.1795 -0.1456  0.5050
32016SOL    HW196626   6.317   9.253   2.854 -1.9344 -0.5245 -0.3916
32016SOL    HW296627   6.359   9.393   2.817 -2.5300  0.1489  1.3505
32017SOL     OW96628   6.794   4.515   0.542 -0.3370 -0.5417 -0.3130
32017SOL    HW196629   6.780   4.606   0.565 -0.3431 -0.3359 -1.1115
32017SOL    HW296630   6.780   4.511   0.448 -0.3746 -1.3750 -0.2852
32018SOL     OW96631   4.360   2.019   5.762  0.2562  0.2524  0.0507
32018SOL    HW196632   4.343   2.067   5.843 -0.3594 -0.7372  0.5293
32018SOL    HW296633   4.295   1.948   5.762  0.9036 -0.3637 -0.8072
32019SOL     OW96634   0.251   7.659   9.128 -0.1524  0.5665 -0.3988
32019SOL    HW196635   0.155   7.667   9.132 -0.5066 -2.6782  2.1484
32019SOL    HW296636   0.281   7.698   9.210  0.4262 -0.4489 -0.1075
32020SOL     OW96637   3.139   2.645   1.830  0.5496 -0.1413  0.4886
32020SOL    HW196638   3.078   2.586   1.784 -1.7214  1.1838  1.6271
32020SOL    HW296639   3.167   2.594   1.906  1.2576 -0.9237 -0.2681
32021SOL     OW96640   3.604   8.974   3.745  0.0463 -0.5202  0.3945
32021SOL    HW196641   3.656   8.902   3.782 -0.0195 -0.8321 -0.1205
32021SOL    HW296642   3.525   8.976   3.799  0.1221 -0.7229  0.5135
32022SOL     OW96643   7.000   1.423   6.530 -0.2390 -0.0613  0.0592
32022SOL    HW196644   6.918   1.387   6.496  0.1369  0.1991 -1.1887
32022SOL    HW296645   7.047   1.453   6.452  0.2975  1.3707  0.8819
32023SOL     OW96646   5.961   3.376   1.218 -0.4605 -0.0377  0.3284
32023SOL    HW196647   5.915   3.437   1.277  0.2193 -0.2825  1.1344
32023SOL    HW296648   5.995   3.431   1.148 -1.5036  0.2260  0.0052
32024SOL     OW96649   6.351   5.160   2.244 -0.2108 -0.3242  0.3189
32024SOL    HW196650   6.446   5.167   2.236 -0.0521  0.2308  2.2392
32024SOL    HW296651   6.317   5.225   2.182  0.5896 -1.1756 -1.0822
32025SOL     OW96652   8.295   9.104   8.368  0.3647 -0.0878 -0.1202
32025SOL    HW196653   8.316   9.053   8.290 -0.1141  1.1295 -1.0712
32025SOL    HW296654   8.204   9.130   8.357  0.7597  1.4870  0.0044
32026SOL     OW96655   3.519   3.262   6.155  0.3517  0.2059  0.1302
32026SOL    HW196656   3.551   3.173   6.168  0.0923 -0.0764 -1.0581
32026SOL    HW296657   3.548   3.286   6.067  0.6598  1.4106  0.5367
32027SOL     OW96658   9.322   1.754   2.032  0.0192  0.1991 -0.5792
32027SOL    HW196659   9.251   1.697   2.060  0.9776 -0.1214  1.3680
32027SOL    HW296660   9.314   1.832   2.087  1.5412 -0.1360  0.1772
32028SOL     OW96661   8.477   1.463   7.115 -0.6369  0.3087 -0.6594
32028SOL    HW196662   8.490   1.555   7.094  0.5288  0.3269  0.0439
32028SOL    HW296663   8.471   1.460   7.211 -2.0247 -0.2060 -0.7319
32029SOL     OW96664   1.429   6.515   7.444  0.0627 -0.2776  0.3764
32029SOL    HW196665   1.366   6.475   7.505  1.4011 -0.1949  1.8845
32029SOL    HW296666   1.391   6.599   7.422 -0.7456 -0.5699  0.6215
32030SOL     OW96667   2.493   2.781   9.389 -0.2992 -0.6168  0.6705
32030SOL    HW196668   2.577   2.817   9.360 -1.3196  0.2109 -1.4084
32030SOL    HW296669   2.465   2.725   9.317 -1.0055 -1.8358  1.8491
32031SOL     OW96670   9.049   2.400   2.741  0.4716  0.7082  0.2155
32031SOL    HW196671   8.995   2.331   2.780  0.8627  0.4388  0.2866
32031SOL    HW296672   9.133   2.358   2.724  0.5272  1.0082 -0.2878
32032SOL     OW96673   3.229   3.061   8.831 -0.5717 -0.7914 -0.3330
32032SOL    HW196674   3.262   3.142   8.792  0.5138 -1.0642 -0.0300
32032SOL    HW296675   3.299   3.034   8.891 -2.0409 -0.5439  1.5686
32033SOL     OW96676   1.474   6.527   5.611 -0.6995  0.6656  0.0234
32033SOL    HW196677   1.546   6.557   5.666 -0.0956  1.3955 -1.1252
32033SOL    HW296678   1.471   6.433   5.625  0.0425  0.7126  0.5860
32034SOL     OW96679   2.969   5.062   6.380  0.4263 -0.3774 -0.2862
32034SOL    HW196680   2.922   5.135   6.341 -0.3822 -0.9352 -0.3908
32034SOL    HW296681   3.047   5.051   6.326  0.6309  0.4938 -0.1782
32035SOL     OW96682   8.899   9.709   5.174 -0.3259 -0.5011  0.4828
32035SOL    HW196683   8.841   9.778   5.142  0.4682 -0.2973 -0.5653
32035SOL    HW296684   8.860   9.682   5.257 -1.6622 -0.0601  0.0268
32036SOL     OW96685   7.857   2.163   5.457 -0.0389 -0.0919  0.3444
32036SOL    HW196686   7.803   2.119   5.523  1.0803 -0.0291  1.3327
32036SOL    HW296687   7.901   2.233   5.506 -0.5743  1.1324 -0.8583
32037SOL     OW96688   4.144   7.858   2.319 -0.5457  0.1848  0.1093
32037SOL    HW196689   4.087   7.837   2.393  0.0141 -0.1118  0.4634
32037SOL    HW296690   4.149   7.776   2.269 -0.5635  0.2587 -0.0132
32038SOL     OW96691   5.839   2.076   2.205 -0.2154  0.2598  0.4635
32038SOL    HW196692   5.914   2.120   2.166 -0.3264  0.3684  0.3690
32038SOL    HW296693   5.816   2.131   2.281  0.1321 -0.0663  0.8110
32039SOL     OW96694   9.073   4.231   6.139 -0.3072  0.0172  0.0324
32039SOL    HW196695   9.130   4.221   6.062 -0.8672 -1.7864 -0.1897
32039SOL    HW296696   9.018   4.152   6.138 -1.4105  0.7443  1.3952
32040SOL     OW96697   0.803   8.466   2.433 -0.0976  0.2962 -0.1691
32040SOL    HW196698   0.847   8.400   2.380 -1.3246 -2.3963  1.9088
32040SOL    HW296699   0.776   8.533   2.370 -0.2217 -1.9532 -2.7182
32041SOL     OW96700   6.688   4.020   0.129 -0.1015 -0.4512  0.1488
32041SOL    HW196701   6.682   4.101   0.180  2.4716 -0.2105  0.1933
32041SOL    HW296702   6.622   3.963   0.168 -1.1643  1.1916  0.8997
32042SOL     OW96703   4.943   8.383   6.147 -0.5681  0.1752 -0.5484
32042SOL    HW196704   5.011   8.354   6.208  0.8525  1.4679 -1.4242
32042SOL    HW296705   4.982   8.459   6.103 -1.8640 -0.1819 -2.4408
32043SOL     OW96706   2.342   4.170   0.862  0.5957 -0.5062 -0.1046
32043SOL    HW196707   2.339   4.087   0.814  1.5738 -0.2396 -0.6680
32043SOL    HW296708   2.301   4.233   0.802 -0.8895 -0.7212  0.6583
32044SOL     OW96709   3.941   7.550   1.204  0.1051 -0.5696  0.0021
32044SOL    HW196710   3.891   7.615   1.155 -1.5804  0.4896  2.9261
32044SOL    HW296711   3.979   7.494   1.136 -2.2784  0.5938 -2.4995
32045SOL     OW96712   6.904   3.628   5.143  0.0414 -0.3804  0.3217
32045SOL    HW196713   6.837   3.566   5.115  1.0605 -0.9461 -0.9652
32045SOL    HW296714   6.936   3.667   5.062  1.9089 -0.8160  0.7942
32046SOL     OW96715   7.411   7.426   4.737 -0.1547  0.0294  0.1060
32046SOL    HW196716   7.323   7.388   4.739  0.7442 -2.1976  1.0008
32046SOL    HW296717   7.455   7.379   4.666  1.1458 -1.0076  1.5520
32047SOL     OW96718   2.881   9.082   1.742 -0.1721  0.0881 -0.0089
32047SOL    HW196719   2.809   9.139   1.715 -0.4597 -0.5302 -0.5764
32047SOL    HW296720   2.938   9.077   1.665  0.1332  0.0370  0.2158
32048SOL     OW96721   4.847   8.963   4.180  0.4468 -0.3211  0.6949
32048SOL    HW196722   4.803   8.887   4.141  2.2422 -0.9847 -0.1539
32048SOL    HW296723   4.895   9.003   4.107  1.5665  0.1187  1.6427
32049SOL     OW96724   5.580   6.879   4.612  0.1005  0.2258  0.0736
32049SOL    HW196725   5.602   6.962   4.569  2.2727  0.8970  2.2384
32049SOL    HW296726   5.580   6.815   4.542  0.1348  1.7597 -1.3985
32050SOL     OW96727   1.057   4.098   6.690  0.1512  0.3092  0.2147
32050SOL    HW196728   1.121   4.027   6.697  0.5910  0.8709  4.1514
32050SOL    HW296729   1.072   4.151   6.768 -2.3123  2.9498 -0.9325
32051SOL     OW96730   7.981   9.065   8.730  0.2506 -0.0272  0.1912
32051SOL    HW196731   8.062   9.017   8.748  0.7519  1.3147  1.8040
32051SOL    HW296732   7.918   8.997   8.704  1.5351 -1.2498  0.1576
32052SOL     OW96733   5.598   6.200   9.314 -0.0513 -0.7149 -0.0566
32052SOL    HW196734   5.650   6.264   9.266 -1.9792 -0.7485 -2.3621
32052SOL    HW296735   5.646   6.118   9.303 -1.3764 -1.1858 -3.9366
32053SOL     OW96736   8.090   9.341   6.117  0.2935 -0.2255 -0.5883
32053SOL    HW196737   8.044   9.368   6.038 -2.8312 -0.5238  0.9684
32053SOL    HW296738   8.123   9.253   6.096 -0.1828 -0.1640 -1.6685
32054SOL     OW96739   4.237   2.163   7.429 -0.0746 -0.1206 -0.0150
32054SOL    HW196740   4.186   2.196   7.354  1.4662  1.1932 -0.5413
32054SOL    HW296741   4.195   2.202   7.505 -0.5811 -0.0062 -0.3451
32055SOL     OW96742   5.260   4.438   0.987 -0.0489 -0.1856 -0.1411
32055SOL    HW196743   5.339   4.384   0.988 -0.7173 -1.2125  0.7618
32055SOL    HW296744   5.290   4.525   1.013  1.1088  0.0059 -1.9476
32056SOL     OW96745   1.298   5.524   6.093 -0.4414 -0.2601 -0.0407
32056SOL    HW196746   1.339   5.451   6.047 -2.1265 -1.1432 -0.2125
32056SOL    HW296747   1.244   5.567   6.027 -0.6897  0.1795  0.4398
32057SOL     OW96748   0.746   5.920   9.933  0.7732  0.1360  0.2260
32057SOL    HW196749   0.724   5.827   9.940  0.0309  0.2469 -0.4755
32057SOL    HW296750   0.745   5.952  10.024 -2.6442  0.2522  0.2573
32058SOL     OW96751   5.216   1.929   9.680 -0.5673  0.2024  0.6079
32058SOL    HW196752   5.162   1.983   9.623  0.1318 -0.0001 -0.2748
32058SOL    HW296753   5.301   1.974   9.684 -0.4172 -0.1021  0.9853
32059SOL     OW96754   2.275   0.300   9.156 -0.1715 -0.3996  0.2065
32059SOL    HW196755   2.363   0.331   9.133 -0.4012  0.1650  0.0873
32059SOL    HW296756   2.253   0.238   9.086 -0.5269  0.6855 -0.6709
32060SOL     OW96757   5.262   2.889   1.907 -0.6717  0.2292  0.2528
32060SOL    HW196758   5.217   2.866   1.826 -0.6529 -1.7182  0.7502
32060SOL    HW296759   5.266   2.807   1.957  0.5663  1.0676  1.6188
32061SOL     OW96760   9.299   3.771   2.254  0.2008 -0.2481 -0.2463
32061SOL    HW196761   9.342   3.798   2.173  2.0218  0.4186  0.8925
32061SOL    HW296762   9.358   3.800   2.324 -1.1816 -1.0403  1.3219
32062SOL     OW96763   2.599   8.786   7.529 -0.4552 -0.5280  0.2250
32062SOL    HW196764   2.667   8.797   7.596  0.4295 -1.3877 -0.4906
32062SOL    HW296765   2.517   8.781   7.578  0.0750 -0.2541  1.1683
32063SOL     OW96766   1.631   3.639   7.170  0.3435  0.7513  0.7776
32063SOL    HW196767   1.697   3.666   7.234 -0.1243  2.0389  0.7518
32063SOL    HW296768   1.680   3.625   7.089  0.7519  0.4021  1.0776
32064SOL     OW96769   5.447   0.701   2.189 -0.8276 -0.4157  0.2334
32064SOL    HW196770   5.493   0.695   2.273 -1.8045  0.4642  0.8496
32064SOL    HW296771   5.507   0.660   2.126 -0.6299 -2.3093  1.5636
32065SOL     OW96772   3.579   7.847   2.893  0.1303  0.0382  0.2328
32065SOL    HW196773   3.496   7.841   2.941 -0.0528 -0.1249 -0.0959
32065SOL    HW296774   3.552   7.856   2.801  0.4920 -0.9182  0.0269
32066SOL     OW96775   1.286   1.950   9.910 -0.0207 -0.2488  0.1794
32066SOL    HW196776   1.273   1.950   9.815  0.1086  1.0341  0.1463
32066SOL    HW296777   1.333   2.031   9.928  0.8333 -0.9541  1.2349
32067SOL     OW96778   6.035   2.124   3.604 -0.0689  0.0052 -0.1001
32067SOL    HW196779   6.011   2.038   3.569 -1.4438  0.6478 -0.8035
32067SOL    HW296780   6.114   2.107   3.655 -1.0933 -1.9303  0.9662
32068SOL     OW96781   8.392   8.338   1.997 -0.1886  0.2663  0.0461
32068SOL    HW196782   8.314   8.284   2.009  0.5333 -0.9365 -0.4417
32068SOL    HW296783   8.360   8.416   1.952 -1.1618 -0.0597  0.1383
32069SOL     OW96784   3.412   4.965   8.832 -0.1935 -0.3917 -0.3431
32069SOL    HW196785   3.394   4.965   8.737 -0.5716 -2.7844 -0.3334
32069SOL    HW296786   3.388   4.877   8.860  0.1983  0.1912  1.9548
32070SOL     OW96787   5.047   1.557   1.833 -0.1295  0.0997 -0.3178
32070SOL    HW196788   4.952   1.555   1.829 -0.1962  0.3156  0.8366
32070SOL    HW296789   5.068   1.648   1.855  0.0499 -0.8173  4.4325
32071SOL     OW96790   9.648   7.069   1.591  0.2054  0.0278 -0.0207
32071SOL    HW196791   9.558   7.051   1.566  0.3644 -1.1770  0.2313
32071SOL    HW296792   9.701   7.031   1.520  0.5801 -1.5643  1.0480
32072SOL     OW96793   0.288   1.602   8.244  0.5874  0.0217  0.4206
32072SOL    HW196794   0.314   1.694   8.234 -1.3863  0.6713  0.6285
32072SOL    HW296795   0.266   1.594   8.337  0.3508 -0.5327  0.3173
32073SOL     OW96796   5.295   9.616   3.659  0.2624  0.1907  0.4787
32073SOL    HW196797   5.289   9.648   3.748  0.0254  0.4356  0.3768
32073SOL    HW296798   5.277   9.692   3.604  0.5551  0.0773  0.2186
32074SOL     OW96799   0.977   6.332   0.405 -0.2910  0.5402 -0.3019
32074SOL    HW196800   0.898   6.277   0.408 -0.0650  0.2499  1.0752
32074SOL    HW296801   0.945   6.420   0.427 -0.1854  0.3365  0.7289
32075SOL     OW96802   7.290   2.608   2.428 -0.3185  0.2933 -0.5514
32075SOL    HW196803   7.236   2.588   2.351 -0.6628  0.0367 -0.2449
32075SOL    HW296804   7.297   2.525   2.474 -0.4589  0.5384 -0.0847
32076SOL     OW96805   8.044   5.934   7.780  0.2821 -0.0542  0.5244
32076SOL    HW196806   8.077   5.865   7.722 -0.4181  0.6855 -0.7886
32076SOL    HW296807   8.031   5.890   7.864 -0.0777 -1.5015 -0.2606
32077SOL     OW96808   6.911   4.694   7.805  0.3542 -0.5377 -0.7154
32077SOL    HW196809   6.837   4.732   7.758  0.7839  0.0586 -0.9401
32077SOL    HW296810   6.913   4.603   7.778 -2.1419 -1.4238  1.6430
32078SOL     OW96811   5.361   0.294   5.762 -0.5479  0.1971 -0.1605
32078SOL    HW196812   5.346   0.200   5.759  1.6001 -0.1859 -1.2567
32078SOL    HW296813   5.279   0.331   5.793 -1.4476 -2.0265  0.2855
32079SOL     OW96814   3.820   5.255   6.750 -1.0138  0.3637  0.3987
32079SOL    HW196815   3.813   5.160   6.751 -0.4656  0.2726 -1.1532
32079SOL    HW296816   3.845   5.276   6.660 -1.0449  1.9710  0.7347
32080SOL     OW96817   3.652   3.216   9.405  0.0068 -0.1886 -0.4187
32080SOL    HW196818   3.596   3.274   9.354 -2.7288 -2.5139 -0.3100
32080SOL    HW296819   3.636   3.242   9.496 -0.7879 -0.7282 -0.3982
32081SOL     OW96820   1.774   1.697   5.625 -0.3113 -0.1685 -0.0741
32081SOL    HW196821   1.702   1.714   5.563 -0.0860  0.4021 -0.1899
32081SOL    HW296822   1.853   1.719   5.576 -0.1050 -0.0964  0.2909
32082SOL     OW96823   6.053   8.901   0.386 -0.0587 -0.1129 -0.2997
32082SOL    HW196824   6.020   8.973   0.440 -2.5821 -0.6346 -0.9700
32082SOL    HW296825   6.033   8.822   0.437  0.7012 -0.4405 -0.5000
32083SOL     OW96826   3.989   0.764   9.273  0.2361 -0.0522  0.4295
32083SOL    HW196827   3.918   0.809   9.320  0.9111  0.7647  0.6972
32083SOL    HW296828   3.944   0.701   9.217 -0.7342  0.7821  0.2325
32084SOL     OW96829   2.016   9.614   8.640 -0.5209 -0.2944  0.4872
32084SOL    HW196830   1.929   9.610   8.680 -1.0487  0.6055 -0.5209
32084SOL    HW296831   2.014   9.693   8.586  0.8382 -0.4040  0.2441
32085SOL     OW96832   0.390   0.318   7.294  0.8874 -0.5057 -0.5188
32085SOL    HW196833   0.373   0.389   7.356 -3.5585  0.0581 -2.0202
32085SOL    HW296834   0.459   0.352   7.237  1.3598  1.0934  0.9274
32086SOL     OW96835   4.095   4.460   2.374 -0.7185 -0.2586 -0.3265
32086SOL    HW196836   4.184   4.456   2.410 -1.1144  0.3494  0.7891
32086SOL    HW296837   4.106   4.448   2.280  0.5296 -0.3432 -0.1845
32087SOL     OW96838   6.336   3.684   5.241 -0.1948 -0.7167  0.4462
32087SOL    HW196839   6.392   3.617   5.201  0.0202 -0.5147  0.4091
32087SOL    HW296840   6.398   3.744   5.283 -0.1906  1.1725 -2.0603
32088SOL     OW96841   4.454   2.940   0.258 -0.1878  0.0986 -0.4177
32088SOL    HW196842   4.475   2.967   0.347  1.4567  0.6476 -0.9388
32088SOL    HW296843   4.358   2.938   0.256 -0.2603 -0.3110  1.4557
32089SOL     OW96844   7.195   1.387   9.750 -0.0434 -0.6939  0.2283
32089SOL    HW196845   7.106   1.377   9.716  0.0040  0.6409 -0.3389
32089SOL    HW296846   7.251   1.389   9.673  0.1156  1.8666  0.3488
32090SOL     OW96847   2.711   7.110   3.734 -0.0482 -0.7316  0.3434
32090SOL    HW196848   2.665   7.040   3.687  1.5053 -0.8351 -1.1176
32090SOL    HW296849   2.770   7.065   3.793 -0.4130 -0.6159  0.8037
32091SOL     OW96850   7.471   0.307   6.485  0.1381 -0.2280  0.0677
32091SOL    HW196851   7.440   0.344   6.568  2.0866  0.3620  0.5859
32091SOL    HW296852   7.477   0.213   6.503  1.3151 -0.0210  0.9115
32092SOL     OW96853   8.671   3.719   6.645  0.0388  0.0073  0.0226
32092SOL    HW196854   8.656   3.675   6.729 -1.1352  0.0464 -0.1426
32092SOL    HW296855   8.638   3.808   6.658 -3.8413 -0.9834 -1.5170
32093SOL     OW96856   3.323   0.567   7.676 -0.1290  0.0019  0.5527
32093SOL    HW196857   3.392   0.623   7.710  0.0238 -0.8404  1.6911
32093SOL    HW296858   3.316   0.590   7.583  1.9358 -0.1454  0.3150
32094SOL     OW96859   4.184   6.525   8.447  0.0491 -0.0193 -0.1102
32094SOL    HW196860   4.265   6.548   8.492  1.5166 -2.6377 -1.1872
32094SOL    HW296861   4.179   6.588   8.375  0.4841  0.8958  0.6320
32095SOL     OW96862   2.435   8.776   5.729  0.0843 -0.7313 -0.5713
32095SOL    HW196863   2.381   8.848   5.695 -0.5076 -1.7359 -1.8761
32095SOL    HW296864   2.493   8.754   5.656  0.8167 -1.0468  0.1016
32096SOL     OW96865   3.954   8.401   3.955  0.3175  0.3330  0.4199
32096SOL    HW196866   4.028   8.415   3.896 -0.4219 -0.2935 -0.7189
32096SOL    HW296867   3.909   8.325   3.918 -0.6147  0.4004  1.3668
32097SOL     OW96868   9.428   4.298   5.036 -0.0452 -0.3414 -0.2494
32097SOL    HW196869   9.393   4.268   5.121 -0.4767  0.1035 -0.2687
32097SOL    HW296870   9.376   4.375   5.014  0.9296  0.3155 -0.3046
32098SOL     OW96871   0.989   8.607   2.603  0.3257 -0.4094  0.1607
32098SOL    HW196872   0.925   8.548   2.564  1.9941 -1.4245 -1.1625
32098SOL    HW296873   1.025   8.656   2.528  1.8843 -0.6717  0.7067
32099SOL     OW96874   1.214   8.087   5.391  0.4465 -0.0081  1.0154
32099SOL    HW196875   1.225   8.073   5.485 -0.2263 -1.0840  0.9449
32099SOL    HW296876   1.291   8.138   5.366  1.8124 -1.5762  1.7593
32100SOL     OW96877   8.619   3.115   8.269 -0.4385 -0.1829  0.2773
32100SOL    HW196878   8.546   3.117   8.208 -1.7426  1.1896  1.7926
32100SOL    HW296879   8.638   3.021   8.280 -1.3024 -0.5178 -0.8889
32101SOL     OW96880   4.604   6.739   4.775 -0.4920 -0.1623 -0.1600
32101SOL    HW196881   4.521   6.699   4.801  0.0023 -0.1480  1.5652
32101SOL    HW296882   4.659   6.666   4.749 -0.7917 -0.2401 -0.5855
32102SOL     OW96883   1.051   3.142   0.722 -0.2044 -0.0850 -0.5157
32102SOL    HW196884   1.058   3.135   0.818  1.5414  1.5946 -0.4615
32102SOL    HW296885   0.962   3.113   0.703 -1.5783  2.0611  1.9262
32103SOL     OW96886   6.669   2.291   5.583 -0.1431  0.1893 -0.0228
32103SOL    HW196887   6.596   2.260   5.635  0.4112 -0.7288  0.2345
32103SOL    HW296888   6.742   2.299   5.645  0.8913 -2.1809 -0.8068
32104SOL     OW96889   4.826   1.774   1.527  0.7175 -0.0852  0.1491
32104SOL    HW196890   4.828   1.775   1.431  0.1860  0.0436  0.1375
32104SOL    HW296891   4.787   1.689   1.549  0.8929 -0.1390  0.2529
32105SOL     OW96892   5.602   1.489   1.635  0.3029 -0.0274 -0.1486
32105SOL    HW196893   5.537   1.450   1.694  1.1392 -0.0462  0.7957
32105SOL    HW296894   5.565   1.477   1.548  0.0555 -2.0285  0.1723
32106SOL     OW96895   5.954   1.679   8.439 -0.5662 -0.1002  0.5848
32106SOL    HW196896   5.910   1.596   8.452 -0.6901 -0.1663 -0.2333
32106SOL    HW296897   5.891   1.733   8.391 -0.4709  0.4514  1.0670
32107SOL     OW96898   2.196   5.718   2.828 -0.1098 -0.3384  0.3664
32107SOL    HW196899   2.274   5.671   2.799 -0.0169  0.1180 -0.1500
32107SOL    HW296900   2.219   5.752   2.914  0.7111  0.7806 -0.2557
32108SOL     OW96901   1.856   2.793   3.003 -0.7191 -0.1810 -0.2762
32108SOL    HW196902   1.826   2.884   3.009 -1.8917 -0.6344  1.2534
32108SOL    HW296903   1.860   2.763   3.093 -1.4408 -2.0098 -0.8096
32109SOL     OW96904   8.034   7.276   9.434 -0.3830 -0.3927 -0.2439
32109SOL    HW196905   8.076   7.358   9.407 -0.5680  0.1508  1.0497
32109SOL    HW296906   8.073   7.210   9.378  1.6411  0.2101  0.3816
32110SOL     OW96907   2.043   9.045   9.495  0.6505  0.5361  0.5451
32110SOL    HW196908   2.055   8.953   9.468 -1.6195 -0.2202  1.8376
32110SOL    HW296909   2.050   9.043   9.590  1.1162  1.8299  0.5498
32111SOL     OW96910   6.689   5.152   8.132 -0.3395  0.2814  1.0615
32111SOL    HW196911   6.617   5.210   8.158 -0.3277 -0.6141  3.2536
32111SOL    HW296912   6.768   5.198   8.160 -0.3378 -0.7965  2.9691
32112SOL     OW96913   3.046   3.608   9.747  0.1621  0.8703 -0.0355
32112SOL    HW196914   3.043   3.637   9.838 -1.2588 -2.4416  1.1488
32112SOL    HW296915   3.108   3.535   9.747 -0.1312  0.5826 -1.6289
32113SOL     OW96916   5.991   6.553   4.112  0.3242 -0.0931 -0.4005
32113SOL    HW196917   6.010   6.531   4.203 -1.7070 -0.1397  0.0567
32113SOL    HW296918   6.038   6.635   4.096  1.5817 -0.6631  0.3316
32114SOL     OW96919   9.812   7.017   7.562  0.0447 -0.0438 -0.1595
32114SOL    HW196920   9.785   6.929   7.535  2.0218 -1.4108  1.9203
32114SOL    HW296921   9.880   7.041   7.499 -0.1045 -0.2310 -0.3962
32115SOL     OW96922   5.814   1.182   3.582 -0.0479 -0.3665  0.0126
32115SOL    HW196923   5.745   1.236   3.621 -1.2784 -0.6937 -1.5836
32115SOL    HW296924   5.866   1.242   3.530  0.2338 -0.2859  0.3875
32116SOL     OW96925   7.259   9.584   1.892  0.2049 -0.3225  0.2055
32116SOL    HW196926   7.176   9.628   1.909  1.1340  1.2604  0.7838
32116SOL    HW296927   7.234   9.493   1.876 -1.7469  0.3161 -0.7404
32117SOL     OW96928   1.951   1.919   9.897 -0.4516 -0.0553  0.2478
32117SOL    HW196929   1.986   1.948   9.813 -0.6518  2.4964  0.9442
32117SOL    HW296930   1.857   1.931   9.889 -0.3913  1.3579  1.1527
32118SOL     OW96931   0.112   3.320   3.969  0.2091  0.3508  0.2952
32118SOL    HW196932   0.076   3.393   3.920  0.5640 -0.9656 -2.0847
32118SOL    HW296933   0.202   3.311   3.938 -0.3229 -2.1008 -0.8379
32119SOL     OW96934   7.046   9.334   7.285  0.6410 -0.2071 -0.0252
32119SOL    HW196935   7.106   9.314   7.356 -0.3152 -0.3363  0.7546
32119SOL    HW296936   6.980   9.265   7.288 -0.1254  0.5066 -0.2129
32120SOL     OW96937   0.575   6.942   7.561  0.3488 -0.1803  0.4809
32120SOL    HW196938   0.497   6.993   7.541 -0.1884 -1.6856 -1.5816
32120SOL    HW296939   0.642   6.974   7.501  0.2985 -1.1723 -0.1254
32121SOL     OW96940   2.121   2.345   0.514 -0.1581  0.1952 -0.4565
32121SOL    HW196941   2.143   2.431   0.477 -0.7515  0.6589  0.2482
32121SOL    HW296942   2.058   2.308   0.452  0.5617 -0.0159 -1.0918
32122SOL     OW96943   3.467   6.223   2.471 -0.5659 -0.1249 -0.2955
32122SOL    HW196944   3.380   6.256   2.451 -1.3453 -0.8152  1.7230
32122SOL    HW296945   3.470   6.136   2.430 -1.7486 -1.0818  1.5081
32123SOL     OW96946   1.738   8.730   7.749 -0.2676 -0.1535 -0.0035
32123SOL    HW196947   1.676   8.755   7.817 -0.5273  0.5626 -0.4975
32123SOL    HW296948   1.772   8.645   7.777  1.1736  1.0208  2.1012
32124SOL     OW96949   6.213   1.284   0.625 -0.1739  0.3169  0.2598
32124SOL    HW196950   6.291   1.338   0.632 -0.5992  0.8496  0.9687
32124SOL    HW296951   6.192   1.259   0.715 -0.7401  0.0596  0.0636
32125SOL     OW96952   2.646   5.493   7.705 -0.0659 -0.1670 -0.1915
32125SOL    HW196953   2.719   5.553   7.719  0.6188 -0.9278 -0.4263
32125SOL    HW296954   2.669   5.445   7.626 -0.4294 -0.9916  0.1900
32126SOL     OW96955   1.883   3.603   3.291  0.2263 -0.0471  0.3081
32126SOL    HW196956   1.969   3.585   3.330  1.6187  2.0065 -1.5967
32126SOL    HW296957   1.834   3.648   3.360  1.4541  0.6291  0.7684
32127SOL     OW96958   7.642   7.953   2.882  0.1289 -0.1368 -0.0908
32127SOL    HW196959   7.694   7.897   2.824  0.0169 -1.9176  1.4450
32127SOL    HW296960   7.551   7.936   2.856  0.0912 -0.7386  0.4205
32128SOL     OW96961   7.761   6.714   5.816 -0.8794  0.5595 -0.0698
32128SOL    HW196962   7.830   6.748   5.872 -0.9926  0.7566 -0.0510
32128SOL    HW296963   7.727   6.638   5.864  1.0450 -1.1655 -1.2306
32129SOL     OW96964   1.469   3.557   6.273 -0.4493 -0.5318  0.5109
32129SOL    HW196965   1.438   3.633   6.223  0.4378  0.1751  1.0089
32129SOL    HW296966   1.416   3.484   6.240 -2.0963  0.4825  0.8161
32130SOL     OW96967   9.529   2.364   8.422  0.0329 -0.0077  0.1267
32130SOL    HW196968   9.497   2.275   8.406 -1.2957  0.7762 -2.0473
32130SOL    HW296969   9.452   2.420   8.411  0.5719  1.3945  2.5690
32131SOL     OW96970   3.950   6.616   9.700 -0.7112 -1.1158  0.1821
32131SOL    HW196971   3.988   6.625   9.613 -1.2845  1.0457  0.1040
32131SOL    HW296972   3.886   6.545   9.691 -0.0843 -1.5653 -0.8902
32132SOL     OW96973   3.034   9.878   8.958  0.3418 -0.0410 -0.2426
32132SOL    HW196974   3.057   9.929   8.880 -1.1773 -0.5558 -1.0733
32132SOL    HW296975   3.092   9.803   8.956 -0.3599 -0.5778 -1.4859
32133SOL     OW96976   0.532   2.067   6.916  0.1708  0.3393 -1.2350
32133SOL    HW196977   0.488   1.986   6.941  1.1278 -0.0015 -0.6147
32133SOL    HW296978   0.462   2.133   6.914 -0.7254 -0.6002 -2.3259
32134SOL     OW96979   5.619   5.988   7.301  0.3029  0.2260 -0.0086
32134SOL    HW196980   5.618   6.074   7.258 -0.1185  1.2416  1.9214
32134SOL    HW296981   5.531   5.953   7.286 -0.3954  1.3021  1.3220
32135SOL     OW96982   6.020   1.915   6.615 -0.0285 -0.1809  0.7886
32135SOL    HW196983   5.930   1.884   6.615  0.8414 -2.9357  0.6745
32135SOL    HW296984   6.014   2.006   6.645 -2.7805 -0.3742  1.0623
32136SOL     OW96985   9.541   5.952   0.780 -0.3034  0.9080  0.3949
32136SOL    HW196986   9.498   5.989   0.857 -0.6434 -0.2015  0.7633
32136SOL    HW296987   9.576   5.868   0.811  0.0852  0.7297 -0.5063
32137SOL     OW96988   3.079   4.334   5.914 -0.7926  0.3040  0.4241
32137SOL    HW196989   2.990   4.369   5.906 -0.3134  1.7438  1.1099
32137SOL    HW296990   3.072   4.243   5.884 -2.0941  0.9515 -1.4082
32138SOL     OW96991   9.953   9.663   1.700 -0.2718  0.2477 -0.3760
32138SOL    HW196992   9.901   9.695   1.773 -0.0581 -0.4920  0.1114
32138SOL    HW296993  10.000   9.740   1.668 -2.0278  1.0425 -1.1563
32139SOL     OW96994   0.800   9.241   9.528  0.4242 -0.2428  0.0866
32139SOL    HW196995   0.849   9.235   9.446 -1.1809  0.0111 -0.9456
32139SOL    HW296996   0.822   9.328   9.563 -1.1320  0.9269 -1.6525
32140SOL     OW96997   7.870   1.248   0.325 -0.1459 -0.5200  0.3211
32140SOL    HW196998   7.870   1.323   0.384 -0.5864 -0.8498  0.7584
32140SOL    HW296999   7.833   1.177   0.378  2.8407 -1.8159  0.8984
32141SOL     OW97000   2.405   9.485   2.036  0.5755 -0.4666 -0.1402
32141SOL    HW197001   2.465   9.517   2.104 -0.9538  0.9656  0.6044
32141SOL    HW297002   2.365   9.564   2.000 -2.6877 -1.3806  1.1380
32142SOL     OW97003   9.451   3.913   2.454  0.3684  1.1222  0.3021
32142SOL    HW197004   9.389   3.847   2.485  0.4742  1.3637  1.0464
32142SOL    HW297005   9.536   3.870   2.460  0.4387  1.3205  0.7960
32143SOL     OW97006   3.537   3.250   4.890 -0.1525 -0.5368 -0.1897
32143SOL    HW197007   3.489   3.329   4.866 -0.8945 -1.2756 -1.1519
32143SOL    HW297008   3.472   3.180   4.890  0.6959 -1.3532 -0.4228
32144SOL     OW97009   6.639   4.774   8.706  0.1616  0.6382  0.4583
32144SOL    HW197010   6.703   4.748   8.772  0.5495 -2.8256 -1.0584
32144SOL    HW297011   6.691   4.794   8.628 -0.4485 -0.4962 -0.2780
32145SOL     OW97012   3.021   4.546   9.770  0.1395 -0.6025  0.4033
32145SOL    HW197013   3.073   4.615   9.811  1.4684 -1.0389 -0.4818
32145SOL    HW297014   2.984   4.497   9.844  0.3864  0.1464  1.0394
32146SOL     OW97015   1.484   1.378   2.947 -0.1694 -0.2032 -0.4967
32146SOL    HW197016   1.429   1.353   3.021 -0.1242 -0.4005 -0.5304
32146SOL    HW297017   1.470   1.473   2.938 -0.4235 -0.2344 -0.4408
32147SOL     OW97018   4.780   9.567   5.405 -0.1181 -0.0644  0.3502
32147SOL    HW197019   4.790   9.548   5.498  1.6069 -0.9965  0.0143
32147SOL    HW297020   4.855   9.623   5.384 -0.7017  0.4527 -0.4147
32148SOL     OW97021   7.194   1.131   6.410  0.2806  0.4759 -0.5974
32148SOL    HW197022   7.168   1.094   6.325  0.9543  0.0475 -0.6237
32148SOL    HW297023   7.113   1.170   6.445 -0.3764 -0.7474 -0.7064
32149SOL     OW97024   0.819   1.712   8.379  0.0907 -0.8860  0.0649
32149SOL    HW197025   0.799   1.628   8.338 -0.5380 -0.8941  0.3925
32149SOL    HW297026   0.909   1.730   8.351  0.7683 -2.3662  1.1744
32150SOL     OW97027   3.216   5.047   4.246 -0.5141 -0.4404  0.4808
32150SOL    HW197028   3.160   4.978   4.211 -2.4751  1.1521  0.3046
32150SOL    HW297029   3.305   5.014   4.233 -1.2601 -1.6150 -2.3784
32151SOL     OW97030   9.157   3.658   1.484  0.2620  0.0408  0.3969
32151SOL    HW197031   9.195   3.743   1.508 -1.7676  0.5678  2.0071
32151SOL    HW297032   9.098   3.636   1.556 -2.5811 -0.6339 -1.9070
32152SOL     OW97033   8.441   7.460   0.510 -0.3056  0.4026  0.4391
32152SOL    HW197034   8.510   7.512   0.468  0.2941 -0.2409  0.5991
32152SOL    HW297035   8.405   7.517   0.578  1.1449  0.2279  1.4028
32153SOL     OW97036   1.669   7.904   4.043 -0.3671  0.3582 -0.6797
32153SOL    HW197037   1.633   7.824   4.079 -1.4139  1.2256  0.2784
32153SOL    HW297038   1.620   7.974   4.085  1.1854  1.5500 -0.7382
32154SOL     OW97039   5.904   6.407   8.446  0.1177 -0.2336  0.5976
32154SOL    HW197040   5.931   6.348   8.376  0.8560  1.0989 -0.2846
32154SOL    HW297041   5.986   6.430   8.490 -0.1941 -0.0664  1.0987
32155SOL     OW97042   6.083   2.600   4.035  0.4473  0.0097 -0.4917
32155SOL    HW197043   6.143   2.667   4.002  0.7111  0.8722  1.6132
32155SOL    HW297044   6.083   2.611   4.130 -1.3026 -1.4813 -0.2487
32156SOL     OW97045   2.183   9.901   9.569 -0.0211 -0.0896 -0.8644
32156SOL    HW197046   2.191   9.900   9.474 -2.4781 -1.5350 -1.1345
32156SOL    HW297047   2.104   9.851   9.587  1.4767 -1.6319  2.0757
32157SOL     OW97048   9.919   7.609   9.159 -0.8227 -0.1536  0.1577
32157SOL    HW197049   9.857   7.632   9.089  0.2247 -1.0973 -1.1218
32157SOL    HW297050   9.883   7.652   9.237 -0.5913  3.3066 -1.4307
32158SOL     OW97051   3.919   5.278   1.968 -0.4496 -0.9744  0.5226
32158SOL    HW197052   4.007   5.281   1.929 -0.2488  0.6476  1.0155
32158SOL    HW297053   3.899   5.370   1.988 -2.2783 -1.3165  0.4056
32159SOL     OW97054   6.877   7.032   2.389 -0.0685  0.0437  0.2236
32159SOL    HW197055   6.966   7.059   2.366 -0.4022  1.2106  0.2534
32159SOL    HW297056   6.886   6.940   2.414  1.5548  0.7056  2.4188
32160SOL     OW97057   8.036   2.704   3.135 -0.6551 -0.3037 -0.1861
32160SOL    HW197058   7.948   2.727   3.164  0.1325 -0.0336  2.2366
32160SOL    HW297059   8.071   2.650   3.206  1.5673  0.6641 -0.4613
32161SOL     OW97060   8.188   6.112   5.878 -0.1787  0.0612 -0.1737
32161SOL    HW197061   8.276   6.079   5.860 -0.6760 -1.0928 -0.6377
32161SOL    HW297062   8.172   6.088   5.969 -0.3131 -0.4668 -0.3328
32162SOL     OW97063   5.612   6.234   3.320  0.2870 -0.1319 -0.2664
32162SOL    HW197064   5.672   6.296   3.281  0.9041 -1.0984 -0.8989
32162SOL    HW297065   5.616   6.252   3.414 -0.5903  1.6613 -0.5394
32163SOL     OW97066   5.171   4.467   3.533  0.5247 -0.5785  0.5678
32163SOL    HW197067   5.152   4.400   3.468  0.2675 -0.4395  0.4995
32163SOL    HW297068   5.185   4.418   3.614 -2.6060 -0.5921  1.2279
32164SOL     OW97069   4.878   8.952   0.897 -0.8346 -0.4271  0.1173
32164SOL    HW197070   4.864   9.044   0.875  2.4310 -0.1606 -1.3209
32164SOL    HW297071   4.911   8.912   0.817  4.0771 -1.2352  2.1864
32165SOL     OW97072   8.587   8.919   4.629  0.1201  0.1124  0.0241
32165SOL    HW197073   8.574   8.960   4.544  1.8943  1.1581  0.2020
32165SOL    HW297074   8.650   8.976   4.674  0.2012 -1.0958  1.5452
32166SOL     OW97075   2.198   7.641   7.855  0.2879 -0.0753  0.0408
32166SOL    HW197076   2.116   7.668   7.896  0.2249 -1.2614  0.7238
32166SOL    HW297077   2.246   7.596   7.923  1.4170  0.3792 -0.4296
32167SOL     OW97078   6.050   6.459   6.587 -0.0269 -0.2552  0.1355
32167SOL    HW197079   6.035   6.501   6.503 -1.9586 -1.2926 -0.1126
32167SOL    HW297080   6.087   6.374   6.565  4.1291  1.2222  0.6417
32168SOL     OW97081   3.160   6.320   5.517  0.5115 -0.1392 -0.0602
32168SOL    HW197082   3.211   6.322   5.436 -1.2879 -2.0334 -1.3338
32168SOL    HW297083   3.077   6.279   5.492 -0.6483  0.5099  2.4630
32169SOL     OW97084   3.349   9.846   5.002 -0.3500  0.1754  0.4066
32169SOL    HW197085   3.324   9.902   4.929 -0.9921  1.5714  1.6513
32169SOL    HW297086   3.412   9.784   4.964 -0.1447  1.2834 -1.1650
32170SOL     OW97087   8.919   9.299   5.308 -0.2146  0.0021  0.2917
32170SOL    HW197088   8.922   9.207   5.281  1.2820  0.0493  0.2163
32170SOL    HW297089   8.851   9.338   5.253 -0.4551 -0.9219 -0.0915
32171SOL     OW97090   7.665   7.845  -0.007  0.1662  0.1839  0.4239
32171SOL    HW197091   7.637   7.849   0.084  1.4658  0.3342  0.8330
32171SOL    HW297092   7.727   7.773  -0.010  0.7721  0.7173 -0.1675
32172SOL     OW97093   5.064   9.863   6.493  0.2461 -0.0874  0.0871
32172SOL    HW197094   5.024   9.929   6.550  1.3569  0.3599  0.3870
32172SOL    HW297095   5.060   9.782   6.544 -1.7871 -0.4465 -0.5803
32173SOL     OW97096   1.070   1.971   2.395  0.1568  0.6910  0.7311
32173SOL    HW197097   0.974   1.972   2.392  0.1078  1.0792  1.9676
32173SOL    HW297098   1.096   2.060   2.371  0.3493 -0.0418 -2.1418
32174SOL     OW97099   4.910   3.648   0.276  0.1896 -0.3828  0.2171
32174SOL    HW197100   4.887   3.702   0.352  1.4164 -0.9956  1.0766
32174SOL    HW297101   5.006   3.640   0.281  0.6093  1.4998 -2.7500
32175SOL     OW97102   6.186   7.119   2.189  0.2002 -0.5017 -0.6922
32175SOL    HW197103   6.117   7.182   2.209 -0.1203 -0.7503 -1.0113
32175SOL    HW297104   6.170   7.046   2.248  1.9837  0.6684  1.4309
32176SOL     OW97105   5.135   1.470   4.343  0.1105 -0.0328  0.0294
32176SOL    HW197106   5.230   1.476   4.338  0.0029  0.4313 -3.2760
32176SOL    HW297107   5.118   1.398   4.404  2.5043  0.4464  1.3639
32177SOL     OW97108   6.952   2.481   5.622  0.0698  0.1291 -0.4422
32177SOL    HW197109   6.943   2.434   5.705  0.4232 -0.4100 -0.6999
32177SOL    HW297110   6.963   2.412   5.557 -1.2589  0.5028 -1.0844
32178SOL     OW97111   6.368   2.519   3.807 -0.0892  0.3132 -0.2844
32178SOL    HW197112   6.400   2.568   3.883 -0.7941  0.1298  0.1359
32178SOL    HW297113   6.274   2.538   3.803 -0.9306 -2.8393  1.3317
32179SOL     OW97114   1.459   6.035   6.690  0.0424  0.3316 -0.2490
32179SOL    HW197115   1.364   6.032   6.676  0.0939  1.0427 -0.8173
32179SOL    HW297116   1.489   5.946   6.674 -0.2533  0.5397 -2.2408
32180SOL     OW97117   1.007   1.248   9.084 -0.4880 -0.5023  0.4141
32180SOL    HW197118   1.016   1.342   9.101 -1.4179 -0.6507  1.9673
32180SOL    HW297119   0.979   1.211   9.168  0.2062 -2.2351 -0.0655
32181SOL     OW97120   0.857   2.604   2.592 -0.0091  0.4615 -0.0267
32181SOL    HW197121   0.908   2.576   2.669 -2.1484 -0.1065  1.2564
32181SOL    HW297122   0.880   2.541   2.524  0.0567 -0.5655  0.9121
32182SOL     OW97123   3.970   4.178   3.058 -0.1804  0.6803  0.3726
32182SOL    HW197124   3.923   4.094   3.060 -0.6656  0.8972 -0.7945
32182SOL    HW297125   4.062   4.153   3.069 -0.5339  0.2736  2.9464
32183SOL     OW97126   4.837   8.631   2.578  0.2945 -0.4011 -0.3375
32183SOL    HW197127   4.832   8.649   2.484  0.9541  0.8021 -0.1660
32183SOL    HW297128   4.803   8.710   2.619  0.2747 -0.8068  0.4502
32184SOL     OW97129   4.723   4.323   6.141  0.0682 -0.2036 -0.0358
32184SOL    HW197130   4.646   4.270   6.123  0.3969 -0.4609 -0.7041
32184SOL    HW297131   4.694   4.387   6.206 -0.6241 -0.4882 -0.0622
32185SOL     OW97132   6.812   8.810   7.517  1.0923 -0.4493  0.1820
32185SOL    HW197133   6.826   8.785   7.426 -0.7220 -0.6422 -0.0842
32185SOL    HW297134   6.783   8.901   7.514  2.2893 -0.0191  0.7084
32186SOL     OW97135   3.656   3.317   1.504  0.2056 -0.4777  0.1222
32186SOL    HW197136   3.598   3.356   1.438  1.6595  0.1134 -0.8470
32186SOL    HW297137   3.693   3.392   1.551  0.3485 -0.8446  0.6041
32187SOL     OW97138   4.601   3.222   8.379 -0.3860 -0.7585  0.4315
32187SOL    HW197139   4.537   3.292   8.382 -1.3297 -1.6220  1.3980
32187SOL    HW297140   4.684   3.265   8.399 -0.8264  0.1893  0.2871
32188SOL     OW97141   9.548   0.141   4.672 -0.6803  0.2927 -0.4973
32188SOL    HW197142   9.528   0.048   4.686  1.2526 -0.0075  0.6032
32188SOL    HW297143   9.540   0.180   4.758 -1.6079  1.2173 -0.9781
32189SOL     OW97144   8.598   6.158   8.924 -0.1479  0.2011  0.4811
32189SOL    HW197145   8.598   6.207   9.007 -0.6726  2.3698 -0.7077
32189SOL    HW297146   8.683   6.179   8.885 -0.1181 -0.3845  0.2286
32190SOL     OW97147   6.139   2.260   9.745 -0.6126  0.6027  0.3295
32190SOL    HW197148   6.156   2.354   9.736  1.0731  0.3516  0.4162
32190SOL    HW297149   6.057   2.246   9.698  0.3444  1.7268 -1.8294
32191SOL     OW97150   6.933   9.025   2.371 -0.2518 -0.6626 -0.0895
32191SOL    HW197151   6.999   8.960   2.348 -1.0108 -1.3336 -0.4231
32191SOL    HW297152   6.888   8.988   2.448 -0.7097 -0.5568 -0.3001
32192SOL     OW97153   6.223   0.700   9.567  1.0469 -0.2984 -0.5777
32192SOL    HW197154   6.205   0.735   9.655 -0.4130  0.1628 -1.0457
32192SOL    HW297155   6.203   0.607   9.574 -0.2536 -0.0423 -0.7267
32193SOL     OW97156   2.579   2.372   5.817  0.2471 -0.5802 -0.3601
32193SOL    HW197157   2.499   2.384   5.868  0.2678 -0.6838 -0.3029
32193SOL    HW297158   2.637   2.442   5.847 -0.4678  0.6188 -1.6880
32194SOL     OW97159   8.287   8.001   9.217 -0.0451  0.0491 -0.0193
32194SOL    HW197160   8.346   7.941   9.172 -0.3756 -0.4707  0.2329
32194SOL    HW297161   8.338   8.081   9.230  1.2371 -0.9994  1.8119
32195SOL     OW97162   7.852   3.958   7.537 -0.2244 -0.3081 -0.2089
32195SOL    HW197163   7.774   3.906   7.518  0.0069 -0.5937 -0.3964
32195SOL    HW297164   7.890   3.977   7.452 -0.7172  0.8333 -0.1918
32196SOL     OW97165   2.538   8.353   6.569  0.3431 -0.4055  0.3048
32196SOL    HW197166   2.529   8.287   6.500  0.5094 -0.4166  0.2925
32196SOL    HW297167   2.633   8.370   6.573  0.3019 -0.1709  0.3095
32197SOL     OW97168   4.132   1.892   0.270 -0.2252  0.5258 -0.0739
32197SOL    HW197169   4.156   1.972   0.317  1.2087 -1.8561  3.7336
32197SOL    HW297170   4.038   1.886   0.281 -0.4550  1.8942 -0.9406
32198SOL     OW97171   9.115   7.028   5.597 -0.3819 -0.0383 -0.7638
32198SOL    HW197172   9.126   6.980   5.515 -0.1549  1.6421 -1.7726
32198SOL    HW297173   9.088   7.116   5.570  2.0462  1.3014  0.8009
32199SOL     OW97174   0.749   3.323   7.434  0.1811  0.3150 -0.0829
32199SOL    HW197175   0.779   3.393   7.492 -0.9254 -0.1467  1.0892
32199SOL    HW297176   0.829   3.277   7.409  0.7426  0.9071  0.5762
32200SOL     OW97177   7.527   2.221   0.969 -0.3126 -0.3758  0.0970
32200SOL    HW197178   7.526   2.223   1.065  1.4851 -0.0738  0.1298
32200SOL    HW297179   7.448   2.171   0.946 -0.3172 -1.2156  1.7626
32201SOL     OW97180   0.595   6.128   1.232 -0.6933  0.1492 -0.5567
32201SOL    HW197181   0.538   6.205   1.226 -2.3596 -0.9760  0.0758
32201SOL    HW297182   0.672   6.159   1.279 -1.8721  1.1996  0.8014
32202SOL     OW97183   7.417   2.288   4.521 -0.2793  0.4534 -0.3987
32202SOL    HW197184   7.505   2.327   4.527 -0.6534  1.3988 -0.8253
32202SOL    HW297185   7.361   2.361   4.495 -1.1597 -0.1955 -0.3484
32203SOL     OW97186   2.836   7.995   9.108 -0.1646  0.0454 -0.2156
32203SOL    HW197187   2.910   7.938   9.087 -0.8172 -0.7766 -0.3913
32203SOL    HW297188   2.759   7.943   9.084 -0.7776  1.2082 -0.8398
32204SOL     OW97189   9.234   0.798   7.664 -0.9435 -0.3704 -0.2694
32204SOL    HW197190   9.245   0.751   7.747  1.5304  0.7727  0.1355
32204SOL    HW297191   9.191   0.880   7.688  0.2454  0.1954  0.0321
32205SOL     OW97192   3.309   2.799   1.512 -0.1760 -0.5288  0.0818
32205SOL    HW197193   3.376   2.849   1.558 -0.0887 -1.3703  0.8902
32205SOL    HW297194   3.228   2.817   1.559 -0.2579 -0.6576 -0.0070
32206SOL     OW97195   8.063   9.303   4.405  0.5690  0.0157  0.0229
32206SOL    HW197196   8.094   9.285   4.316  1.7581  0.6345  0.2981
32206SOL    HW297197   7.994   9.368   4.393  0.1003 -0.5586 -0.5039
32207SOL     OW97198   2.668   4.015   6.253 -0.1530 -0.2957 -0.2061
32207SOL    HW197199   2.636   3.925   6.256 -0.6070 -0.1095  1.1717
32207SOL    HW297200   2.677   4.041   6.345  1.8065  0.4417 -0.5502
32208SOL     OW97201   3.672   8.932   8.748  0.3563 -0.1953 -0.2438
32208SOL    HW197202   3.580   8.951   8.768  0.3096 -0.6992  0.0492
32208SOL    HW297203   3.695   8.995   8.680 -0.6444 -1.0046 -1.3891
32209SOL     OW97204   8.470   1.563   9.763 -0.1539 -0.2831 -0.2143
32209SOL    HW197205   8.448   1.479   9.804 -2.4334  0.2728 -0.1340
32209SOL    HW297206   8.426   1.560   9.678 -0.5630  0.9403 -0.0614
32210SOL     OW97207   6.359   0.730   7.302  0.0536  0.0772  0.0944
32210SOL    HW197208   6.355   0.649   7.352  1.7007 -0.1901 -0.1454
32210SOL    HW297209   6.355   0.702   7.210  0.7311  0.2356  0.0083
32211SOL     OW97210   5.225   0.699   3.412 -0.0830  0.2799 -0.2126
32211SOL    HW197211   5.191   0.758   3.346 -0.0893 -0.5597 -0.9724
32211SOL    HW297212   5.308   0.739   3.440 -0.5400  1.1222 -0.0247
32212SOL     OW97213   2.697   5.450   5.229  0.2823  0.1441 -0.1940
32212SOL    HW197214   2.620   5.405   5.263 -0.0009 -0.0928 -1.1116
32212SOL    HW297215   2.695   5.536   5.269  1.1678 -0.8227  2.0771
32213SOL     OW97216   1.487   8.193   2.819 -0.0854 -0.0586  0.2618
32213SOL    HW197217   1.468   8.131   2.749 -0.8893 -0.4525  0.8096
32213SOL    HW297218   1.540   8.143   2.881 -0.3719 -0.0770  0.4958
32214SOL     OW97219   0.680   2.810   8.018 -0.0678  0.0083  0.2697
32214SOL    HW197220   0.690   2.874   8.087  0.6482  1.3018 -0.9899
32214SOL    HW297221   0.622   2.852   7.954  1.0259 -0.2546 -0.9411
32215SOL     OW97222   7.008   4.037   1.527  0.2216 -0.3694 -0.1592
32215SOL    HW197223   6.971   3.952   1.503  0.3848 -0.0063 -1.8259
32215SOL    HW297224   6.971   4.055   1.613 -1.0407 -1.4233 -0.4353
32216SOL     OW97225   2.395   5.024   9.206 -0.1583 -0.3806 -0.2622
32216SOL    HW197226   2.397   4.950   9.144  0.6435  0.7583 -1.6606
32216SOL    HW297227   2.405   4.983   9.292  0.8766 -1.8745 -1.0433
32217SOL     OW97228   6.092   0.283   5.349  0.5329  0.0417  0.2268
32217SOL    HW197229   6.054   0.308   5.433 -0.3029 -0.3566 -0.0224
32217SOL    HW297230   6.124   0.365   5.312  0.9885  0.2107  0.9610
32218SOL     OW97231   6.114   6.231   8.875  0.5826  0.6678 -0.6094
32218SOL    HW197232   6.147   6.281   8.950  1.9955 -0.1966 -0.6106
32218SOL    HW297233   6.150   6.275   8.798  1.8851 -0.3252 -0.6081
32219SOL     OW97234   1.194   6.111   8.742 -0.5260 -0.0451  0.4951
32219SOL    HW197235   1.153   6.129   8.827 -2.7405  1.6795 -0.8294
32219SOL    HW297236   1.183   6.016   8.730 -1.4059 -0.1023  1.5691
32220SOL     OW97237   5.667   7.077   1.860  0.0184  0.5173 -0.2349
32220SOL    HW197238   5.637   7.048   1.946  2.6648  2.4175  1.4789
32220SOL    HW297239   5.727   7.009   1.831  1.1802  1.1011  0.7269
32221SOL     OW97240   2.425   3.396   0.122 -0.1658 -0.0438 -0.2037
32221SOL    HW197241   2.373   3.348   0.186 -0.0181 -0.3466 -0.3113
32221SOL    HW297242   2.370   3.398   0.044 -0.4166  0.4708 -0.0200
32222SOL     OW97243   2.781   6.159   4.629 -0.2385 -0.1585  0.1274
32222SOL    HW197244   2.865   6.203   4.620 -0.4459  0.3732  0.7558
32222SOL    HW297245   2.775   6.103   4.551  2.3079 -2.9561  1.7104
32223SOL     OW97246   0.855   4.428   9.552  0.1125  0.3353 -0.3734
32223SOL    HW197247   0.919   4.461   9.614 -1.1054 -0.6338  1.4737
32223SOL    HW297248   0.796   4.373   9.604 -3.7380  3.0578 -1.3411
32224SOL     OW97249   1.246   6.380   0.260 -0.6410 -0.3182  0.3710
32224SOL    HW197250   1.159   6.348   0.236 -0.0140 -1.5298 -0.3812
32224SOL    HW297251   1.229   6.446   0.327 -2.3512  1.6630 -1.8301
32225SOL     OW97252   6.931   4.769   9.257  0.0816 -0.1517 -0.4614
32225SOL    HW197253   6.860   4.708   9.238  1.0299 -0.9684 -1.4520
32225SOL    HW297254   6.887   4.852   9.273 -1.1793 -0.9083  0.1513
32226SOL     OW97255   7.208   1.879   0.308  0.3834 -0.1092  0.3649
32226SOL    HW197256   7.261   1.946   0.351  0.2461 -0.5152  1.1909
32226SOL    HW297257   7.129   1.874   0.361  0.0222 -0.3239 -0.1916
32227SOL     OW97258   8.561   5.146   5.436 -0.6860 -0.6926 -0.4248
32227SOL    HW197259   8.477   5.178   5.404 -1.1656  0.4463  1.7353
32227SOL    HW297260   8.539   5.088   5.509  0.3789 -0.3498  0.2003
32228SOL     OW97261   3.638   5.921   6.282 -0.7213 -0.2303  0.3128
32228SOL    HW197262   3.725   5.936   6.318  0.2108  1.2414 -2.2867
32228SOL    HW297263   3.582   5.981   6.330  0.5332  1.9260 -0.7712
32229SOL     OW97264   4.495   6.994   1.401 -0.3170  0.3447  0.8002
32229SOL    HW197265   4.563   6.969   1.463  1.2806  1.8327 -0.2768
32229SOL    HW297266   4.451   6.912   1.379  1.2328 -0.6787  1.3901
32230SOL     OW97267   2.204   7.577   3.989 -0.5016 -0.2002  0.1208
32230SOL    HW197268   2.277   7.635   3.969  0.1132 -0.2486  2.0611
32230SOL    HW297269   2.142   7.591   3.917  0.7912  0.8645 -0.8317
32231SOL     OW97270   7.804   8.791   1.533  0.0597 -0.1564  0.2558
32231SOL    HW197271   7.834   8.824   1.618 -0.9926 -0.0110  0.5845
32231SOL    HW297272   7.738   8.854   1.505  1.1232  0.3632 -1.1737
32232SOL     OW97273   7.376   2.381   4.185  0.8321 -0.3680 -0.7929
32232SOL    HW197274   7.345   2.383   4.275  0.6568  1.9100 -0.8614
32232SOL    HW297275   7.300   2.353   4.134  0.8770 -1.4686 -0.2918
32233SOL     OW97276   6.307   8.620   5.572 -0.2077 -0.8787  0.4512
32233SOL    HW197277   6.323   8.636   5.665 -0.2683  1.1042  0.1544
32233SOL    HW297278   6.212   8.621   5.563 -0.2120 -1.3989  0.4155
32234SOL     OW97279   7.577   8.813   3.104 -0.3742 -0.1348  0.0814
32234SOL    HW197280   7.606   8.773   3.022 -0.8621 -0.7171  0.1863
32234SOL    HW297281   7.653   8.862   3.135  0.3329 -1.2094  0.0834
32235SOL     OW97282   4.184   1.043   6.877 -0.2112  0.2269  0.4117
32235SOL    HW197283   4.245   1.096   6.826  0.5145 -1.6101 -0.7387
32235SOL    HW297284   4.238   1.003   6.945 -0.6347  0.5113  0.9211
32236SOL     OW97285   3.546   3.890   6.233  0.0389  0.1867 -0.0562
32236SOL    HW197286   3.615   3.882   6.166  0.6049 -0.0202  0.5409
32236SOL    HW297287   3.465   3.897   6.183  0.0857 -3.0116 -0.8172
32237SOL     OW97288   8.463   9.326   8.952 -0.4802  0.7396 -0.1752
32237SOL    HW197289   8.535   9.320   9.015  0.4871  2.5277 -1.0446
32237SOL    HW297290   8.432   9.236   8.943  0.5652  0.1656  1.4483
32238SOL     OW97291   2.636   6.840   2.396 -0.2390 -0.0344  0.3210
32238SOL    HW197292   2.642   6.830   2.301 -0.6821  1.6622  0.0816
32238SOL    HW297293   2.722   6.816   2.429 -0.2867 -1.3111 -0.4320
32239SOL     OW97294   4.849   8.326   5.903  0.3691 -0.0038  0.2824
32239SOL    HW197295   4.759   8.292   5.905  0.6319 -0.6856  1.1306
32239SOL    HW297296   4.868   8.348   5.994  1.7052 -1.6470  0.4567
32240SOL     OW97297   2.423   4.144   8.727  0.4818  0.4042  0.2654
32240SOL    HW197298   2.483   4.069   8.718  0.3149  0.3484 -0.4697
32240SOL    HW297299   2.367   4.121   8.801 -0.0285 -0.5371 -0.3871
32241SOL     OW97300   0.529   0.431   9.262  0.2670 -0.2079 -0.2189
32241SOL    HW197301   0.565   0.359   9.210  0.8278  0.1370 -0.3269
32241SOL    HW297302   0.470   0.477   9.202  0.7136  0.0359 -0.4786
32242SOL     OW97303   6.450   9.501   6.800 -0.4445  0.3713 -0.2911
32242SOL    HW197304   6.384   9.451   6.752 -1.0691  1.1479 -0.2733
32242SOL    HW297305   6.400   9.553   6.862  0.2364  0.5608  0.1120
32243SOL     OW97306   8.011   4.398   9.537  0.5984 -0.2567 -0.3585
32243SOL    HW197307   7.982   4.488   9.523  0.2481 -0.2662  0.3130
32243SOL    HW297308   8.079   4.404   9.603 -0.0538 -0.5785  0.3554
32244SOL     OW97309   9.715   5.119   7.976  0.7552 -0.3350  0.1746
32244SOL    HW197310   9.797   5.164   7.955  1.0168 -0.8471  0.0807
32244SOL    HW297311   9.743   5.037   8.018  0.2729  0.3283  1.9026
32245SOL     OW97312   1.105   2.667   1.715 -0.4825 -0.3360 -0.1183
32245SOL    HW197313   1.072   2.634   1.632 -0.9445 -0.2447  0.0270
32245SOL    HW297314   1.200   2.666   1.705 -0.5554  0.8496 -1.1003
32246SOL     OW97315   8.783   4.972   7.782  0.1403  0.1934  0.5620
32246SOL    HW197316   8.779   4.991   7.876 -0.2819 -0.6998  0.7354
32246SOL    HW297317   8.713   5.024   7.744 -0.4514 -0.3392  0.9100
32247SOL     OW97318   4.180   3.654   3.184  0.1557 -0.2148  0.1776
32247SOL    HW197319   4.147   3.662   3.094 -0.0594 -0.4526  0.2357
32247SOL    HW297320   4.128   3.584   3.223 -0.4280  0.5327  0.7938
32248SOL     OW97321   5.976   9.706   6.194 -0.0450 -0.5106 -0.3796
32248SOL    HW197322   6.031   9.678   6.121 -1.0292 -1.7420 -0.6857
32248SOL    HW297323   5.888   9.715   6.157 -0.6101 -1.3914  0.6802
32249SOL     OW97324   0.148   8.322   8.176 -0.0960  0.7696 -0.5578
32249SOL    HW197325   0.213   8.254   8.196  1.2571  1.7959 -1.2986
32249SOL    HW297326   0.069   8.273   8.153  0.3911 -0.5160  0.4158
32250SOL     OW97327   7.526   8.530   2.610  0.1616 -0.5586  0.3458
32250SOL    HW197328   7.456   8.475   2.576  0.0277 -0.1248 -0.0901
32250SOL    HW297329   7.589   8.535   2.539 -1.2487  2.3549 -0.8606
32251SOL     OW97330   1.434   9.153   6.378  0.3018 -0.2620 -0.5484
32251SOL    HW197331   1.497   9.120   6.442 -0.3176  0.9129  0.7337
32251SOL    HW297332   1.480   9.150   6.294  1.3202 -1.3640  0.0297
32252SOL     OW97333   8.945   5.082   5.580 -0.4153 -0.4817  0.0073
32252SOL    HW197334   8.957   5.004   5.525 -1.4561 -0.4105 -0.3571
32252SOL    HW297335   9.012   5.076   5.647  0.7895 -0.6604 -1.1853
32253SOL     OW97336   3.581   5.391   0.835  0.3311  0.2452  0.1865
32253SOL    HW197337   3.666   5.417   0.799  0.2171 -0.7951 -0.9052
32253SOL    HW297338   3.553   5.318   0.780 -0.6115 -0.3662  1.4139
32254SOL     OW97339   4.344   3.311   0.512  0.2991 -0.4407 -0.3989
32254SOL    HW197340   4.349   3.405   0.529  1.1157 -0.5882  0.2198
32254SOL    HW297341   4.416   3.294   0.451  0.5668 -0.7752  0.0123
32255SOL     OW97342   3.419   2.207   7.927 -0.1940 -0.1432 -0.0958
32255SOL    HW197343   3.351   2.272   7.913 -0.3730 -0.3726 -0.2962
32255SOL    HW297344   3.375   2.136   7.975  0.2764  0.3930  1.1733
32256SOL     OW97345   6.029   5.744   6.697 -0.1373 -0.2850  0.2095
32256SOL    HW197346   5.949   5.714   6.739 -0.0339 -0.4886  0.2675
32256SOL    HW297347   6.056   5.821   6.747 -0.3044 -0.2068  0.1795
32257SOL     OW97348   9.001   2.303   7.757  0.1025 -0.1989 -0.4354
32257SOL    HW197349   8.927   2.363   7.746 -0.3804 -0.8937 -1.1294
32257SOL    HW297350   8.965   2.217   7.735  1.2845 -0.4577 -1.4705
32258SOL     OW97351   6.487   8.492   0.203 -0.2231 -0.1668  0.7193
32258SOL    HW197352   6.491   8.460   0.113  1.9367 -0.2255  0.7949
32258SOL    HW297353   6.420   8.561   0.200  0.6187  0.6549 -1.2154
32259SOL     OW97354   9.335   3.344   9.403 -0.6313  0.1992  0.0430
32259SOL    HW197355   9.384   3.424   9.385  0.2846 -0.2398  0.5738
32259SOL    HW297356   9.303   3.355   9.492 -1.1699  0.3026 -0.1553
32260SOL     OW97357   6.844   8.468   1.293  0.5680 -0.2049 -0.2636
32260SOL    HW197358   6.863   8.502   1.206 -2.0351 -1.4339 -1.3809
32260SOL    HW297359   6.929   8.436   1.325  1.8583  1.5885 -1.6710
32261SOL     OW97360   3.090   5.081   5.422  0.1971 -0.4850  0.7928
32261SOL    HW197361   3.104   5.076   5.517  0.6969  1.9346  0.9149
32261SOL    HW297362   3.055   5.169   5.408  0.9573 -0.4729 -1.3629
32262SOL     OW97363   6.649   7.473   7.350 -0.1060 -0.2980  0.2015
32262SOL    HW197364   6.691   7.397   7.308  0.4324  0.5905 -0.9224
32262SOL    HW297365   6.555   7.458   7.336  0.0771  0.5459 -2.4771
32263SOL     OW97366   0.357   4.301   7.912 -0.2700  0.6021 -0.4859
32263SOL    HW197367   0.358   4.367   7.843 -1.7569  1.2835  0.1094
32263SOL    HW297368   0.293   4.333   7.976 -2.1068 -2.0672 -0.8201
32264SOL     OW97369   3.333   1.289   4.022  0.1978 -0.4899  0.0820
32264SOL    HW197370   3.249   1.247   4.041 -0.5459  1.6586  2.1722
32264SOL    HW297371   3.380   1.287   4.106  1.4218  0.0632 -0.5577
32265SOL     OW97372   7.886   1.120   5.080  0.4620  0.4354 -0.9295
32265SOL    HW197373   7.937   1.199   5.094 -0.0153  1.0810 -2.5822
32265SOL    HW297374   7.950   1.049   5.078  1.1062  1.0147 -1.2096
32266SOL     OW97375   8.917   8.619   8.855  0.3670 -0.0086  0.0685
32266SOL    HW197376   8.951   8.698   8.897  1.0588  0.7621 -1.8612
32266SOL    HW297377   8.871   8.650   8.778  0.9764 -1.5162 -0.9529
32267SOL     OW97378   5.928   9.667   5.342 -0.2735 -0.2964  0.4044
32267SOL    HW197379   5.859   9.733   5.344  0.6993  0.7508  0.6942
32267SOL    HW297380   5.937   9.646   5.249 -0.3456  0.2696  0.2627
32268SOL     OW97381   5.733   2.383   7.596 -0.0079  0.1335 -0.4204
32268SOL    HW197382   5.803   2.412   7.655  1.0539 -0.2528 -1.4649
32268SOL    HW297383   5.674   2.458   7.592  0.6953  0.7245 -0.0529
32269SOL     OW97384   8.297   3.728   4.349 -0.1655  0.0430  0.2288
32269SOL    HW197385   8.211   3.709   4.311  0.2676 -2.2020  0.2556
32269SOL    HW297386   8.277   3.761   4.437 -1.0594 -2.9329  1.2735
32270SOL     OW97387   0.320   3.828   6.220 -0.2253  0.1736 -0.3329
32270SOL    HW197388   0.295   3.896   6.158 -1.2472 -0.2752 -0.4292
32270SOL    HW297389   0.352   3.756   6.166 -1.2456 -0.2704 -0.3632
32271SOL     OW97390   4.955   6.856   3.166  0.4604 -0.1562  0.0066
32271SOL    HW197391   4.956   6.854   3.070  2.7495 -0.4352 -0.0140
32271SOL    HW297392   5.040   6.893   3.190  0.2474 -0.8326  1.9367
32272SOL     OW97393   5.482   9.687   8.349 -0.0814 -0.1652 -0.1654
32272SOL    HW197394   5.560   9.739   8.328 -0.5948  0.2034 -1.1794
32272SOL    HW297395   5.502   9.648   8.434  0.8719  0.5888 -0.0324
32273SOL     OW97396   4.091   3.875   6.663 -0.7670 -0.0125 -0.2024
32273SOL    HW197397   4.160   3.810   6.647 -0.1363  0.6767 -0.3665
32273SOL    HW297398   4.020   3.848   6.605 -0.6906 -0.7988  0.0489
32274SOL     OW97399   1.248   0.375   7.981 -0.3114 -0.4711  0.1905
32274SOL    HW197400   1.184   0.382   7.911 -1.2880  0.5001  1.1431
32274SOL    HW297401   1.323   0.330   7.941 -0.4486  0.9076 -1.7312
32275SOL     OW97402   1.605   5.401   7.735 -0.2961  0.1904  0.5068
32275SOL    HW197403   1.633   5.480   7.688 -1.1123  0.9530  1.2592
32275SOL    HW297404   1.526   5.372   7.690 -0.2591  0.0714  0.5173
32276SOL     OW97405   6.406   6.907   7.502 -0.7058 -0.3288  0.3403
32276SOL    HW197406   6.355   6.910   7.583  0.2989 -0.3926  0.9791
32276SOL    HW297407   6.341   6.889   7.434 -1.5050 -0.6385  1.1703
32277SOL     OW97408   5.210   1.639   9.433 -0.1284  0.2858 -0.5006
32277SOL    HW197409   5.297   1.635   9.474  1.4797 -1.5862 -3.6571
32277SOL    HW297410   5.222   1.696   9.357 -1.6107 -0.1176 -1.0720
32278SOL     OW97411   4.828   6.946   4.343 -0.3889 -0.7996 -0.2819
32278SOL    HW197412   4.909   6.988   4.314  0.3690  0.3725  3.0585
32278SOL    HW297413   4.857   6.868   4.391 -1.3407 -1.2430 -0.4076
32279SOL     OW97414   5.711   7.771   8.041 -0.4976 -0.4184  0.1516
32279SOL    HW197415   5.728   7.864   8.024  1.2637 -0.9697 -1.4793
32279SOL    HW297416   5.617   7.762   8.032 -0.6054  1.0676 -0.5409
32280SOL     OW97417   6.514   3.006   9.375  0.1236 -0.3644 -0.0145
32280SOL    HW197418   6.558   2.953   9.308  1.8009  0.4292  0.3900
32280SOL    HW297419   6.586   3.037   9.432 -1.0689  0.3200  1.1878
32281SOL     OW97420   9.416   7.880   3.606  0.6989  0.2987  0.2873
32281SOL    HW197421   9.445   7.804   3.556  0.9835  1.0553 -0.7616
32281SOL    HW297422   9.484   7.946   3.589  0.6787  0.6510  1.5212
32282SOL     OW97423   8.010   0.748   0.137 -0.1767  0.3443 -0.0658
32282SOL    HW197424   7.944   0.777   0.074 -1.1289 -4.2587 -1.5599
32282SOL    HW297425   7.960   0.729   0.217  0.1071  0.9217  0.2547
32283SOL     OW97426   1.437   4.449   8.738 -0.1354  0.2617 -0.1559
32283SOL    HW197427   1.512   4.430   8.682 -0.4540  0.5062 -0.6718
32283SOL    HW297428   1.433   4.375   8.799  1.2377  0.8187  0.6681
32284SOL     OW97429   2.287   8.715   5.962 -0.2777 -0.0325  0.1191
32284SOL    HW197430   2.341   8.730   5.885 -0.4759 -1.5735 -0.3663
32284SOL    HW297431   2.270   8.620   5.961 -0.3958 -0.0758  1.9717
32285SOL     OW97432   7.698   2.551   4.280 -0.3702  0.0635 -0.0920
32285SOL    HW197433   7.655   2.616   4.336 -0.9822  0.2106 -0.7169
32285SOL    HW297434   7.790   2.577   4.279 -0.5117  0.5814  0.1289
32286SOL     OW97435   7.524   0.732   3.632 -0.6894 -0.0625 -0.6028
32286SOL    HW197436   7.574   0.757   3.710 -2.0191  0.3262  0.1517
32286SOL    HW297437   7.573   0.771   3.559  0.7420 -0.6889 -0.0175
32287SOL     OW97438   1.445   5.598   6.764 -0.1791  0.8832 -0.0344
32287SOL    HW197439   1.413   5.628   6.679 -0.3922 -0.8665 -0.5996
32287SOL    HW297440   1.485   5.513   6.747  1.3697  1.2687  1.3319
32288SOL     OW97441   9.079   7.718   3.273  0.1529  0.7064  0.5050
32288SOL    HW197442   9.087   7.801   3.320 -0.0125  2.0122 -1.6263
32288SOL    HW297443   9.009   7.671   3.318  0.5989  1.4789  2.0681
32289SOL     OW97444   6.931   9.608   9.678  0.6890 -0.1782  0.5859
32289SOL    HW197445   6.967   9.666   9.745 -0.2001  1.3228 -0.1874
32289SOL    HW297446   6.955   9.649   9.595  2.0849 -2.1921 -0.0777
32290SOL     OW97447   6.848   3.900   3.801  0.2363 -0.5143 -0.0083
32290SOL    HW197448   6.781   3.896   3.733  1.6701 -0.6368 -1.4740
32290SOL    HW297449   6.931   3.888   3.754  1.7425  4.0785  0.9663
32291SOL     OW97450   4.460   9.650   3.338  0.0266 -0.0353 -0.3432
32291SOL    HW197451   4.422   9.639   3.250 -0.4520 -2.1768  0.0822
32291SOL    HW297452   4.401   9.602   3.396  1.6124 -0.6576  0.8154
32292SOL     OW97453   0.472   1.827   5.524 -0.1451 -0.6557  0.2158
32292SOL    HW197454   0.545   1.871   5.567  0.2454 -1.5797  0.5253
32292SOL    HW297455   0.480   1.850   5.432  0.0618 -0.1053  0.3705
32293SOL     OW97456   2.341   8.887   4.989  0.0327 -0.2753 -0.2848
32293SOL    HW197457   2.266   8.906   4.932  1.0334  0.3929 -1.4337
32293SOL    HW297458   2.326   8.797   5.018 -2.5498  0.6382  1.6738
32294SOL     OW97459   5.908   1.213   0.985  0.1566  0.1035  0.7198
32294SOL    HW197460   5.825   1.190   1.026 -0.6345  0.7787 -0.4413
32294SOL    HW297461   5.967   1.233   1.058 -1.1466  1.1227  1.5357
32295SOL     OW97462   2.577   0.149   1.833 -0.2341  0.3541  0.0111
32295SOL    HW197463   2.596   0.181   1.921 -1.7998  0.0922  0.4779
32295SOL    HW297464   2.530   0.221   1.790 -1.4006 -0.2939  0.1534
32296SOL     OW97465   8.860   6.087   0.529  0.1888  0.5055  0.1676
32296SOL    HW197466   8.939   6.050   0.490  1.1042  1.4444  1.0758
32296SOL    HW297467   8.875   6.083   0.623 -0.8012  0.8138  0.3511
32297SOL     OW97468   8.007   0.842   8.903 -0.8528  1.0254  0.5802
32297SOL    HW197469   7.926   0.866   8.858 -0.6405 -0.1149 -0.4731
32297SOL    HW297470   7.984   0.764   8.954 -0.4131  0.6131  0.1695
32298SOL     OW97471   1.945   5.452   7.815  0.2110 -0.1795 -0.1941
32298SOL    HW197472   1.938   5.546   7.835 -1.5201 -0.0768 -1.1556
32298SOL    HW297473   1.878   5.411   7.870 -1.1518 -0.4600 -1.9866
32299SOL     OW97474   8.797   2.212   6.227  0.0240  0.4864 -0.0900
32299SOL    HW197475   8.711   2.191   6.265  0.1219  2.6051  1.4968
32299SOL    HW297476   8.857   2.150   6.269 -0.3651  0.7257  0.8624
32300SOL     OW97477   5.081   1.184   6.887  0.0705  0.2391  0.4622
32300SOL    HW197478   5.025   1.247   6.932 -1.6611 -1.3039  0.5886
32300SOL    HW297479   5.049   1.183   6.797  1.4993  1.0570 -0.0906
32301SOL     OW97480   2.223   5.377   5.225 -0.3361  0.2780  0.1679
32301SOL    HW197481   2.186   5.302   5.178 -0.1602  0.3239 -0.0460
32301SOL    HW297482   2.300   5.401   5.174 -1.5410  1.9345 -0.9666
32302SOL     OW97483   3.576   3.757   0.619  0.7008  0.1913  0.9422
32302SOL    HW197484   3.585   3.715   0.533  0.7956 -0.5456  1.3032
32302SOL    HW297485   3.496   3.718   0.655  0.8613  0.2329  1.3368
32303SOL     OW97486   1.700   9.475   0.268 -0.2203 -0.3963 -0.0016
32303SOL    HW197487   1.620   9.463   0.319  0.4204  0.6405  1.3132
32303SOL    HW297488   1.675   9.533   0.197 -0.6207  0.0619  0.5007
32304SOL     OW97489   7.117   4.852   0.985 -0.0964 -0.1638  0.1537
32304SOL    HW197490   7.067   4.890   0.913  0.0212  1.0028  0.6737
32304SOL    HW297491   7.078   4.890   1.064  0.4972 -0.5709  0.6494
32305SOL     OW97492   1.812   7.636   5.804  0.0113 -0.1703 -0.1891
32305SOL    HW197493   1.769   7.562   5.846  2.0141 -1.3869 -0.1241
32305SOL    HW297494   1.904   7.610   5.799  0.6275  1.9568 -0.9952
32306SOL     OW97495   5.673   8.835   5.666 -0.3042  0.0063 -0.0510
32306SOL    HW197496   5.677   8.823   5.571  1.4218 -0.7112  0.0680
32306SOL    HW297497   5.627   8.757   5.698  1.2636 -1.0093 -0.1445
32307SOL     OW97498   4.683   3.843   3.648  0.0299 -0.4080  0.4464
32307SOL    HW197499   4.649   3.903   3.714  1.4907  1.5688 -0.4951
32307SOL    HW297500   4.610   3.831   3.587 -0.3464  0.2479  0.7610
32308SOL     OW97501   3.522   6.017   2.858  0.4356 -0.0522 -0.0878
32308SOL    HW197502   3.489   6.034   2.947  0.2235 -0.9640  0.0122
32308SOL    HW297503   3.513   5.923   2.847  2.6183 -0.2808 -0.2304
32309SOL     OW97504   2.013   1.912   7.677  0.8438 -0.1691  0.0501
32309SOL    HW197505   2.015   2.000   7.639  1.1980 -0.2897 -0.2094
32309SOL    HW297506   2.089   1.868   7.640  0.4321 -0.7214 -0.1408
32310SOL     OW97507   2.559   4.656   9.403 -0.1609  0.5244  0.2975
32310SOL    HW197508   2.553   4.608   9.320 -0.7765  1.8000 -0.4372
32310SOL    HW297509   2.624   4.725   9.386 -2.5230  2.7777 -0.2377
32311SOL     OW97510   8.916   9.198   5.674  0.1345 -0.6813 -0.0338
32311SOL    HW197511   8.958   9.178   5.590  0.4903  1.0391 -0.3048
32311SOL    HW297512   8.961   9.142   5.737  2.7467  0.8553 -0.3585
32312SOL     OW97513   2.971   1.657   9.437 -0.1027  0.2582 -0.7069
32312SOL    HW197514   2.938   1.667   9.527  0.1500  2.5080 -0.8107
32312SOL    HW297515   2.990   1.746   9.409  0.6307 -0.4897 -2.7165
32313SOL     OW97516   3.065   1.788   3.839 -0.6362 -0.3886  0.4762
32313SOL    HW197517   3.026   1.714   3.884  0.8384 -1.4422  0.0961
32313SOL    HW297518   3.028   1.786   3.751 -2.4030  0.8026  1.1205
32314SOL     OW97519   8.098   8.998   2.410 -0.1929  0.2998  0.1202
32314SOL    HW197520   8.014   8.998   2.364  0.0278 -2.4064 -0.4857
32314SOL    HW297521   8.163   9.001   2.339  0.1565 -1.2999  0.3314
32315SOL     OW97522   2.577   3.155   3.388  0.8827 -0.5329  0.3980
32315SOL    HW197523   2.541   3.178   3.302  2.4421  1.4541  0.2277
32315SOL    HW297524   2.511   3.097   3.426 -1.9835  1.9750 -0.3636
32316SOL     OW97525   2.106   1.221   8.136  0.3189 -0.7914  0.3614
32316SOL    HW197526   2.162   1.226   8.214  0.1622  0.7873  0.4109
32316SOL    HW297527   2.018   1.238   8.170  0.3530  0.7225 -0.2430
32317SOL     OW97528   6.858   2.852   3.597  0.4441  0.1865  0.0444
32317SOL    HW197529   6.891   2.923   3.543 -0.8766  0.0377 -1.0045
32317SOL    HW297530   6.796   2.893   3.657 -0.1715 -0.0361 -0.4288
32318SOL     OW97531   9.935   5.107   5.565 -0.0696  0.2847 -0.5522
32318SOL    HW197532   9.872   5.167   5.604 -0.5268 -1.2626  1.3028
32318SOL    HW297533   9.883   5.034   5.534  0.7205 -1.2993  1.5445
32319SOL     OW97534   7.052   2.593   4.776  1.1732  0.2934  0.3976
32319SOL    HW197535   7.005   2.676   4.767 -0.0245 -0.4178 -0.1023
32319SOL    HW297536   7.027   2.543   4.698  1.4586 -0.7368  0.9553
32320SOL     OW97537   5.096   2.572   0.563  0.0792  0.0406 -0.3942
32320SOL    HW197538   5.118   2.589   0.471  1.6346 -0.8366 -0.2122
32320SOL    HW297539   5.058   2.484   0.563  0.3019 -0.0555 -0.1681
32321SOL     OW97540   5.779   0.497   8.582 -0.3005  0.1624 -0.2086
32321SOL    HW197541   5.803   0.554   8.509 -0.8470  1.0652  0.2962
32321SOL    HW297542   5.691   0.525   8.606 -0.0730 -0.0303  0.8828
32322SOL     OW97543   5.804   9.976   1.010  0.0086  0.1411 -0.9581
32322SOL    HW197544   5.781  10.022   0.929 -0.7176  2.1258  0.2960
32322SOL    HW297545   5.879   9.921   0.985 -0.0631  0.8302 -2.9240
32323SOL     OW97546   7.877   6.754   6.097 -0.8264  0.0150 -0.1608
32323SOL    HW197547   7.893   6.680   6.156 -0.9978  1.0463  1.2463
32323SOL    HW297548   7.785   6.777   6.112 -0.4825  1.1858  0.2706
32324SOL     OW97549   2.093   5.919   7.434  0.0111  0.5629 -0.0000
32324SOL    HW197550   2.063   6.002   7.473 -0.8186 -0.3915  1.5345
32324SOL    HW297551   2.111   5.940   7.343  2.0194  2.9411  0.8548
32325SOL     OW97552   3.786   2.145   0.148  0.0894 -0.1488  0.0006
32325SOL    HW197553   3.793   2.071   0.208  1.9629  0.9405  1.2517
32325SOL    HW297554   3.714   2.197   0.183  1.6102  0.8529  1.8793
32326SOL     OW97555   8.419   4.603   9.598  0.2505 -0.1518 -0.0396
32326SOL    HW197556   8.488   4.649   9.646  0.2040  0.8744 -0.9239
32326SOL    HW297557   8.456   4.516   9.582 -0.3825 -1.1899  3.2836
32327SOL     OW97558   5.532   4.171   8.101  0.2605  0.0086  0.0196
32327SOL    HW197559   5.540   4.138   8.012  0.6180  0.5452 -0.1465
32327SOL    HW297560   5.616   4.214   8.119  0.2903 -0.3085  0.7052
32328SOL     OW97561   4.045   1.287   7.988 -0.4946  0.7857  0.3181
32328SOL    HW197562   4.085   1.339   8.058  0.7382 -1.1865  1.1632
32328SOL    HW297563   4.095   1.310   7.910 -0.9180  1.9088  0.3550
32329SOL     OW97564   3.498   5.194   6.964 -0.2088 -0.2563 -0.0978
32329SOL    HW197565   3.527   5.109   6.996  1.0489  0.4419  0.6912
32329SOL    HW297566   3.404   5.195   6.982 -0.5204 -1.9658 -1.3313
32330SOL     OW97567   5.173   1.360   9.340  0.5591  0.7820  0.3136
32330SOL    HW197568   5.087   1.401   9.345  0.8090  1.4645 -0.8247
32330SOL    HW297569   5.230   1.416   9.394  0.6576  1.3065 -0.3296
32331SOL     OW97570   5.692   1.152   2.875 -0.4670  0.2941 -0.4835
32331SOL    HW197571   5.608   1.197   2.879  0.0645  1.3532 -0.7857
32331SOL    HW297572   5.712   1.130   2.966 -0.9593  0.2284 -0.3882
32332SOL     OW97573   0.011   3.891   7.035 -0.8522  0.0603  0.0019
32332SOL    HW197574   0.064   3.831   7.089  0.5735  1.2761  0.0161
32332SOL    HW297575   0.015   3.975   7.080 -0.2580  0.9291 -1.5696
32333SOL     OW97576   1.940   1.103   9.328 -1.2109  0.4622 -0.0455
32333SOL    HW197577   1.974   1.048   9.257  1.2958 -0.8500  1.9861
32333SOL    HW297578   1.878   1.047   9.374 -2.9020  1.3410 -1.1682
32334SOL     OW97579   7.622   3.360   7.171  0.5126 -0.0051 -0.4407
32334SOL    HW197580   7.714   3.336   7.178  1.1846  1.9022 -1.8661
32334SOL    HW297581   7.623   3.452   7.145 -1.8208  0.4734  0.8477
32335SOL     OW97582   2.015   9.165   6.066  0.0176 -0.1904  0.4416
32335SOL    HW197583   2.002   9.114   5.986 -0.6202  1.1363 -0.3224
32335SOL    HW297584   2.095   9.128   6.104  0.4032 -0.7760 -0.8564
32336SOL     OW97585   2.492   6.816   0.186 -0.6798  1.1525  0.7885
32336SOL    HW197586   2.538   6.750   0.133  1.5036  1.9366  1.5946
32336SOL    HW297587   2.460   6.767   0.262  0.1725  0.8561  0.9659
32337SOL     OW97588   4.052   2.501   6.372 -0.0087 -0.2937 -0.4490
32337SOL    HW197589   4.133   2.540   6.402  0.1788 -0.4968 -0.6893
32337SOL    HW297590   4.071   2.468   6.284 -0.9611  1.6110 -1.4341
32338SOL     OW97591   9.207   3.158   0.549 -0.2158 -0.2020 -0.2866
32338SOL    HW197592   9.235   3.068   0.565  1.7013  0.0785 -1.7083
32338SOL    HW297593   9.277   3.212   0.585 -0.9692  0.7182 -0.1507
32339SOL     OW97594   6.628   4.788   4.683 -0.2500 -0.1975  0.4078
32339SOL    HW197595   6.603   4.879   4.694  1.9247  0.5155  0.0006
32339SOL    HW297596   6.547   4.738   4.697 -1.4811  1.7718  0.6124
32340SOL     OW97597   6.271   0.378   4.239 -0.4007  0.6722  0.1849
32340SOL    HW197598   6.340   0.442   4.256  0.9134 -0.7970  0.5866
32340SOL    HW297599   6.296   0.336   4.157 -0.3599 -0.4597  0.7674
32341SOL     OW97600   1.668   7.198   9.758 -0.3325  0.3575  0.0242
32341SOL    HW197601   1.671   7.115   9.710  2.0759  1.4136 -1.8531
32341SOL    HW297602   1.642   7.263   9.692  0.4843  1.4899  0.7804
32342SOL     OW97603   4.703   1.992   8.527  0.0757  0.2287 -0.6026
32342SOL    HW197604   4.757   1.930   8.478 -1.0276 -1.2909  0.0190
32342SOL    HW297605   4.710   1.963   8.618 -0.1983  1.2277 -0.2561
32343SOL     OW97606   8.893   7.219   4.588  0.9850 -0.1418  0.3798
32343SOL    HW197607   8.806   7.179   4.585  0.9490 -0.0334 -0.1379
32343SOL    HW297608   8.920   7.224   4.496  0.7702  1.4851  0.3827
32344SOL     OW97609   0.290   0.737   5.260 -0.3727 -0.2433 -0.3531
32344SOL    HW197610   0.294   0.643   5.279  0.4296 -0.0298  0.6109
32344SOL    HW297611   0.378   0.760   5.231 -0.4667  0.2717 -0.2404
32345SOL     OW97612   7.865   1.446   5.645  0.5474 -0.5757 -0.1546
32345SOL    HW197613   7.797   1.503   5.681  0.6429 -0.5113 -0.0769
32345SOL    HW297614   7.833   1.421   5.559  0.3838 -0.6154 -0.0822
32346SOL     OW97615   0.866   8.679   2.057  0.4081 -0.0996 -0.0051
32346SOL    HW197616   0.949   8.643   2.089  0.8571  1.3050  0.4686
32346SOL    HW297617   0.808   8.674   2.133  1.4428  3.1350  1.1704
32347SOL     OW97618   2.916   8.293   8.389  0.5690 -0.0738  0.2034
32347SOL    HW197619   2.873   8.366   8.434 -0.5255 -1.3645  1.3582
32347SOL    HW297620   2.979   8.335   8.330 -0.8932  1.8376 -0.1186
32348SOL     OW97621   4.167   8.626   3.112 -0.3838 -0.0657 -0.2452
32348SOL    HW197622   4.233   8.695   3.112 -0.5959  0.1621 -1.6267
32348SOL    HW297623   4.217   8.545   3.100 -0.1687 -0.1551  1.0396
32349SOL     OW97624   7.955   9.050   5.020  0.0678 -0.0108 -0.1443
32349SOL    HW197625   7.897   9.080   5.089 -1.3527  1.2687 -1.7925
32349SOL    HW297626   8.005   8.979   5.059 -0.8337  0.5063  2.0914
32350SOL     OW97627   8.251   7.126   1.351  0.1460 -0.8144 -0.4728
32350SOL    HW197628   8.272   7.052   1.294  1.7703 -0.5886 -0.2164
32350SOL    HW297629   8.312   7.118   1.425  0.2936  0.7029 -0.3882
32351SOL     OW97630   4.207   0.151   1.460 -0.2706 -0.4824  0.5736
32351SOL    HW197631   4.130   0.097   1.481 -0.2463 -0.2034  1.3976
32351SOL    HW297632   4.171   0.238   1.444 -0.4061 -0.8867 -1.5720
32352SOL     OW97633   0.683   5.612   5.578 -0.4154  0.1650 -0.0288
32352SOL    HW197634   0.624   5.681   5.546  0.0358  0.7980  0.4988
32352SOL    HW297635   0.701   5.559   5.500  0.7629  1.7606 -0.9139
32353SOL     OW97636   2.414   7.937   9.411 -0.6241  0.6900 -0.2673
32353SOL    HW197637   2.461   7.876   9.354  0.1273  1.6713 -0.7494
32353SOL    HW297638   2.376   7.883   9.479  0.0785 -0.3019 -0.6397
32354SOL     OW97639   0.796   6.027   0.210 -0.0848  0.3257  0.0117
32354SOL    HW197640   0.886   6.044   0.180 -0.3400  1.3232 -0.2139
32354SOL    HW297641   0.808   5.988   0.297  0.5883 -0.4686 -0.4168
32355SOL     OW97642   8.269   3.371   1.747 -0.1850 -0.1973  0.1895
32355SOL    HW197643   8.177   3.342   1.750 -0.4180  0.5012 -0.0284
32355SOL    HW297644   8.308   3.334   1.826 -0.8291  0.0513  0.6399
32356SOL     OW97645   1.327   0.709   1.666 -0.4678  0.1405  0.3989
32356SOL    HW197646   1.378   0.685   1.744 -0.6058  0.3822  0.5654
32356SOL    HW297647   1.339   0.636   1.606  2.0868  1.2403 -0.5588
32357SOL     OW97648   8.437   7.914   8.295  0.8405  0.1033 -0.1660
32357SOL    HW197649   8.476   7.879   8.375 -1.7930 -1.5424  0.5260
32357SOL    HW297650   8.426   8.008   8.312  1.6179  0.0296  0.8176
32358SOL     OW97651   6.440   6.883   4.618 -0.1145 -0.3802  1.1641
32358SOL    HW197652   6.429   6.975   4.594 -1.4120 -0.8388 -0.0964
32358SOL    HW297653   6.534   6.867   4.609  0.0459  0.6652  0.8464
32359SOL     OW97654   6.182   5.451   7.786  0.0571  0.3189 -0.0089
32359SOL    HW197655   6.260   5.505   7.771 -0.7363  1.6542  0.4420
32359SOL    HW297656   6.192   5.377   7.727  0.8827  1.3000 -1.1504
32360SOL     OW97657   7.122   4.514   9.933  0.1660 -0.2466  0.5576
32360SOL    HW197658   7.212   4.543   9.951  0.4509 -0.3338 -0.6903
32360SOL    HW297659   7.122   4.421   9.957  1.1529 -0.9264 -1.8259
32361SOL     OW97660   8.419   9.084   0.209  0.8487  0.2168 -0.4695
32361SOL    HW197661   8.510   9.114   0.215  1.4171 -1.3975 -0.5661
32361SOL    HW297662   8.412   9.015   0.275 -0.7476  1.2994  0.5597
32362SOL     OW97663   0.729   1.869   1.767 -0.3279  0.2835  0.2919
32362SOL    HW197664   0.756   1.936   1.704 -0.1035 -0.0890 -0.0154
32362SOL    HW297665   0.637   1.853   1.748 -0.3927  0.5369  0.3957
32363SOL     OW97666   5.159   8.358   3.696 -0.3791 -0.0864  0.5637
32363SOL    HW197667   5.119   8.274   3.722 -1.6167  0.5022  0.6590
32363SOL    HW297668   5.127   8.372   3.607  0.0962  0.1345  0.4267
32364SOL     OW97669   9.552   1.925   3.187 -0.6437 -0.0549 -0.0869
32364SOL    HW197670   9.582   1.863   3.121  1.5593 -0.5757  1.3130
32364SOL    HW297671   9.481   1.879   3.233 -1.1046 -0.2981 -1.0186
32365SOL     OW97672   1.022   0.284   3.677 -0.0891 -0.0955  0.1456
32365SOL    HW197673   0.971   0.268   3.597  2.2473 -0.1898 -1.4203
32365SOL    HW297674   1.040   0.197   3.712 -1.0579 -0.0569  0.7775
32366SOL     OW97675   8.913   2.196   3.355 -0.1162 -0.4357  0.3363
32366SOL    HW197676   8.917   2.289   3.376 -1.6981 -0.0414 -0.9062
32366SOL    HW297677   8.978   2.184   3.286 -0.6705 -0.0092 -0.2681
32367SOL     OW97678   2.751   2.254   1.928 -0.2205 -0.0258 -0.1530
32367SOL    HW197679   2.820   2.198   1.963  0.3905  1.1477  0.5522
32367SOL    HW297680   2.780   2.343   1.946 -1.5844  0.5132 -0.4838
32368SOL     OW97681   6.582   7.814   5.076  0.2302  0.2900 -0.4884
32368SOL    HW197682   6.643   7.888   5.066  0.3651  0.2475 -0.0168
32368SOL    HW297683   6.515   7.848   5.136  0.7444 -0.2383  0.4112
32369SOL     OW97684   8.647   0.673   0.272 -0.6794 -0.0761 -0.5285
32369SOL    HW197685   8.634   0.580   0.254 -0.8418  0.0429 -1.0379
32369SOL    HW297686   8.577   0.717   0.223 -1.3328  0.2412  0.6420
32370SOL     OW97687   3.671   9.909   7.456 -0.1358 -0.2497 -0.1497
32370SOL    HW197688   3.614   9.921   7.532 -1.0408  0.0825 -0.8603
32370SOL    HW297689   3.729   9.837   7.481  1.2602  1.4417  1.8153
32371SOL     OW97690   8.592   5.014   7.107  0.5740 -0.3560 -0.1459
32371SOL    HW197691   8.622   5.105   7.096 -0.3611 -0.1657 -1.4050
32371SOL    HW297692   8.504   5.023   7.143 -0.1448 -0.6839 -1.7482
32372SOL     OW97693   1.771   5.922   8.324 -0.2543  0.3493 -0.3180
32372SOL    HW197694   1.822   6.004   8.319  0.2164  0.0716 -0.1539
32372SOL    HW297695   1.726   5.928   8.408 -0.5502  0.6291 -0.4950
32373SOL     OW97696   8.598   8.354   2.164  0.3860 -0.8388 -0.0085
32373SOL    HW197697   8.530   8.346   2.097 -1.7687  1.7182  1.6261
32373SOL    HW297698   8.680   8.340   2.117 -1.1256 -2.2462 -2.4767
32374SOL     OW97699   5.029   8.580   2.950  0.5188  0.3408 -0.0104
32374SOL    HW197700   5.057   8.652   3.007 -0.0676  0.1254  0.5614
32374SOL    HW297701   4.941   8.606   2.922  0.8872  0.5508 -1.0060
32375SOL     OW97702   3.970   4.995   6.014  0.1064  0.5943 -0.8250
32375SOL    HW197703   3.882   5.033   6.022 -0.5959 -0.8181 -1.4420
32375SOL    HW297704   3.986   4.991   5.920  0.6546  0.4474 -0.7278
32376SOL     OW97705   7.420   9.462   1.520 -0.5270  0.4849 -0.1024
32376SOL    HW197706   7.383   9.512   1.447  0.3812  0.6399 -0.4690
32376SOL    HW297707   7.345   9.420   1.561 -0.9445 -0.4375 -1.7546
32377SOL     OW97708   5.077   4.072   3.131 -0.0886  0.3978 -0.1094
32377SOL    HW197709   4.989   4.036   3.123 -0.3100  1.0573 -0.7997
32377SOL    HW297710   5.096   4.109   3.045  2.2669 -2.8083 -1.1519
32378SOL     OW97711   1.805   5.162   2.694 -0.8484  0.3243 -0.0707
32378SOL    HW197712   1.789   5.179   2.787  5.2107  1.8691  1.1418
32378SOL    HW297713   1.818   5.248   2.656  3.2637 -0.2960 -0.5313
32379SOL     OW97714   9.814   3.404   7.317  0.2340 -0.0068  0.0778
32379SOL    HW197715   9.756   3.370   7.385  1.2249  0.1392  1.0422
32379SOL    HW297716   9.817   3.335   7.251 -0.5242 -0.2790  0.3162
32380SOL     OW97717   4.944   3.816   5.873 -0.5201 -0.2822 -0.3559
32380SOL    HW197718   4.944   3.881   5.802  2.0420 -0.2381 -0.3861
32380SOL    HW297719   4.940   3.732   5.827 -0.7070 -0.2195 -0.4572
32381SOL     OW97720   8.890   6.178   2.602 -0.6124  0.3829  0.0732
32381SOL    HW197721   8.954   6.107   2.605  1.5440  2.0815 -1.9356
32381SOL    HW297722   8.835   6.156   2.527 -1.5351 -0.3558  0.9412
32382SOL     OW97723   6.497   5.077   2.758 -0.0676  0.6716 -0.7109
32382SOL    HW197724   6.577   5.127   2.777 -0.0843  0.8626 -1.1349
32382SOL    HW297725   6.431   5.144   2.739 -0.3934  0.5230 -0.1234
32383SOL     OW97726   3.949   1.635   1.205  0.3639  0.4485 -0.1733
32383SOL    HW197727   3.956   1.566   1.139 -0.0791 -0.0035  0.2476
32383SOL    HW297728   3.856   1.654   1.211  0.1608 -0.7697  1.5663
32384SOL     OW97729   8.890   6.617   4.392  0.3876 -0.0019 -0.0479
32384SOL    HW197730   8.902   6.680   4.321 -1.0052  1.6125  1.0686
32384SOL    HW297731   8.804   6.579   4.376  1.2172 -1.6741 -0.7072
32385SOL     OW97732   3.014   1.847   5.574 -0.0440  0.0151 -0.1392
32385SOL    HW197733   2.976   1.785   5.511 -1.6414  0.3528  0.4447
32385SOL    HW297734   2.947   1.914   5.585  0.5385  0.3974  1.3048
32386SOL     OW97735   1.137   9.831   2.217  0.1972 -0.3126  0.1825
32386SOL    HW197736   1.075   9.758   2.209  0.1047 -0.4634  1.9725
32386SOL    HW297737   1.164   9.830   2.309  0.7648  1.4589  0.0690
32387SOL     OW97738   9.523   0.919   7.953 -0.0502 -0.3382 -0.1623
32387SOL    HW197739   9.527   0.850   8.020  2.4548 -0.2533 -0.1072
32387SOL    HW297740   9.530   0.872   7.870 -0.5111 -0.2718 -0.2416
32388SOL     OW97741   2.398   4.786   0.081  0.1433  0.3193 -0.3839
32388SOL    HW197742   2.454   4.800   0.005  0.7289  2.0781  0.3242
32388SOL    HW297743   2.334   4.721   0.052  1.9877 -1.1114 -1.4973
32389SOL     OW97744   1.143   8.233   8.307 -0.3132 -0.2280  0.4563
32389SOL    HW197745   1.140   8.318   8.350  0.2876 -0.1349  0.3197
32389SOL    HW297746   1.064   8.187   8.338 -0.9884  0.6097  0.0264
32390SOL     OW97747   5.043   6.605   3.148 -0.0077 -0.5537 -0.1560
32390SOL    HW197748   5.008   6.693   3.159 -0.7658 -0.9957  1.1351
32390SOL    HW297749   5.058   6.574   3.237  1.9088 -1.1009 -0.6276
32391SOL     OW97750   9.849   6.052   0.181  0.4354  0.3049  0.0198
32391SOL    HW197751   9.847   6.099   0.264 -1.0165 -1.1997  0.8968
32391SOL    HW297752   9.829   5.962   0.204 -0.4846 -0.0673 -2.0247
32392SOL     OW97753   3.708   2.830   4.840  0.1466  0.1556  0.2431
32392SOL    HW197754   3.675   2.807   4.754  1.4353 -1.1474  0.0506
32392SOL    HW297755   3.800   2.854   4.825  0.8365 -1.5527  1.4065
32393SOL     OW97756   2.424   1.463   0.875  0.6010 -0.1395  0.5025
32393SOL    HW197757   2.463   1.386   0.918  1.3653  0.6548  1.2717
32393SOL    HW297758   2.498   1.522   0.860  0.2073 -0.0158 -1.1461
32394SOL     OW97759   0.879   5.943   0.724  0.4176 -0.4015 -0.7901
32394SOL    HW197760   0.879   5.885   0.800  1.7267  1.0163  0.3532
32394SOL    HW297761   0.847   6.027   0.757  2.5283  0.7130 -1.3600
32395SOL     OW97762   5.652   4.699   5.417 -0.1475 -0.0860 -0.4013
32395SOL    HW197763   5.694   4.624   5.377 -1.3928  0.3092 -2.6164
32395SOL    HW297764   5.718   4.768   5.414  0.5826 -0.7189  0.5223
32396SOL     OW97765   0.331   3.580   2.985 -0.3415  0.2390 -0.5586
32396SOL    HW197766   0.386   3.552   2.912  0.5327 -0.0216  0.1855
32396SOL    HW297767   0.389   3.578   3.061 -1.1934  0.6685  0.1185
32397SOL     OW97768   7.333   7.672   4.477 -0.5289  0.2203  0.1040
32397SOL    HW197769   7.384   7.642   4.403 -0.3491  0.0249  0.3047
32397SOL    HW297770   7.292   7.593   4.512 -0.6643  0.3195  0.1749
32398SOL     OW97771   8.136   5.335   9.566 -0.3168 -0.2403 -0.4673
32398SOL    HW197772   8.153   5.260   9.623 -0.6503 -0.4012 -0.5756
32398SOL    HW297773   8.094   5.399   9.624  0.9763  0.3125 -0.1045
32399SOL     OW97774   0.116   7.969   8.890 -0.4288 -0.4909  0.3011
32399SOL    HW197775   0.078   8.018   8.963  0.6051 -0.9675  1.1870
32399SOL    HW297776   0.056   7.896   8.877 -0.1246 -0.9395  1.3361
32400SOL     OW97777   7.629   9.719   2.365  0.4015  0.1931 -0.0816
32400SOL    HW197778   7.622   9.807   2.328 -0.8827 -0.0450 -0.4248
32400SOL    HW297779   7.654   9.664   2.290 -1.1177 -0.1057 -0.4007
32401SOL     OW97780   0.305   5.284   5.935  0.6364 -0.5248  0.1237
32401SOL    HW197781   0.378   5.324   5.887  0.9022 -1.4346 -0.2410
32401SOL    HW297782   0.294   5.198   5.895 -0.9310 -0.2349 -0.1224
32402SOL     OW97783   0.247   4.854   9.972 -0.0876  0.1281  0.4680
32402SOL    HW197784   0.251   4.765  10.008  2.4125  0.4471  1.1505
32402SOL    HW297785   0.332   4.866   9.930 -0.7243  1.9062 -0.3941
32403SOL     OW97786   7.307   9.105   2.027 -0.3897  0.2626 -0.5140
32403SOL    HW197787   7.399   9.080   2.020 -0.4702 -0.1184 -0.2404
32403SOL    HW297788   7.298   9.140   2.115 -0.8550 -1.2024  0.0526
32404SOL     OW97789   5.298   2.726   5.908  0.3245 -0.6534 -0.4631
32404SOL    HW197790   5.303   2.634   5.933  2.0963 -0.6507 -0.7249
32404SOL    HW297791   5.379   2.764   5.941 -0.6481  0.9680  0.1644
32405SOL     OW97792   0.685   0.200   2.943  0.3842  0.9072  0.2859
32405SOL    HW197793   0.617   0.265   2.963  0.9974  0.8471  2.9033
32405SOL    HW297794   0.652   0.118   2.979  0.2828  0.0410 -1.6762
32406SOL     OW97795   8.350   2.955   1.694  0.3121  0.8618  0.6059
32406SOL    HW197796   8.333   3.034   1.642  2.2028  1.0584  0.2033
32406SOL    HW297797   8.418   2.981   1.756  0.8835 -0.4129  0.5507
32407SOL     OW97798   3.862   6.241   8.705 -0.3318  0.1889  0.2119
32407SOL    HW197799   3.774   6.273   8.682 -0.1299  0.6801  0.1122
32407SOL    HW297800   3.877   6.272   8.794 -0.2729  0.0710  0.2432
32408SOL     OW97801   2.243   7.271   9.337  0.0503  0.2843  0.3814
32408SOL    HW197802   2.318   7.240   9.387 -0.1445  0.6552  0.9153
32408SOL    HW297803   2.168   7.262   9.396 -0.4987 -0.9611 -0.4577
32409SOL     OW97804   5.905   1.066   7.170  0.1558  0.4454 -0.2727
32409SOL    HW197805   5.940   1.072   7.260 -0.2983  0.0191 -0.0661
32409SOL    HW297806   5.846   0.991   7.172  0.5753  0.0882 -1.0831
32410SOL     OW97807   4.841   8.720   4.403  0.3370  0.5125 -0.0602
32410SOL    HW197808   4.933   8.724   4.428  0.1540  1.3400  0.5469
32410SOL    HW297809   4.841   8.687   4.313  1.0648 -1.8952  0.7631
32411SOL     OW97810   6.959   9.417   2.093 -0.1968 -0.3608  0.0336
32411SOL    HW197811   6.987   9.353   2.158 -2.1294 -0.6336  0.6697
32411SOL    HW297812   6.940   9.496   2.143  1.0387  0.3576 -0.5952
32412SOL     OW97813   1.288   8.200   0.247  0.1181 -0.3455 -0.0294
32412SOL    HW197814   1.359   8.187   0.184 -0.7327 -1.0130 -0.8947
32412SOL    HW297815   1.217   8.145   0.214 -0.0267 -1.5472  2.0985
32413SOL     OW97816   4.648   8.255   2.014 -0.0054 -0.0289 -0.0676
32413SOL    HW197817   4.654   8.348   2.036  0.7347 -0.0774 -0.0285
32413SOL    HW297818   4.616   8.255   1.924  1.0750  0.3136 -0.4717
32414SOL     OW97819   1.206   4.606   7.633 -0.1280 -0.1382  0.4594
32414SOL    HW197820   1.133   4.598   7.572  1.2764  0.3733 -1.3954
32414SOL    HW297821   1.200   4.695   7.667 -0.9746 -0.4551  1.1743
32415SOL     OW97822   4.418   5.343   9.157  0.2983  1.1118 -0.1720
32415SOL    HW197823   4.345   5.310   9.209 -0.3415  3.3319  0.4505
32415SOL    HW297824   4.443   5.425   9.199  3.0921  0.5290 -0.4689
32416SOL     OW97825   4.668   0.453   8.089 -0.0936  0.2147  0.2321
32416SOL    HW197826   4.716   0.440   8.007 -0.3965  1.5044 -0.1776
32416SOL    HW297827   4.734   0.483   8.151 -0.0488  0.2792  0.1540
32417SOL     OW97828   5.998   1.498   0.308 -0.1511  0.0656 -0.1159
32417SOL    HW197829   5.924   1.549   0.341  0.4214 -0.0138  1.4033
32417SOL    HW297830   6.006   1.425   0.370 -0.3222 -1.3380 -1.6668
32418SOL     OW97831   4.266   3.150   3.712  0.0521  0.0595 -0.2438
32418SOL    HW197832   4.214   3.073   3.691  0.8679 -0.5110 -0.2069
32418SOL    HW297833   4.202   3.218   3.730 -0.7656  0.4056 -3.7685
32419SOL     OW97834   8.879   5.365   6.172  0.3774 -0.2745 -0.3185
32419SOL    HW197835   8.933   5.437   6.204  2.7995 -2.5146  1.0961
32419SOL    HW297836   8.835   5.400   6.094  2.2310  2.3618 -0.3109
32420SOL     OW97837   8.687   8.417   6.730  0.2569 -0.5030 -0.8035
32420SOL    HW197838   8.782   8.404   6.733  0.2349 -0.4963  0.2736
32420SOL    HW297839   8.676   8.512   6.730  0.2416 -0.4773  0.6116
32421SOL     OW97840   2.007   1.245   2.348  0.5154  0.6109 -0.2630
32421SOL    HW197841   2.006   1.336   2.378 -1.0654 -0.0059  1.8070
32421SOL    HW297842   1.991   1.194   2.427  0.3819 -1.4118 -1.5403
32422SOL     OW97843   1.099   6.387   2.964 -0.0015  0.1512 -0.1593
32422SOL    HW197844   1.178   6.440   2.976  0.6876 -0.7781 -0.4732
32422SOL    HW297845   1.123   6.324   2.896 -1.1389  0.0882 -0.5161
32423SOL     OW97846   4.983   1.470   1.444 -0.4213  0.2784 -0.7154
32423SOL    HW197847   5.038   1.534   1.489 -0.8905  1.5305 -1.8788
32423SOL    HW297848   4.910   1.455   1.504  0.0959  0.1895 -0.0876
32424SOL     OW97849   2.592   0.616   9.296  0.5361 -0.1135  0.1087
32424SOL    HW197850   2.580   0.544   9.359  2.1134  0.1008  0.6938
32424SOL    HW297851   2.648   0.678   9.341 -1.4966  1.9638 -0.0509
32425SOL     OW97852   9.032   4.910   7.702 -0.2866 -0.1414 -0.2286
32425SOL    HW197853   8.958   4.937   7.757 -1.3728 -1.7975 -0.8190
32425SOL    HW297854   9.109   4.923   7.757 -1.2581 -0.9001  1.3683
32426SOL     OW97855   7.062   8.966   5.431  0.0464  0.4814  0.2759
32426SOL    HW197856   7.069   9.060   5.445 -0.2229  0.5761 -0.2092
32426SOL    HW297857   7.107   8.927   5.506 -0.2295  0.9866  0.7052
32427SOL     OW97858   2.517   2.312   6.583 -0.0671  0.5346 -0.3254
32427SOL    HW197859   2.592   2.351   6.538 -0.6245  1.4903 -0.4497
32427SOL    HW297860   2.556   2.247   6.641  0.9255  1.5015  0.1331
32428SOL     OW97861   2.921   6.587   9.927  0.0711 -0.0340 -0.3749
32428SOL    HW197862   2.885   6.602   9.840 -0.4865 -0.6484 -0.2551
32428SOL    HW297863   2.850   6.608   9.987  0.0475 -0.7874 -0.1204
32429SOL     OW97864   1.723   3.394   3.466 -0.3975 -0.4145 -0.0440
32429SOL    HW197865   1.680   3.376   3.550 -0.0357 -0.3433  0.1584
32429SOL    HW297866   1.802   3.443   3.490 -0.6963  0.2931 -0.4852
32430SOL     OW97867   3.484   4.044   6.435 -0.2557 -0.4164  0.1586
32430SOL    HW197868   3.520   3.988   6.365 -1.1725 -0.9074  0.0669
32430SOL    HW297869   3.400   4.073   6.401  0.2073  1.0435  0.2082
32431SOL     OW97870   0.974   3.168   4.586 -0.0507 -0.1129  0.5046
32431SOL    HW197871   1.050   3.196   4.535 -0.5028 -1.7605 -1.1815
32431SOL    HW297872   1.009   3.102   4.646 -0.1115 -0.7851 -0.1895
32432SOL     OW97873   1.390   5.088   8.968  0.3440  0.0398  0.4605
32432SOL    HW197874   1.448   5.146   8.919 -0.7148 -0.3279 -1.3190
32432SOL    HW297875   1.442   5.009   8.984  1.5886  1.1526  2.3712
32433SOL     OW97876   4.849   5.080   5.731 -0.0565  0.6562  0.0681
32433SOL    HW197877   4.930   5.030   5.736 -0.5136 -0.0359  1.0503
32433SOL    HW297878   4.862   5.140   5.658  1.0038 -0.0259 -0.3331
32434SOL     OW97879   0.772   4.570   3.420 -0.7602 -0.4497  0.1001
32434SOL    HW197880   0.751   4.614   3.337  1.4778  0.4685 -0.0396
32434SOL    HW297881   0.797   4.481   3.394 -1.0986 -0.5015 -0.0667
32435SOL     OW97882   6.454   4.594   6.473 -0.2874 -0.2655 -0.3357
32435SOL    HW197883   6.448   4.513   6.422 -1.7777  0.1966 -0.9612
32435SOL    HW297884   6.443   4.664   6.409 -1.0000  0.3640  0.4440
32436SOL     OW97885   4.838   3.939   3.173  0.1507  0.5209 -0.2261
32436SOL    HW197886   4.745   3.962   3.172  0.2093  0.7956  0.1979
32436SOL    HW297887   4.840   3.848   3.203  0.0483  0.6893  0.3039
32437SOL     OW97888   0.613   4.119   5.256  0.5300  0.1299  0.3016
32437SOL    HW197889   0.521   4.127   5.280  0.1096  0.8241 -1.4440
32437SOL    HW297890   0.613   4.067   5.175  1.4679  1.8380 -0.8593
32438SOL     OW97891   2.569   1.079   4.341  0.4163 -0.1768  0.8772
32438SOL    HW197892   2.535   1.095   4.429  1.1257  0.0463  1.1223
32438SOL    HW297893   2.627   1.003   4.351  0.6409 -0.0389  0.6380
32439SOL     OW97894   8.072   5.600   9.990 -0.0610  0.3817  0.6889
32439SOL    HW197895   7.988   5.554   9.995  0.6359 -0.8065  2.1053
32439SOL    HW297896   8.129   5.540   9.941  0.2254  0.7501  0.5668
32440SOL     OW97897   4.667   0.402   7.487  0.1666 -0.7251 -0.0940
32440SOL    HW197898   4.736   0.362   7.539  0.1977 -0.0091  0.4191
32440SOL    HW297899   4.615   0.451   7.549 -0.0395 -0.1994 -0.6708
32441SOL     OW97900   9.510   6.084   3.130  0.4435  0.4658  0.9805
32441SOL    HW197901   9.426   6.103   3.087 -0.3591  0.0470  2.3247
32441SOL    HW297902   9.529   5.994   3.106 -0.4746 -0.0789  2.2237
32442SOL     OW97903   5.272   8.301   4.055 -0.2074  0.0752 -0.7370
32442SOL    HW197904   5.305   8.371   3.998 -0.7382  0.8912 -0.0672
32442SOL    HW297905   5.337   8.231   4.047  0.4597  0.7300 -1.2351
32443SOL     OW97906   6.679   7.016   9.283  0.1185 -0.3484 -0.2627
32443SOL    HW197907   6.723   6.995   9.365  0.9200  1.1888 -0.2682
32443SOL    HW297908   6.738   7.078   9.239 -1.5481  0.9739 -0.7398
32444SOL     OW97909   5.832   5.392   6.798  0.1573  0.0877  0.1139
32444SOL    HW197910   5.816   5.298   6.785 -0.6289 -0.1036  2.1335
32444SOL    HW297911   5.901   5.395   6.864 -0.7895  0.8993  1.1000
32445SOL     OW97912   2.755   2.297   8.656 -0.2694  0.5089  0.7708
32445SOL    HW197913   2.805   2.269   8.579  0.9034  0.9249  1.3548
32445SOL    HW297914   2.719   2.382   8.632 -1.5908 -0.2366 -0.0222
32446SOL     OW97915   6.037   9.199   5.442 -0.3171 -0.0084 -0.6815
32446SOL    HW197916   6.095   9.147   5.387  0.7900  0.4021  0.0525
32446SOL    HW297917   6.039   9.286   5.404  0.1301  0.1797 -0.2334
32447SOL     OW97918   7.653   9.253   6.708 -0.1868 -0.1682 -0.5051
32447SOL    HW197919   7.745   9.253   6.735  0.0457  1.8687 -1.1599
32447SOL    HW297920   7.605   9.222   6.785  0.9269 -0.0176  0.2697
32448SOL     OW97921   9.374   7.292   0.262  0.2809 -0.9525 -0.3542
32448SOL    HW197922   9.448   7.305   0.322 -0.9454  1.0552  0.8237
32448SOL    HW297923   9.404   7.326   0.178  0.8877 -0.6753 -0.0290
32449SOL     OW97924   9.810   0.534   5.491 -0.4796 -0.6452  0.6514
32449SOL    HW197925   9.721   0.557   5.463 -0.6968 -0.0281  1.8022
32449SOL    HW297926   9.803   0.519   5.585  0.7183 -0.0757  0.8522
32450SOL     OW97927   8.097   0.444   5.694  0.0168  0.1011  0.0891
32450SOL    HW197928   8.034   0.447   5.621 -2.1693 -0.9942  1.8046
32450SOL    HW297929   8.178   0.480   5.657 -1.5566  1.5282 -2.2761
32451SOL     OW97930   0.584   6.432   3.150 -0.0086  0.2969 -0.3616
32451SOL    HW197931   0.611   6.400   3.237  0.0741  0.0487 -0.4771
32451SOL    HW297932   0.656   6.488   3.122 -0.5835  1.3680  0.2559
32452SOL     OW97933   6.526   0.984   5.889 -0.4506  0.0585  0.4138
32452SOL    HW197934   6.486   0.897   5.878  0.5496 -0.1057 -3.3997
32452SOL    HW297935   6.458   1.037   5.930 -1.7616 -2.0414  1.1075
32453SOL     OW97936   7.543   0.043   8.438  0.5242  0.4179 -0.0716
32453SOL    HW197937   7.533   0.134   8.411  1.1680  0.6244  0.3863
32453SOL    HW297938   7.616   0.010   8.385  3.0960  1.3569  2.6318
32454SOL     OW97939   1.953   0.384   9.336  0.3003 -0.3744 -0.1118
32454SOL    HW197940   1.862   0.381   9.366 -0.1784 -0.4764 -1.5210
32454SOL    HW297941   1.949   0.358   9.244  1.5735  1.0125 -0.5916
32455SOL     OW97942   7.191   5.194   5.663  0.7217 -0.1761 -0.3890
32455SOL    HW197943   7.123   5.207   5.729  0.5547 -1.7874 -0.2028
32455SOL    HW297944   7.211   5.282   5.631 -1.7760  0.3402 -0.7664
32456SOL     OW97945   4.757   5.416   3.852  0.4499  0.0812 -0.2555
32456SOL    HW197946   4.739   5.510   3.852 -0.4913 -0.0892  0.5143
32456SOL    HW297947   4.694   5.379   3.914  1.3272 -0.9646  0.0479
32457SOL     OW97948   5.377   1.653   2.343  0.2530  0.6060 -0.0351
32457SOL    HW197949   5.307   1.629   2.403  0.0284  2.8866  0.6918
32457SOL    HW297950   5.332   1.681   2.263  0.4141  0.6762 -0.1021
32458SOL     OW97951   4.058   3.626   4.557 -0.0740  0.0776  0.6412
32458SOL    HW197952   4.095   3.690   4.618 -0.3003  0.2855  0.5636
32458SOL    HW297953   4.036   3.678   4.479  0.0130 -0.1476  0.4662
32459SOL     OW97954   7.610   1.025   3.596  0.1697 -0.6510 -0.1302
32459SOL    HW197955   7.555   1.090   3.553 -0.1969 -0.2234  0.9446
32459SOL    HW297956   7.597   1.040   3.690  2.9945  0.2542  0.2191
32460SOL     OW97957   8.848  -0.016   0.058  0.0358 -0.1572 -0.2453
32460SOL    HW197958   8.850   0.052   0.125 -1.6184 -1.5860  1.3657
32460SOL    HW297959   8.930  -0.004   0.010 -0.1503  2.8695  0.0007
32461SOL     OW97960   6.570   6.802   3.145 -0.0218  0.0427 -0.6122
32461SOL    HW197961   6.499   6.842   3.095 -0.6314 -0.2073  0.0317
32461SOL    HW297962   6.648   6.852   3.122 -0.3495  0.1220 -1.5695
32462SOL     OW97963   0.018   7.235   4.615 -0.0437 -0.0942 -0.0465
32462SOL    HW197964   0.003   7.160   4.673 -0.4452 -1.2933 -1.6385
32462SOL    HW297965   0.111   7.256   4.627  0.0126 -0.6780  0.6185
32463SOL     OW97966   8.810   4.868   1.141  0.2205 -0.4195 -0.0104
32463SOL    HW197967   8.805   4.859   1.236 -1.4228 -1.5037 -0.1661
32463SOL    HW297968   8.724   4.840   1.109  0.6188  0.2434 -1.8026
32464SOL     OW97969   2.829   5.146   2.472 -0.0975  0.5040  0.5636
32464SOL    HW197970   2.872   5.230   2.487 -2.0574  1.4753  1.1895
32464SOL    HW297971   2.780   5.159   2.391  0.5996 -0.5085 -0.0426
32465SOL     OW97972   8.858   8.134   5.738  0.6323 -0.6613  0.3482
32465SOL    HW197973   8.828   8.058   5.688 -0.3289 -1.2484  1.7481
32465SOL    HW297974   8.925   8.100   5.796  0.9233 -0.2262  0.2747
32466SOL     OW97975   5.471   7.851   4.485  0.0819  0.1757  0.2608
32466SOL    HW197976   5.418   7.905   4.543 -0.2776 -1.2147  1.3002
32466SOL    HW297977   5.409   7.787   4.449  0.3606  0.8421 -1.4686
32467SOL     OW97978   4.822   8.262   2.812  0.1674 -0.1297 -0.3522
32467SOL    HW197979   4.763   8.186   2.813 -1.4209  1.0504  1.5533
32467SOL    HW297980   4.870   8.256   2.895 -0.4379  1.2812  0.1176
32468SOL     OW97981   7.603   4.027   1.696 -0.4982  0.3364 -0.2047
32468SOL    HW197982   7.531   3.964   1.704  0.5752 -0.7366  1.4731
32468SOL    HW297983   7.654   3.996   1.621 -0.4455 -0.3100  0.0945
32469SOL     OW97984   4.912   6.885   8.130 -0.3501  0.0177  0.3098
32469SOL    HW197985   4.949   6.830   8.199 -1.0490  0.9369  1.4635
32469SOL    HW297986   4.836   6.926   8.171  0.5708  2.4422 -0.2341
32470SOL     OW97987   8.485   2.825   7.456 -0.0558  0.2949  0.0480
32470SOL    HW197988   8.545   2.899   7.466  0.9031 -0.3643 -0.5897
32470SOL    HW297989   8.403   2.864   7.427  0.6669  1.0567 -1.0623
32471SOL     OW97990   5.485   7.813   3.602  0.4367 -0.3541  0.0055
32471SOL    HW197991   5.541   7.749   3.646  1.3054  0.5949  0.3327
32471SOL    HW297992   5.396   7.786   3.624  0.8213 -0.0931  2.1424
32472SOL     OW97993   4.386   1.632   0.066  0.0049 -0.5615 -0.0051
32472SOL    HW197994   4.374   1.681   0.148 -0.2489  1.4794 -1.1809
32472SOL    HW297995   4.469   1.586   0.077  0.2857  0.1775  1.1689
32473SOL     OW97996   2.783   0.277   9.373 -0.1483  0.6042  0.2544
32473SOL    HW197997   2.706   0.311   9.419 -0.8798 -0.0822 -0.4340
32473SOL    HW297998   2.785   0.184   9.394  0.9152  0.7424  0.8341
32474SOL     OW97999   0.847   6.729   4.687  0.0044  0.0432  0.0033
32474SOL    HW198000   0.775   6.776   4.729 -0.6012 -0.5133 -0.3732
32474SOL    HW298001   0.903   6.701   4.759  0.3023  1.2213  0.2347
32475SOL     OW98002   2.342   9.622   0.385  0.0379  0.6997  0.4502
32475SOL    HW198003   2.368   9.562   0.316 -1.7903  0.3810  0.0050
32475SOL    HW298004   2.257   9.656   0.358 -0.2937  1.2873  2.0921
32476SOL     OW98005   3.299   9.325   2.811 -0.0537  0.0564  0.7376
32476SOL    HW198006   3.347   9.381   2.872  1.8657  0.9852 -1.4638
32476SOL    HW298007   3.230   9.285   2.864  1.5011  0.7500  3.4863
32477SOL     OW98008   4.634   1.488   3.203 -0.0161  0.2607  0.1001
32477SOL    HW198009   4.619   1.394   3.200  1.0115  0.0783  0.0581
32477SOL    HW298010   4.708   1.499   3.262 -0.0154  1.0240 -0.0255
32478SOL     OW98011   3.165   7.119   6.852 -0.4832 -0.1900  0.1874
32478SOL    HW198012   3.249   7.132   6.808 -1.3088  0.9184 -1.1471
32478SOL    HW298013   3.150   7.200   6.901 -1.4887  0.2842 -0.8657
32479SOL     OW98014   0.343   2.228   4.729 -0.0898  0.0034  0.3482
32479SOL    HW198015   0.438   2.232   4.733 -0.0395 -0.2583 -0.3978
32479SOL    HW298016   0.315   2.318   4.713  0.0294  0.0791  0.5664
32480SOL     OW98017   6.132   8.374   5.686 -0.3688 -0.5423  0.2888
32480SOL    HW198018   6.110   8.380   5.779 -1.7418 -1.3013  0.0488
32480SOL    HW298019   6.053   8.405   5.641  0.2797 -0.1760 -0.6344
32481SOL     OW98020   5.322   0.869   4.139  0.5869 -0.1935 -0.2668
32481SOL    HW198021   5.253   0.934   4.132  2.1334  1.4175 -1.4622
32481SOL    HW298022   5.340   0.863   4.233 -0.0454  0.6122 -0.0858
32482SOL     OW98023   9.527   7.540   9.676  0.3572  0.5014 -0.1991
32482SOL    HW198024   9.569   7.455   9.665 -1.2848 -0.4066  0.2445
32482SOL    HW298025   9.497   7.563   9.588  1.4730  1.0118 -0.4614
32483SOL     OW98026   0.312   8.974   3.635 -0.3602  0.7611 -0.3698
32483SOL    HW198027   0.299   9.009   3.723 -3.5889 -0.7993 -0.1165
32483SOL    HW298028   0.384   8.912   3.645 -1.4025 -0.2400  1.4741
32484SOL     OW98029   1.974   6.789   6.919 -0.2422 -0.6276  0.2272
32484SOL    HW198030   1.974   6.714   6.859 -1.4857 -0.1227 -0.4473
32484SOL    HW298031   1.989   6.751   7.005  0.6324 -1.4786 -0.2793
32485SOL     OW98032   1.479   4.759   2.677  0.3056 -0.5152 -0.2192
32485SOL    HW198033   1.384   4.768   2.676  0.2512 -0.9470  0.4040
32485SOL    HW298034   1.494   4.671   2.711  0.9395 -0.3075  0.0488
32486SOL     OW98035   7.769   5.465   3.868 -0.5149  0.3409  0.2860
32486SOL    HW198036   7.820   5.542   3.844 -0.8801  0.7376  0.7666
32486SOL    HW298037   7.730   5.435   3.785  0.0555  0.3515  0.0095
32487SOL     OW98038   4.088   5.350   3.935 -0.4792 -0.0377 -0.2408
32487SOL    HW198039   4.027   5.277   3.942 -1.1211  0.4503 -0.6935
32487SOL    HW298040   4.033   5.428   3.939  0.3829  0.5385  2.6803
32488SOL     OW98041   3.273   4.296   4.433  0.4656  0.0626 -0.3078
32488SOL    HW198042   3.254   4.386   4.459  0.2791 -0.3419  1.0065
32488SOL    HW298043   3.358   4.276   4.473 -0.3622 -0.9520  1.0352
32489SOL     OW98044   6.236   6.035   7.617  0.4054 -0.6223  0.0337
32489SOL    HW198045   6.146   6.047   7.587  0.1853  2.2666  1.4119
32489SOL    HW298046   6.290   6.068   7.546  0.0298  2.7865  1.1319
32490SOL     OW98047   3.550   5.720   8.549 -0.2459  0.0443 -0.5254
32490SOL    HW198048   3.592   5.734   8.464  1.1901  1.0042  0.3110
32490SOL    HW298049   3.536   5.808   8.584  0.6804 -0.3628  0.9449
32491SOL     OW98050   2.608   7.990   0.206 -0.4339  0.2535  0.0560
32491SOL    HW198051   2.688   7.937   0.210  0.2387  1.2952  1.4737
32491SOL    HW298052   2.633   8.073   0.246 -2.1708  0.6944  0.2853
32492SOL     OW98053   0.786   9.720   5.295 -0.2410 -0.5172  0.4099
32492SOL    HW198054   0.753   9.686   5.378 -2.5573 -2.9289 -1.3138
32492SOL    HW298055   0.709   9.760   5.253  0.9507  0.9706 -0.4562
32493SOL     OW98056   3.997   0.239   0.360 -0.2963 -0.3846 -0.6403
32493SOL    HW198057   3.949   0.202   0.286 -0.9682  0.4047 -0.6113
32493SOL    HW298058   4.089   0.226   0.337 -0.4935 -0.1800 -1.6008
32494SOL     OW98059   3.696   8.789   5.465  0.1865  0.0637  0.0541
32494SOL    HW198060   3.762   8.726   5.494  0.1066  0.6105  1.5074
32494SOL    HW298061   3.746   8.866   5.438  0.1857  0.2880  0.6684
32495SOL     OW98062   0.672   7.762   6.119  0.2608 -0.6102  0.0796
32495SOL    HW198063   0.606   7.781   6.186 -0.1478  0.7446 -0.6749
32495SOL    HW298064   0.740   7.827   6.133 -0.9625  1.2952 -2.2925
32496SOL     OW98065   0.049   4.089   3.218 -0.9137  0.4508 -0.1322
32496SOL    HW198066   0.080   4.094   3.308 -3.2974  0.6266  0.7694
32496SOL    HW298067   0.050   4.180   3.188  0.7852  0.2864 -0.6654
32497SOL     OW98068   5.236   8.200   9.966  0.0102  0.4002  0.1376
32497SOL    HW198069   5.161   8.173   9.911 -0.7384 -0.2484  1.4324
32497SOL    HW298070   5.264   8.119  10.008  1.6382  0.5901 -0.5224
32498SOL     OW98071   4.329   6.323   0.984  0.3252  0.6388  0.3712
32498SOL    HW198072   4.330   6.251   0.922  2.4285 -0.3653  1.4539
32498SOL    HW298073   4.340   6.402   0.931  0.4292 -0.0574 -0.6518
32499SOL     OW98074   2.234   8.936   9.730  0.6661  0.0839  0.6647
32499SOL    HW198075   2.259   9.028   9.729  0.0719  0.2875  2.3472
32499SOL    HW298076   2.316   8.889   9.714  1.3680  0.8616  1.8042
32500SOL     OW98077   3.863   6.258   3.380  0.5489 -0.4305  0.3262
32500SOL    HW198078   3.787   6.311   3.354 -0.5211 -2.2786 -0.5073
32500SOL    HW298079   3.938   6.317   3.369 -0.3037  0.2558 -2.9500
32501SOL     OW98080   5.467   3.013   9.181 -0.1684 -0.3648 -0.5327
32501SOL    HW198081   5.517   3.063   9.245  0.6814  0.7292 -1.9820
32501SOL    HW298082   5.496   2.923   9.194 -1.3909 -0.5004  1.8111
32502SOL     OW98083   8.824   4.883   3.547  0.0113  0.1920  0.2126
32502SOL    HW198084   8.899   4.932   3.513  1.4461 -1.9769  0.0034
32502SOL    HW298085   8.857   4.794   3.557 -2.7514 -1.0374 -0.5884
32503SOL     OW98086   9.895   9.315   7.594 -0.5431  0.4628 -0.5115
32503SOL    HW198087   9.921   9.399   7.633  2.9192  0.2133 -1.9382
32503SOL    HW298088   9.946   9.250   7.643  0.0988 -0.3264 -2.1705
32504SOL     OW98089   4.880   5.929   0.039  0.2267  0.5119  0.5236
32504SOL    HW198090   4.818   5.995   0.070 -0.6725  0.1200 -0.4175
32504SOL    HW298091   4.829   5.849   0.033  0.9211  0.0916  0.1146
32505SOL     OW98092   1.192   4.678   7.966 -0.6148  0.2879 -0.0390
32505SOL    HW198093   1.209   4.748   8.028 -0.1350  0.7883 -0.7285
32505SOL    HW298094   1.109   4.702   7.924 -0.7494  0.1357  0.1329
32506SOL     OW98095   0.323   9.711   9.795  0.2328 -0.2989 -0.0823
32506SOL    HW198096   0.263   9.785   9.806  0.6882 -0.2833  3.0832
32506SOL    HW298097   0.272   9.635   9.820  1.0179 -0.4887  0.9887
32507SOL     OW98098   5.154   3.688   2.917  0.5339 -0.3991  0.4225
32507SOL    HW198099   5.199   3.773   2.921  1.3372 -0.7652 -0.4826
32507SOL    HW298100   5.061   3.710   2.924  0.6312  0.6921 -1.2243
32508SOL     OW98101   4.840   1.979   4.985  0.1122  0.1137 -0.5736
32508SOL    HW198102   4.806   2.011   4.902  0.6028 -0.8540 -1.1669
32508SOL    HW298103   4.767   1.930   5.024  0.7445 -1.9885 -1.8585
32509SOL     OW98104   8.886   2.264   4.155 -0.3926  0.3135 -0.0311
32509SOL    HW198105   8.954   2.298   4.097 -0.4198 -0.5170 -0.5775
32509SOL    HW298106   8.856   2.340   4.205  1.8115  0.4865  1.1538
32510SOL     OW98107   0.251   8.488   7.263  0.1784 -0.3286 -0.2552
32510SOL    HW198108   0.173   8.446   7.299 -0.7318  1.7151  0.3546
32510SOL    HW298109   0.319   8.474   7.329 -0.7110  0.9430  1.0114
32511SOL     OW98110   5.216   9.677   0.314  0.2328  0.2981  0.5767
32511SOL    HW198111   5.144   9.631   0.357 -0.4853  0.9090  0.0409
32511SOL    HW298112   5.274   9.607   0.284 -1.5056 -0.4125 -1.4239
32512SOL     OW98113   2.535   7.099   5.286  0.0573  0.4757  0.3921
32512SOL    HW198114   2.527   7.053   5.369  0.4774 -1.8968 -0.8023
32512SOL    HW298115   2.447   7.131   5.267 -0.2892  0.0021  1.1858
32513SOL     OW98116   6.791   2.858   5.944 -0.0464  0.0045 -0.2097
32513SOL    HW198117   6.826   2.864   5.855 -1.2377 -0.2797 -0.7130
32513SOL    HW298118   6.832   2.779   5.980  2.9061  1.7611  0.6639
32514SOL     OW98119   2.511   8.834   9.904 -0.0413 -0.0076  0.1773
32514SOL    HW198120   2.503   8.823   9.809 -1.0332 -2.0539  0.4611
32514SOL    HW298121   2.603   8.857   9.917  0.1811  0.0384 -1.2525
32515SOL     OW98122   4.998   9.121   0.525  0.3434 -0.0909  0.0183
32515SOL    HW198123   4.953   9.188   0.576  0.0232  0.9768 -1.5927
32515SOL    HW298124   4.976   9.038   0.568 -0.9365  0.6498  0.8313
32516SOL     OW98125   8.057   3.821   8.845  0.3286  0.1769  0.0129
32516SOL    HW198126   8.126   3.786   8.902  0.0247 -1.1341 -0.3999
32516SOL    HW298127   7.999   3.870   8.905 -0.4004 -1.7908  1.0029
32517SOL     OW98128   9.799   2.437   0.028 -0.3003 -0.1142  0.6914
32517SOL    HW198129   9.866   2.414   0.092 -0.1161  0.1658  0.5985
32517SOL    HW298130   9.823   2.388  -0.051 -0.1148  0.1119  0.6078
32518SOL     OW98131   8.312   0.109   8.554  0.1451 -0.7298 -0.0993
32518SOL    HW198132   8.307   0.197   8.516  0.9623 -0.8850 -0.5912
32518SOL    HW298133   8.359   0.121   8.637 -0.8877 -0.5179  0.4685
32519SOL     OW98134   2.832   4.707   4.603 -0.2619 -0.4124 -0.5057
32519SOL    HW198135   2.797   4.746   4.683  1.2174  0.8444 -0.4224
32519SOL    HW298136   2.858   4.618   4.629 -0.0062 -0.0946  0.3615
32520SOL     OW98137   0.328   6.253   5.209  0.3819 -0.3449 -0.2968
32520SOL    HW198138   0.237   6.241   5.236 -0.0010  3.6158  0.8014
32520SOL    HW298139   0.328   6.232   5.116 -1.2186 -2.1082  0.0436
32521SOL     OW98140   9.876   0.894   7.936  0.4848  0.1275  0.0467
32521SOL    HW198141   9.938   0.965   7.917  1.9967 -1.1322  0.1126
32521SOL    HW298142   9.850   0.909   8.027 -1.3838  2.1450 -0.7170
32522SOL     OW98143   0.384   1.933   1.093  0.1114  0.3714 -0.5411
32522SOL    HW198144   0.361   2.006   1.149  1.2038  0.5222 -0.2559
32522SOL    HW298145   0.332   1.946   1.014 -1.6746 -0.0181  0.5315
32523SOL     OW98146   3.996   7.067   2.233 -0.2961  0.0126 -0.2554
32523SOL    HW198147   3.911   7.028   2.212 -1.1239  1.2117  0.7167
32523SOL    HW298148   4.035   7.005   2.295  0.3086 -1.3858 -1.9523
32524SOL     OW98149   2.806   2.997   3.670  0.7152  1.0706 -0.1005
32524SOL    HW198150   2.780   2.960   3.754  2.0142  2.2349  0.8727
32524SOL    HW298151   2.785   2.930   3.606  2.9589 -1.3900  1.5443
32525SOL     OW98152   8.803   8.468   2.381  0.2662  0.0997  0.0788
32525SOL    HW198153   8.720   8.426   2.402  0.4677  0.4891  1.8454
32525SOL    HW298154   8.787   8.515   2.300 -0.7288 -1.1960 -0.5050
32526SOL     OW98155   3.029   8.559   7.049  0.4128 -0.0539  0.2083
32526SOL    HW198156   3.102   8.598   7.097 -1.1804  0.2958  2.4777
32526SOL    HW298157   3.009   8.479   7.097 -1.0901  0.1832  0.0198
32527SOL     OW98158   5.265   5.073   5.032  0.1109  0.0874 -0.3215
32527SOL    HW198159   5.273   5.036   4.944 -4.5050 -0.0802 -0.9251
32527SOL    HW298160   5.249   5.167   5.017  2.2277  0.6656  0.6352
32528SOL     OW98161   4.847   7.755   5.855 -0.3493  0.1482  0.2748
32528SOL    HW198162   4.890   7.670   5.863 -0.6491  0.1132  1.7070
32528SOL    HW298163   4.904   7.815   5.904 -2.3406 -0.0892  3.1223
32529SOL     OW98164   5.793   3.714   1.662  0.4898 -0.3969 -0.1503
32529SOL    HW198165   5.796   3.631   1.710  1.3280  0.1840  0.8492
32529SOL    HW298166   5.765   3.779   1.727  2.8250  0.6239 -0.0701
32530SOL     OW98167   6.709   4.696   5.679  0.4711  0.0282 -0.1405
32530SOL    HW198168   6.678   4.657   5.597  0.8653 -1.3701  0.3315
32530SOL    HW298169   6.798   4.726   5.659  1.3493 -2.1255  0.2374
32531SOL     OW98170   4.661   2.306   1.271  0.4998 -0.3939 -0.1217
32531SOL    HW198171   4.636   2.227   1.222 -0.7599 -0.9760  1.3689
32531SOL    HW298172   4.681   2.275   1.359 -0.4386  0.9785  0.6157
32532SOL     OW98173   3.834   1.594   1.508  0.3027  0.7903  0.0567
32532SOL    HW198174   3.830   1.684   1.476 -0.2584  0.5606 -0.5766
32532SOL    HW298175   3.760   1.551   1.464  0.6624 -0.0129  0.2259
32533SOL     OW98176   9.074   1.285   2.497  0.0703 -0.4278 -0.0207
32533SOL    HW198177   8.981   1.306   2.500 -0.2709 -1.7564 -0.4823
32533SOL    HW298178   9.077   1.189   2.501  1.3738 -0.4454 -0.7841
32534SOL     OW98179   4.685   1.936   7.558  0.3340  0.3137  0.2420
32534SOL    HW198180   4.708   1.968   7.471 -0.1460  0.5180  0.1856
32534SOL    HW298181   4.593   1.960   7.569  0.7478  1.5027  1.3422
32535SOL     OW98182   3.021   6.892   2.167  0.2734  0.2616  0.0964
32535SOL    HW198183   3.038   6.951   2.240 -0.0947  0.1376  0.2875
32535SOL    HW298184   2.949   6.933   2.120  2.0578  1.5920 -1.6079
32536SOL     OW98185   6.801   3.636   6.319  0.2180 -0.2753 -0.2718
32536SOL    HW198186   6.784   3.658   6.227  2.1198  0.9933 -0.3949
32536SOL    HW298187   6.715   3.618   6.356 -0.5116 -2.0234 -2.5591
32537SOL     OW98188   2.500   9.196   6.605 -0.3604 -0.7524 -0.0051
32537SOL    HW198189   2.532   9.139   6.535 -0.0794 -0.5533 -0.0390
32537SOL    HW298190   2.541   9.281   6.588 -1.0900 -0.4241 -0.1878
32538SOL     OW98191   8.824   8.793   9.418  0.0183  0.2968 -0.0006
32538SOL    HW198192   8.796   8.809   9.328  0.4006 -0.4743 -0.2652
32538SOL    HW298193   8.764   8.725   9.450 -2.1563  2.6815  1.3939
32539SOL     OW98194   9.558   7.759   6.878  0.2250  0.6328 -0.1623
32539SOL    HW198195   9.494   7.730   6.813 -0.6862 -1.2391  1.4481
32539SOL    HW298196   9.632   7.700   6.867 -0.3178 -0.3212  1.0365
32540SOL     OW98197   0.361   9.242   1.697  0.3974 -0.1023 -0.2303
32540SOL    HW198198   0.319   9.194   1.769  0.2380 -1.4120 -1.1521
32540SOL    HW298199   0.324   9.330   1.702 -1.1438 -0.7274  0.0556
32541SOL     OW98200   1.883   6.717   2.395  0.3402  0.1861  0.0380
32541SOL    HW198201   1.881   6.650   2.464 -0.0763  0.2474  0.0896
32541SOL    HW298202   1.969   6.708   2.356  0.1578 -0.6325 -0.1989
32542SOL     OW98203   5.019   5.291   7.261  0.0727  0.0090 -0.6667
32542SOL    HW198204   5.069   5.287   7.343  0.7628 -1.5350 -1.1206
32542SOL    HW298205   5.086   5.284   7.192 -0.4428  1.8210 -1.4056
32543SOL     OW98206   5.637   3.888   1.249  0.4194  0.3768  0.2421
32543SOL    HW198207   5.674   3.886   1.160  0.5250  0.0721  0.2925
32543SOL    HW298208   5.618   3.797   1.269 -2.9285  0.6780 -0.8624
32544SOL     OW98209   4.959   1.360   9.675  0.1565 -0.3084 -1.2760
32544SOL    HW198210   4.896   1.300   9.715 -0.3909  2.0463  1.7390
32544SOL    HW298211   5.038   1.307   9.665 -1.0367 -2.2142 -1.1888
32545SOL     OW98212   3.824   2.584   5.163  0.5819  0.0714  0.5687
32545SOL    HW198213   3.766   2.659   5.175  0.2509 -0.3527  1.7526
32545SOL    HW298214   3.818   2.563   5.070  1.0878  1.8198  0.1058
32546SOL     OW98215   6.189   0.787   4.251 -0.1682 -0.4458  0.7044
32546SOL    HW198216   6.206   0.710   4.196 -1.0131 -1.1933  1.4460
32546SOL    HW298217   6.275   0.817   4.277  0.2036 -0.7248 -0.1567
32547SOL     OW98218   7.698   9.013   9.445 -0.4048 -0.3748  0.3268
32547SOL    HW198219   7.740   9.099   9.440  0.0595 -0.6448 -0.7033
32547SOL    HW298220   7.767   8.951   9.421 -0.7771 -1.0300  0.8952
32548SOL     OW98221   8.501   9.721   9.123  0.0385  0.1369 -0.4587
32548SOL    HW198222   8.434   9.735   9.056  0.6965 -1.9137 -1.6157
32548SOL    HW298223   8.490   9.796   9.183 -1.0594  1.6411 -2.4008
32549SOL     OW98224   0.656   3.207   5.836 -0.2582 -0.7944  0.7827
32549SOL    HW198225   0.638   3.117   5.864  1.4205 -1.2084  0.6173
32549SOL    HW298226   0.671   3.200   5.742  0.1220 -0.3811  0.8116
32550SOL     OW98227   2.300   6.560   1.909 -0.4833  0.0184  0.1899
32550SOL    HW198228   2.322   6.618   1.982  0.6025 -0.1162 -0.0106
32550SOL    HW298229   2.323   6.473   1.940 -1.1198 -0.1899  0.1011
32551SOL     OW98230   8.386   4.754   6.475  0.2145  0.4139  0.1481
32551SOL    HW198231   8.325   4.698   6.428  0.7649 -0.7432  0.7607
32551SOL    HW298232   8.388   4.835   6.425  1.2731 -0.9824 -2.2395
32552SOL     OW98233   2.686   9.568   3.965  0.1223 -0.2296 -0.0817
32552SOL    HW198234   2.694   9.623   3.887 -1.7531 -0.8687 -0.7665
32552SOL    HW298235   2.667   9.481   3.931  4.7526 -1.9421  0.8363
32553SOL     OW98236   9.357   9.640   4.525 -0.3236 -0.5889  0.1396
32553SOL    HW198237   9.419   9.583   4.480 -0.6199 -2.1735  1.6524
32553SOL    HW298238   9.284   9.583   4.549 -0.1642  0.1261  2.6190
32554SOL     OW98239   7.095   9.977   6.579  0.4366  0.2063 -0.5723
32554SOL    HW198240   7.014   9.926   6.578 -0.2192  1.2056 -0.8118
32554SOL    HW298241   7.118   9.984   6.672  1.3766 -1.7494 -0.6082
32555SOL     OW98242   5.117   2.304   8.472  0.3240  0.3959 -0.2399
32555SOL    HW198243   5.154   2.383   8.512 -2.0291  2.2987 -1.5112
32555SOL    HW298244   5.189   2.267   8.421  1.8440  0.9500  1.3673
32556SOL     OW98245   9.299   5.804   8.541 -0.9349 -0.2157 -0.3067
32556SOL    HW198246   9.357   5.778   8.470  0.4957 -0.2063  0.8225
32556SOL    HW298247   9.310   5.899   8.548 -0.1872 -0.3615  0.6585
32557NA      NA98248   2.289   3.421   4.353  0.0314 -0.2331  0.1670
32558NA      NA98249   1.077   1.788   5.424  0.4878 -0.4321  0.3329
32559NA      NA98250   0.040   1.081   5.206 -0.1839 -0.4509 -0.3557
32560NA      NA98251   7.620   4.285   4.896 -0.1783 -0.2171 -0.3287
32561NA      NA98252   3.767   9.664   5.589  0.2633  0.2406  0.2178
32562NA      NA98253   3.280   5.389   9.086 -0.5928  0.3742  0.1577
32563NA      NA98254   2.298   3.554   4.008  0.1191 -0.4571 -0.2063
32564NA      NA98255   8.687   3.336   4.278  0.2951  0.0908  0.0852
32565NA      NA98256   2.839   2.924   6.408  0.3937 -0.0222 -0.3035
32566NA      NA98257   9.260   5.481   2.983  0.1302  0.6246 -0.5839
32567NA      NA98258   0.889   2.237   8.276 -0.0824  0.1321  0.2407
32568NA      NA98259   7.239   8.893   4.572  0.0250  0.1876 -0.3613
32569NA      NA98260   6.289   4.328   5.390 -0.2330  0.0781 -0.6494
32570NA      NA98261   9.172   9.850   6.219  0.0686  0.4151  0.0501
32571NA      NA98262   9.081   5.056   6.624  0.1110 -0.0261  0.0945
32572NA      NA98263   2.496   3.727   5.294  0.4139  0.1883 -0.2325
32573NA      NA98264   8.292   2.696   1.622 -0.0215 -0.6619  0.2566
32574NA      NA98265   7.706   2.752   2.506  0.1496  0.0596  0.1368
32575NA      NA98266   7.555   6.789   8.049 -0.3753  0.2644  0.2984
   9.97624   9.97624   9.97624
